default_name
175040
  59.1589987  90.8285006  39.6055017  59.3769987  90.3845006  40.4865017
  58.8569987  91.7755006  39.7855017  59.9139987  90.6535006  38.9575017
  57.9709987  90.1405006  39.0215017  57.1689987  90.8705006  38.9125017
  58.2929987  89.5215006  37.6455017  58.6329987  90.3025006  36.9655017
  59.3889987  88.4735006  37.8035017  59.0499987  87.6915006  38.4825017
  59.6169987  88.0355006  36.8315017  60.2849987  88.9425006  38.2095017
  57.0399987  88.8645006  37.0765017  56.2559987  89.6135006  36.9635017
  56.6989987  88.0825006  37.7555017  57.3589987  88.2535006  35.7165017
  58.1429987  87.5045006  35.8295017  56.4639987  87.7835006  35.3095017
  57.6989987  89.0355006  35.0375017  57.4569987  89.0485006  39.9675017
  58.2299987  88.3995006  40.6735017  56.1409987  88.8625006  39.9855017
  55.5449987  89.4375006  39.4085017  55.5179987  87.8555006  40.8335017
  55.9459987  87.8995006  41.8345017  54.0079987  88.0985006  40.9355017
  53.8799987  89.1075006  41.3275017  53.6149987  88.0515006  39.9195017
  53.2529987  87.1125006  41.8175017  52.1889987  87.1965006  41.5945017
  53.5959987  86.1065006  41.5755017  53.4579987  87.3505006  43.3035017
  54.2619987  88.1865006  43.7115017  52.7229987  86.6105006  44.1205017
  52.8149987  86.7235006  45.1195017  52.0739987  85.9365006  43.7405017
  55.7769987  86.4785006  40.2485017  55.6169987  86.2635006  39.0465017
  56.1859987  85.5505006  41.1015017  56.4979987  85.8115006  42.0255017
  56.2879987  84.1555006  40.7085017  56.1069987  84.0685006  39.6375017
  57.6829987  83.5825006  41.0195017  57.6689987  82.5565006  40.6525017
  58.3829987  84.1705006  40.4255017  58.1219987  83.5945006  42.4845017
  57.7059987  84.4815006  42.9635017  57.7289987  82.7015006  42.9705017
  59.6439987  83.6145006  42.6105017  60.0179987  84.5545006  42.2045017
  59.9109987  83.5435006  43.6655017  60.2779987  82.5055006  41.8895017
  59.7839987  81.6245006  41.9115017  61.4389987  82.5695006  41.2305017
  62.1419987  83.6985006  41.1605017  61.7979987  84.5335006  41.6135017
  63.0159987  83.7145006  40.6545017  61.9039987  81.4845006  40.6175017
  61.3779987  80.6225006  40.6545017  62.7809987  81.5275006  40.1185017
  55.1819987  83.3605006  41.3865017  54.5439987  83.8265006  42.3335017
  54.9479987  82.1655006  40.8595017  55.4669987  81.8965006  40.0355017
  53.9709987  81.2265006  41.3985017  53.1059987  81.7585006  41.7945017
  53.5019987  80.2975006  40.2715017  53.3599987  80.9035006  39.3765017
  54.3379987  79.6155006  40.1185017  52.2459987  79.5015006  40.5455017
  51.1379987  80.0815006  41.1565017  51.1879987  81.1295006  41.4525017
  49.9869987  79.3515006  41.3895017  49.1309987  79.8135006  41.8815017
  49.9249987  78.0385006  40.9925017  48.7829987  77.3175006  41.2185017
  48.0979987  77.8275006  41.6565017  51.0029987  77.4435006  40.3755017
  50.9549987  76.3995006  40.0655017  52.1509987  78.1795006  40.1495017
  53.0039987  77.7195006  39.6505017  54.5989987  80.4155006  42.5185017
  53.9649987  80.1445006  43.5345017  55.8589987  80.0415006  42.3135017
  56.3109987  80.3285006  41.4565017  56.6139987  79.2245006  43.2525017
  56.1119987  79.1215006  44.2145017  56.8599987  77.8155006  42.6715017
  57.3379987  77.9165006  41.6975017  57.7529987  76.9955006  43.5925017
  57.2749987  76.8935006  44.5665017  57.9109987  76.0075006  43.1605017
  58.7129987  77.4975006  43.7105017  55.5369987  77.1055006  42.4215017
  54.9429987  77.6825006  41.7125017  55.7279987  76.1135006  42.0115017
  54.9909987  77.0115006  43.3605017  57.9579987  79.8825006  43.5625017
  58.6729987  80.3305006  42.6635017  58.2969987  79.9285006  44.8415017
  57.6579987  79.5915006  45.5475017  59.5699987  80.4765006  45.2715017
  59.7979987  81.3815006  44.7085017  59.5069987  80.8265006  46.7515017
  59.1769987  79.9305006  47.2775017  60.5209987  81.0785006  47.0635017
  58.5749987  81.9795006  47.0815017  59.0509987  82.9235006  46.8145017
  57.6459987  81.8705006  46.5225017  58.2749987  81.9675006  48.5675017
  57.4599987  81.2665006  48.7475017  59.1669987  81.6295006  49.0945017
  57.8919987  83.2725006  49.0885017  58.1209987  84.0795006  48.5255017
  57.2769987  83.4645006  50.2545017  56.9539987  82.4335006  51.0335017
  57.1769987  81.4935006  50.7395017  56.4879987  82.5965006  51.9145017
  56.9679987  84.6965006  50.6425017  57.2009987  85.4815006  50.0515017
  56.5019987  84.8425006  51.5265017  60.7079987  79.4875006  45.0395017
  60.4869987  78.2775006  44.9305017  61.9309987  80.0105006  44.9975017
  62.0529987  81.0095006  45.0805017  63.1139987  79.1855006  44.7645017
  62.9989987  78.6265006  43.8355017  64.3599987  80.0635006  44.6555017
  64.4349987  80.6395006  45.5785017  65.2199987  79.3995006  44.5715017
  64.3339987  81.0145006  43.4645017  63.5939987  80.6495006  42.7525017
  64.0379987  82.0005006  43.8215017  65.6909987  81.1095006  42.7815017
  65.6929987  81.9985006  42.1505017  66.4539987  81.2105006  43.5525017
  65.9899987  79.8775006  41.9275017  67.0719987  79.7865006  41.8355017
  65.5959987  79.0045006  42.4475017  65.3819987  79.9635006  40.5715017
  65.7469987  80.7725006  40.0895017  65.6069987  79.1295006  40.0485017
  64.3789987  80.0465006  40.6565017  63.3009987  78.1375006  45.8565017
  63.8439987  77.0605006  45.6075017  62.8419987  78.4565006  47.0625017
  62.4759987  79.3825006  47.2315017  62.9479987  77.5365006  48.1935017
  63.8579987  76.9435006  48.0965017  62.9999987  78.3045006  49.5325017
  63.3079987  77.6095006  50.3135017  63.7549987  79.0835006  49.4215017
  61.6699987  78.9385006  49.9135017  60.6279987  78.2625006  49.7735017
  61.6759987  80.1055006  50.3675017  61.8329987  76.4975006  48.2095017
  61.8839987  75.5675006  49.0035017  60.8179987  76.6705006  47.3635017
  60.7549987  77.5185006  46.8175017  59.7749987  75.6575006  47.1955017
  59.7559987  75.4115006  46.1335017  60.1009987  74.7865006  47.7635017
  58.3739987  76.0415006  47.6395017  57.4019987  75.4285006  47.1975017
  58.2609987  77.0455006  48.5065017  59.0839987  77.4775006  48.9015017
  56.9499987  77.4965006  48.9725017  56.3549987  76.6355006  49.2775017
  57.0869987  78.4405006  50.1635017  57.7389987  79.2615006  49.8645017
  56.0959987  78.8305006  50.3955017  57.6639987  77.7575006  51.3945017
  57.3369987  76.7175006  51.3905017  58.7509987  77.7965006  51.3265017
  57.2139987  78.4245006  52.6815017  57.4949987  79.4775006  52.6475017
  56.1299987  78.3415006  52.7585017  57.8599987  77.7665006  53.8905017
  57.7739987  76.6855006  53.7815017  58.9129987  78.0455006  53.9125017
  57.2089987  78.1895006  55.1585017  56.2329987  77.9305006  55.1385017
  57.6619987  77.7345006  55.9375017  57.2889987  79.1915006  55.2605017
  56.1509987  78.1625006  47.8605017  56.7189987  78.7305006  46.9305017
  54.8279987  78.0875006  47.9785017  54.4329987  77.7185006  48.8315017
  53.9179987  78.5025006  46.9195017  54.4729987  78.7165006  46.0065017
  52.9279987  77.3855006  46.6355017  52.3619987  77.1185006  47.5285017
  52.2379987  77.6585006  45.8365017  53.7459987  75.8785006  46.0945017
  52.6349987  75.1625006  45.9475017  53.1509987  79.7515006  47.2925017
  52.5619987  79.8215006  48.3685017  53.1409987  80.7175006  46.3785017
  53.6309987  80.5715006  45.5075017  52.4939987  82.0025006  46.5995017
  52.5609987  82.2805006  47.6515017  53.1839987  83.0805006  45.7655017
  53.1779987  82.7585006  44.7245017  52.6339987  84.0165006  45.8585017
  54.6159987  83.3175006  46.1895017  54.9379987  83.2805006  47.3745017
  55.4829987  83.5795006  45.2205017  56.4529987  83.7455006  45.4465017
  55.1689987  83.6115006  44.2615017  51.0049987  81.9755006  46.2665017
  50.5699987  82.5895006  45.2975017  50.2299987  81.2675006  47.0835017
  50.6509987  80.7675006  47.8535017  48.7819987  81.1695006  46.9025017
  48.3699987  82.0285006  46.3725017  48.3969987  79.8885006  46.1385017
  48.8059987  79.0285006  46.6695017  46.8819987  79.7475006  46.0345017
  46.4719987  80.6065006  45.5035017  46.6379987  78.8345006  45.4905017
  46.4509987  79.6995006  47.0345017  49.0459987  79.8695006  44.7575017
  50.1299987  79.9035006  44.8645017  48.7609987  78.9565006  44.2345017
  48.7109987  80.7345006  44.1855017  48.0799987  81.1595006  48.2505017
  48.5469987  80.5255006  49.1925017  46.9609987  81.8665006  48.3375017
  46.6869987  82.4675006  47.5735017  46.1309987  81.8495006  49.5365017
  46.5359987  81.1265006  50.2445017  46.0899987  83.2265006  50.2115017
  45.8559987  84.0095006  49.4905017  45.3309987  83.2145006  50.9935017
  47.3809987  83.6215006  50.8715017  48.2499987  82.7055006  51.4295017
  49.2869987  83.3395006  51.9465017  50.0909987  82.7875006  52.4335017
  49.1219987  84.6355006  51.7485017  49.7579987  85.3655006  52.0365017
  47.9369987  84.8395006  51.0825017  47.6209987  85.8515006  50.8305017
  44.7329987  81.3915006  49.1725017  44.1959987  81.7585006  48.1305017
  44.1499987  80.5765006  50.0355017  44.6239987  80.3145006  50.8875017
  42.8549987  79.9925006  49.7645017  42.6259987  80.0425006  48.6995017
  42.8769987  78.5355006  50.1885017  43.0259987  78.4905006  51.2675017
  41.9589987  78.0095006  49.9265017  43.9979987  77.7695006  49.5715017
  43.9259987  77.2435006  48.3005017  45.0649987  76.6375006  48.0145017
  45.2039987  76.1455006  47.0515017  45.8769987  76.7635006  49.0485017
  46.8169987  76.3995006  49.1155017  45.2359987  77.4775006  50.0325017
  45.7499987  77.6985006  50.9675017  41.7839987  80.7815006  50.4935017
  41.5179987  80.5425006  51.6665017  41.1809987  81.7335006  49.7895017
  41.4069987  81.8455006  48.8115017  40.1969987  82.6305006  50.3775017
  40.3639987  82.6555006  51.4545017  40.3569987  83.6255006  49.9625017
  38.7659987  82.2085006  50.1105017  38.4839987  81.4775006  49.1625017
  37.8619987  82.6935006  50.9555017  38.1809987  83.2255006  51.7525017
  36.4339987  82.4085006  50.8395017  35.9149987  82.7925006  51.7175017
  35.8369987  83.0645006  49.5935017  36.3109987  82.6565006  48.7015017
  34.7699987  82.8415006  49.5715017  36.0169987  84.5675006  49.5925017
  35.1249987  85.3065006  50.0045017  37.1819987  85.0285006  49.1475017
  37.3529987  86.0235006  49.1265017  37.8909987  84.3815006  48.8325017
  36.1439987  80.9215006  50.8535017  35.3549987  80.4245006  50.0535017
  36.7959987  80.2185006  51.7755017  37.5599987  80.6375006  52.2865017
  36.4509987  78.8385006  52.0625017  36.2409987  78.2855006  51.1465017
  37.5749987  78.1165006  52.8255017  37.8059987  78.6795006  53.7295017
  37.1469987  76.7025006  53.2025017  36.9159987  76.1385006  52.2985017
  37.9559987  76.2085006  53.7415017  36.2619987  76.7475006  53.8375017
  38.8389987  78.0845006  51.9885017  39.1549987  79.1045006  51.7685017
  39.6269987  77.5715006  52.5395017  38.6439987  77.5555006  51.0555017
  35.1739987  78.8705006  52.8965017  35.2209987  79.0325006  54.1195017
  34.0309987  78.7485006  52.2245017  34.0469987  78.6555006  51.2185017
  32.7339987  78.8275006  52.8925017  32.6699987  79.7525006  53.4665017
  31.5969987  78.8095006  51.8625017  31.7259987  79.6365006  51.1645017
  31.6159987  77.8665006  51.3155017  30.2589987  78.9535006  52.5795017
  30.1299987  78.1265006  53.2775017  30.2389987  79.8965006  53.1265017
  29.1289987  78.9355006  51.5555017  29.2579987  79.7615006  50.8565017
  29.1479987  77.9925006  51.0095017  27.8129987  79.0745006  52.2155017
  27.7849987  79.1625006  53.2215017  26.6639987  79.0875006  51.5455017
  26.6189987  78.9765006  50.2215017  27.4759987  78.8785006  49.6965017
  25.7279987  78.9905006  49.7465017  25.5379987  79.2175006  52.2405017
  25.5759987  79.3025006  53.2465017  24.6499987  79.2305006  51.7595017
  32.5549987  77.7015006  53.9205017  32.0469987  77.9395006  55.0155017
  32.9959987  76.4915006  53.5775017  33.4549987  76.3635006  52.6865017
  32.7799987  75.3145006  54.4225017  31.9579987  75.4965006  55.1155017
  32.4279987  74.1065006  53.5535017  33.1389987  74.0685006  52.7285017
  32.5339987  73.2105006  54.1655017  31.0149987  74.1765006  53.0005017
  30.3369987  74.0195006  53.8395017  30.8589987  75.1735006  52.5885017
  30.7419987  73.1425006  51.9325017  31.5169987  73.0765006  50.9555017
  29.7439987  72.4045006  52.0605017  33.9909987  75.0095006  55.2905017
  34.6869987  74.0245006  55.0815017  34.2229987  75.8545006  56.2845017
  33.5869987  76.6195006  56.4585017  35.4149987  75.7435006  57.1185017
  36.2899987  75.5835006  56.4885017  35.6209987  77.0295006  57.9255017
  36.4549987  76.8865006  58.6135017  35.9209987  78.1915006  57.0035017
  35.0869987  78.3355006  56.3155017  36.0639987  79.0965006  57.5935017
  36.8269987  77.9805006  56.4355017  34.4289987  77.3185006  58.6615017
  34.5539987  78.1235006  59.1685017  35.3979987  74.5615006  58.0945017
  36.4489987  74.1555006  58.5795017  34.2219987  74.0095006  58.3875017
  33.3729987  74.4035006  58.0085017  34.1119987  72.8505006  59.2895017
  34.4489987  73.1345006  60.2865017  32.6619987  72.3525006  59.3855017
  32.6389987  71.6205006  60.1925017  32.0129987  73.1905006  59.6375017
  32.1779987  71.7065006  58.1055017  32.4669987  70.3765006  57.8275017
  33.0319987  69.7985006  58.5585017  32.0509987  69.7835006  56.6475017
  32.2799987  68.7375006  56.4455017  31.3349987  70.5255006  55.7245017
  30.9309987  69.9325006  54.5555017  31.1989987  69.0125006  54.4895017
  31.0339987  71.8505006  55.9705017  30.4689987  72.4365006  55.2455017
  31.4579987  72.4345006  57.1525017  31.2319987  73.4815006  57.3545017
  34.9989987  71.6875006  58.8385017  35.4459987  70.9025006  59.6685017
  35.2359987  71.5745006  57.5275017  34.8279987  72.2485006  56.8955017
  36.0289987  70.4745006  56.9575017  35.5339987  69.5275006  57.1705017
  36.1819987  70.6155006  55.4445017  36.8019987  71.4925006  55.2595017
  36.6959987  69.7245006  55.0835017  34.8609987  70.7675006  54.7135017
  34.0829987  70.2785006  55.3005017  34.6349987  71.8305006  54.6255017
  34.9159987  70.1495006  53.3375017  35.8939987  70.3705006  52.9095017
  34.8039987  69.0715006  53.4495017  33.8859987  70.6345006  52.4255017
  33.2459987  71.3365006  52.7685017  33.7489987  70.2085006  51.1725017
  34.5649987  69.2755006  50.6775017  35.2949987  68.8875006  51.2585017
  34.4489987  68.9615006  49.7245017  32.7909987  70.7085006  50.4055017
  32.1679987  71.4115006  50.7755017  32.6889987  70.3835006  49.4545017
  37.4059987  70.3885006  57.5865017  37.9479987  69.2965006  57.7475017
  37.9569987  71.5425006  57.9455017  37.5269987  72.4085006  57.6525017
  39.2109987  71.6095006  58.6835017  39.9979987  71.0955006  58.1325017
  39.6239987  73.0735006  58.8775017  38.8089987  73.5635006  59.4095017
  40.5189987  73.0795006  59.5005017  39.9039987  73.8185006  57.5805017
  40.9179987  73.4075006  56.7225017  41.5159987  72.5385006  56.9955017
  41.1739987  74.0805006  55.5395017  41.9669987  73.7365006  54.8745017
  40.4229987  75.1925006  55.2035017  40.6839987  75.8685006  54.0295017
  41.4039987  75.4815006  53.5265017  39.4139987  75.6225006  56.0395017
  38.8179987  76.4965006  55.7785017  39.1599987  74.9375006  57.2155017
  38.3629987  75.2715006  57.8795017  39.1209987  70.8775006  60.0375017
  40.0959987  70.2575006  60.4865017  37.9459987  70.9425006  60.6705017
  37.2209987  71.5465006  60.3115017  37.6869987  70.2095006  61.9145017
  38.5899987  70.2135006  62.5255017  36.5469987  70.8385006  62.7225017
  35.6809987  70.6095006  62.1005017  36.4809987  70.2805006  63.6565017
  36.5749987  72.3475006  63.0275017  36.1459987  72.8945006  62.1875017
  35.7629987  72.6335006  64.2875017  36.1909987  72.0875006  65.1285017
  35.7849987  73.7025006  64.4995017  34.7319987  72.3155006  64.1355017
  37.9859987  72.9105006  63.1795017  38.5419987  72.7535006  62.2555017
  37.9309987  73.9775006  63.3935017  38.4939987  72.4025006  63.9985017
  37.3649987  68.7445006  61.6495017  37.6459987  67.8995006  62.4855017
  36.7779987  68.4415006  60.4945017  36.4919987  69.1755006  59.8625017
  36.4739987  67.0555006  60.1325017  35.8689987  66.6135006  60.9245017
  35.7019987  66.9495006  58.8065017  36.3819987  67.1585006  57.9815017
  35.1229987  65.5605006  58.6435017  34.4419987  65.3515006  59.4685017
  34.5799987  65.5015006  57.7005017  35.9299987  64.8275006  58.6445017
  34.6319987  67.8945006  58.7905017  34.1539987  67.8235006  57.9605017
  37.7319987  66.1955006  60.0335017  37.7599987  65.0965006  60.5865017
  38.7589987  66.6645006  59.3265017  38.6259987  67.3615006  58.6085017
  40.0729987  65.9935006  59.4165017  39.9629987  65.1245006  60.0655017
  40.6389987  65.5245006  58.0505017  41.5119987  64.9135006  58.2805017
  39.8849987  64.9095006  57.5595017  41.0409987  66.6495006  57.1365017
  40.3609987  67.6925006  57.1385017  42.0319987  66.4645006  56.3935017
  41.0529987  66.8225006  60.2535017  42.0289987  67.3965006  59.7655017
  40.7499987  66.8395006  61.5445017  39.9079987  66.3695006  61.8455017
  41.5189987  67.5725006  62.5315017  41.5919987  68.6365006  62.3085017
  40.9059987  67.3815006  63.9425017  39.8299987  67.5465006  63.8815017
  41.1749987  65.9785006  64.4695017  42.2509987  65.8125006  64.5305017
  40.7339987  65.8715006  65.4605017  40.7329987  65.2455006  63.7945017
  41.4109987  68.4575006  64.9155017  41.2349987  68.0915006  65.9265017
  42.4829987  68.5685006  64.7515017  40.7309987  69.8025006  64.7395017
  39.6589987  69.6925006  64.9035017  41.1379987  70.5125006  65.4595017
  40.9069987  70.1695006  63.7285017  43.0079987  67.1955006  62.5425017
  43.8629987  68.0575006  62.7465017  43.3269987  65.9215006  62.3215017
  42.6219987  65.2235006  62.1315017  44.7209987  65.4885006  62.4285017
  45.1009987  65.7645006  63.4115017  44.8759987  63.9805006  62.2515017
  44.1199987  63.4635006  62.8425017  44.7759987  63.6945006  61.2045017
  46.2079987  63.4645006  62.7125017  46.4799987  63.3345006  64.0715017
  45.7099987  63.6075006  64.7925017  47.7079987  62.8665006  64.5125017
  47.9049987  62.7635006  65.5795017  48.6879987  62.5285006  63.5905017
  49.6559987  62.1615006  63.9325017  48.4349987  62.6585006  62.2295017
  49.2019987  62.3935006  61.5015017  47.1999987  63.1275006  61.7975017
  46.9999987  63.2345006  60.7315017  45.5979987  66.2195006  61.4245017
  46.6909987  66.6655006  61.7615017  45.1049987  66.3615006  60.1985017
  44.2589987  65.8815006  59.9275017  45.8369987  67.0965006  59.1805017
  46.8409987  66.6755006  59.1215017  45.1739987  66.9955006  57.7825017
  44.2439987  67.5645006  57.7915017  46.0909987  67.5455006  56.7145017
  47.0209987  66.9765006  56.7045017  45.6059987  67.4645006  55.7415017
  46.3089987  68.5925006  56.9255017  44.9069987  65.6255006  57.4565017
  44.4969987  65.5765006  56.5895017  46.0429987  68.5595006  59.6295017
  47.1709987  69.0425006  59.5725017  44.9989987  69.2535006  60.1055017
  44.0779987  68.8425006  60.1615017  45.1769987  70.6445006  60.5815017
  45.5309987  71.2575006  59.7525017  43.9049987  71.2945006  61.1685017
  44.2069987  72.1945006  61.7045017  42.9059987  71.6515006  60.1225017
  42.6039987  70.7525006  59.5865017  42.0329987  72.1045006  60.5925017
  43.3489987  72.3595006  59.4225017  43.2999987  70.4035006  62.1015017
  42.5099987  70.8095006  62.4655017  46.2089987  70.7335006  61.6965017
  47.0059987  71.6675006  61.7245017  46.1769987  69.7815006  62.6245017
  45.4869987  69.0455006  62.5755017  47.0849987  69.8025006  63.7655017
  46.9789987  70.7465006  64.3005017  46.7769987  68.6615006  64.7265017
  46.2089987  67.9485006  64.1295017  47.6989987  68.1935006  65.0715017
  45.9459987  69.0925006  65.9275017  45.2479987  69.8665006  65.6095017
  45.1689987  67.9155006  66.5085017  45.8659987  67.1405006  66.8275017
  44.5849987  68.2525006  67.3645017  44.4999987  67.5105006  65.7495017
  46.8579987  69.7385006  66.9675017  47.3469987  70.6095006  66.5315017
  46.2659987  70.0485006  67.8285017  47.6129987  69.0195006  67.2855017
  48.5419987  69.7295006  63.3415017  49.3299987  70.6055006  63.6775017
  48.8919987  68.6835006  62.6035017  48.2169987  67.9595006  62.4015017
  50.2739987  68.4935006  62.1475017  50.9909987  68.6475006  62.9535017
  50.4899987  67.0885006  61.5595017  51.4999987  67.0175006  61.1565017
  50.3039987  66.0455006  62.6425017  49.2939987  66.1155006  63.0455017
  50.4579987  65.0525006  62.2215017  51.0259987  66.2175006  63.4405017
  49.5549987  66.8245006  60.3865017  49.7389987  67.5585006  59.6025017
  49.7349987  65.8225006  59.9955017  48.5209987  66.9025006  60.7205017
  50.7399987  69.5495006  61.1365017  51.9459987  69.7735006  60.9735017
  49.7819987  70.1865006  60.4615017  48.8249987  69.8785006  60.5575017
  50.0679987  71.2865006  59.5355017  50.9789987  71.0675006  58.9775017
  48.9129987  71.4765006  58.5365017  47.9779987  71.3425006  59.0805017
  48.9719987  72.4985006  58.1615017  48.9639987  70.4955006  57.3585017
  49.6479987  69.4465006  57.4345017  48.2989987  70.7865006  56.3415017
  50.3319987  72.6145006  60.2495017  50.8209987  73.5525006  59.6255017
  50.0119987  72.6975006  61.5425017  49.5679987  71.9115006  61.9955017
  50.2179987  73.9295006  62.3235017  49.7929987  74.7785006  61.7885017
  49.5379987  73.8245006  63.6955017  49.6659987  72.7775006  63.9705017
  50.0919987  74.4535006  64.3925017  48.0579987  74.1865006  63.7505017
  47.5759987  73.7895006  62.8565017  47.3789987  73.6175006  64.9875017
  47.8599987  74.0145006  65.8815017  46.3259987  73.8995006  64.9865017
  47.4639987  72.5305006  64.9815017  47.9149987  75.6965006  63.7115017
  48.3519987  76.0795006  62.7895017  46.8589987  75.9635006  63.7505017
  48.4309987  76.1335006  64.5665017  51.6909987  74.3165006  62.5345017
  52.6079987  73.5155006  62.3535017  51.9009987  75.5615006  62.9385017
  51.1379987  76.2215006  62.9875017  53.2329987  76.0185006  63.3065017
  53.9489987  75.6845006  62.5555017  53.2959987  77.5485006  63.3985017
  52.9129987  77.8195006  64.3825017  54.3479987  77.8235006  63.3295017
  52.5059987  78.2895006  62.3245017  52.8289987  77.9225006  61.3505017
  51.4479987  78.0655006  62.4645017  52.7189987  79.7925006  62.3945017
  51.9309987  80.2745006  61.8165017  52.6429987  80.0985006  63.4375017
  54.0739987  80.2035006  61.8445017  54.8359987  79.9615006  62.5855017
  54.2629987  79.6375006  60.9325017  54.1209987  81.6615006  61.5425017
  53.9469987  82.1865006  62.3875017  55.0329987  81.9005006  61.1795017
  53.4159987  81.8855006  60.8555017  53.5509987  75.3885006  64.6545017
  52.6419987  75.0955006  65.4305017  54.8339987  75.1795006  64.9295017
  55.5329987  75.4265006  64.2445017  55.2709987  74.4935006  66.1565017
  54.8209987  73.5015006  66.1985017  56.8029987  74.3405006  66.1915017
  57.2599987  75.1475006  65.6185017  57.1949987  74.3505006  67.2085017
  57.2599987  73.0655006  65.5705017  57.8259987  72.9015006  64.3405017
  57.9809987  73.8005006  63.7435017  58.0879987  71.5715006  64.1165017
  58.5039987  71.1855006  63.2805017  57.6879987  70.8515006  65.2115017
  57.7459987  69.4795006  65.4585017  58.1719987  68.8285006  64.6945017
  57.2599987  69.0365006  66.6545017  57.2899987  67.9725006  66.8865017
  56.7189987  69.9235006  67.5975017  56.3319987  69.5565006  68.5475017
  56.6599987  71.2775006  67.3555017  56.2259987  71.9215006  68.1205017
  57.1549987  71.7635006  66.1435017  54.7779987  75.1495006  67.4425017
  54.3169987  74.4685006  68.3585017  54.8719987  76.4685006  67.5075017
  55.3489987  76.9915006  66.7865017  54.3509987  77.1925006  68.6515017
  54.9519987  76.9655006  69.5315017  54.3909987  78.7085006  68.4065017
  54.1329987  79.1815006  69.3535017  55.4209987  78.9525006  68.1475017
  53.4569987  79.2185006  67.3125017  53.7679987  78.7795006  66.3645017
  52.4439987  78.8935006  67.5475017  53.4899987  80.7365006  67.2035017
  52.5839987  81.0675006  66.6955017  53.5159987  81.1555006  68.2095017
  54.6479987  81.2285006  66.4615017  55.2979987  80.5365006  66.1175017
  54.8959987  82.5125006  66.2115017  54.0709987  83.4675006  66.6405017
  53.2439987  83.2185006  67.1635017  54.2769987  84.4355006  66.4405017
  55.9829987  82.8465006  65.5265017  56.6119987  82.1265006  65.2005017
  56.1759987  83.8195006  65.3345017  52.9259987  76.7405006  68.9775017
  52.5679987  76.6045006  70.1425017  52.1249987  76.4915006  67.9465017
  52.4589987  76.6185006  67.0015017  50.7239987  76.1515006  68.1425017
  50.3249987  76.6795006  69.0085017  49.9269987  76.5575006  66.9185017
  50.3579987  76.1285006  66.0135017  48.8929987  76.2285006  67.0195017
  49.8869987  78.0405006  66.7125017  49.2899987  78.8665006  67.6595017
  48.8509987  78.4175006  68.5505017  49.2479987  80.2345006  67.4835017
  48.7749987  80.8705006  68.2325017  49.8079987  80.7975006  66.3545017
  49.7779987  81.8775006  66.2115017  50.4079987  79.9895006  65.4025017
  50.8469987  80.4335006  64.5085017  50.4499987  78.6175006  65.5865017
  50.9289987  77.9825006  64.8415017  50.4839987  74.6875006  68.5005017
  49.5409987  74.3825006  69.2355017  51.3209987  73.7855006  67.9935017
  51.9659987  74.0345006  67.2575017  51.3169987  72.4045006  68.4735017
  50.3109987  71.9965006  68.3755017  52.2789987  71.5225006  67.6855017
  53.1549987  72.1125006  67.4165017  52.5849987  70.6825006  68.3095017
  51.6559987  70.9825006  66.4225017  51.3479987  71.7375006  65.5065017
  51.4619987  69.6715006  66.3665017  51.0479987  69.2605006  65.5425017
  51.7289987  69.0905006  67.1485017  51.7109987  72.3675006  69.9305017
  50.9969987  71.8155006  70.7555017  52.8459987  72.9795006  70.2495017
  53.4179987  73.4035006  69.5325017  53.3399987  72.9855006  71.6215017
  53.4249987  71.9625006  71.9865017  54.7159987  73.6455006  71.6945017
  54.5559987  74.6225006  71.2385017  55.0159987  73.7745006  72.7345017
  55.8179987  72.9015006  70.9335017  55.4539987  72.6595006  69.9345017
  57.0719987  73.7605006  70.8225017  57.4359987  74.0035006  71.8205017
  57.8409987  73.2125006  70.2785017  56.8359987  74.6815006  70.2885017
  56.1219987  71.5565006  71.5875017  55.2219987  70.9415006  71.5895017
  56.9079987  71.0485006  71.0275017  56.4539987  71.7175006  72.6135017
  52.3659987  73.6695006  72.5755017  52.3079987  73.3225006  73.7535017
  51.5979987  74.6295006  72.0665017  51.7079987  74.9075006  71.1015017
  50.5939987  75.3145006  72.8735017  51.0369987  75.6195006  73.8215017
  50.0649987  76.5585006  72.1585017  50.9239987  76.9905006  71.6455017
  49.3089987  76.2755006  71.4255017  49.4799987  77.5845006  73.1215017
  49.1209987  77.0965006  74.0275017  50.5899987  78.5595006  73.4765017
  50.9489987  79.0485006  72.5705017  50.2069987  79.3115006  74.1665017
  51.4119987  78.0195006  73.9475017  48.2749987  78.3055006  72.5345017
  47.4959987  77.5805006  72.2995017  47.8939987  79.0265006  73.2585017
  48.5709987  78.8275006  71.6245017  49.4379987  74.3705006  73.1505017
  49.1009987  74.0975006  74.3015017  48.8389987  73.8775006  72.0775017
  49.0939987  74.2235006  71.1635017  47.7619987  72.9115006  72.1715017
  46.9129987  73.3235006  72.7165017  47.3059987  72.4785006  70.7575017
  48.1919987  72.2645006  70.1605017  46.4169987  71.2415006  70.8085017
  45.5299987  71.4555006  71.4055017  46.1169987  70.9675006  69.7975017
  46.9679987  70.4165006  71.2595017  46.5639987  73.6385006  70.0785017
  45.5629987  73.6735006  70.5085017  47.0999987  74.5535006  70.3325017
  46.4619987  73.5155006  68.5745017  45.9259987  72.6015006  68.3195017
  45.9239987  74.3755006  68.1745017  47.4629987  73.4815006  68.1435017
  48.2109987  71.7175006  73.0255017  47.4909987  71.2735006  73.9185017
  49.4189987  71.2265006  72.7775017  49.9809987  71.5985006  72.0255017
  49.9429987  70.1015006  73.5395017  49.3209987  69.2245006  73.3615017
  51.3829987  69.7705006  73.1335017  51.4849987  69.8405006  72.0505017
  52.0789987  70.4615006  73.6085017  51.8219987  68.3855006  73.5185017
  52.2799987  68.1205006  74.8015017  52.3129987  68.9305006  75.5305017
  52.6929987  66.8445006  75.1615017  53.0479987  66.6505006  76.1735017
  52.6529987  65.8185006  74.2335017  52.9769987  64.8145006  74.5085017
  52.1989987  66.0725006  72.9505017  52.1669987  65.2665006  72.2175017
  51.7859987  67.3485006  72.5975017  51.4279987  67.5455006  71.5865017
  49.8649987  70.4105006  75.0285017  49.3139987  69.6235006  75.7925017
  50.3829987  71.5635006  75.4395017  50.8529987  72.1795006  74.7915017
  50.3199987  71.9555006  76.8485017  50.7749987  71.2025006  77.4915017
  51.0099987  73.3065006  77.1085017  50.6499987  74.0345006  76.3815017
  50.7009987  73.8005006  78.5185017  51.0609987  73.0735006  79.2455017
  51.1969987  74.7565006  78.6855017  49.6239987  73.9255006  78.6325017
  52.5139987  73.1995006  76.8935017  52.7139987  72.8965006  75.8655017
  52.9779987  74.1675006  77.0835017  52.9269987  72.4585006  77.5775017
  48.8809987  72.0535006  77.3435017  48.5699987  71.6045006  78.4455017
  48.0149987  72.6425006  76.5235017  48.3279987  72.9795006  75.6245017
  46.6259987  72.8805006  76.9075017  46.5929987  73.3435006  77.8935017
  45.9369987  73.8105006  75.9085017  46.0979987  73.3955006  74.9135017
  44.8709987  73.8015006  76.1375017  46.4519987  75.2405006  75.9495017
  46.9859987  75.3855006  76.8885017  47.1399987  75.3805006  75.1155017
  45.1239987  76.4515006  75.8305017  44.2769987  76.2005006  77.3945017
  44.9659987  76.3935006  78.2165017  43.4299987  76.8825006  77.4635017
  43.9199987  75.1725006  77.4545017  45.8189987  71.6005006  77.0395017
  45.1009987  71.4155006  78.0205017  45.9359987  70.7225006  76.0485017
  46.5349987  70.9225006  75.2605017  45.1689987  69.4775006  76.0375017
  44.0979987  69.6815006  76.0265017  45.5169987  68.6045006  74.8135017
  46.5999987  68.4965006  74.7545017  44.8779987  67.2325006  74.9305017
  43.7949987  67.3395006  74.9885017  45.1369987  66.6345006  74.0565017
  45.2429987  66.7365006  75.8305017  45.0609987  69.2775006  73.5315017
  45.5579987  70.2425006  73.4305017  45.3149987  68.6475006  72.6795017
  43.9819987  69.4275006  73.5635017  45.4209987  68.6995006  77.3235017
  44.4919987  68.1525006  77.9225017  46.6839987  68.6705006  77.7425017
  47.4079987  69.0615006  77.1575017  47.0789987  67.9865006  78.9655017
  46.5829987  67.0175006  79.0225017  48.5979987  67.7625006  78.9925017
  49.0619987  68.6575006  78.5795017  48.8979987  67.6455006  80.0335017
  49.0439987  66.5505006  78.1995017  49.4199987  66.6635006  76.8665017
  49.3939987  67.6475006  76.3995017  49.8219987  65.5565006  76.1315017
  50.1199987  65.6635006  75.0885017  49.8539987  64.3205006  76.7325017
  50.2459987  63.2225006  76.0115017  50.4739987  63.4325006  75.1025017
  49.4819987  64.1765006  78.0555017  49.5019987  63.1945006  78.5285017
  49.0819987  65.2885006  78.7815017  48.7909987  65.1815006  79.8265017
  46.5959987  68.7055006  80.2385017  46.0529987  68.0615006  81.1305017
  46.7689987  70.0235006  80.3255017  47.2279987  70.5345006  79.5855017
  46.3649987  70.7605006  81.5365017  46.7579987  70.2425006  82.4115017
  46.8869987  72.2075006  81.5455017  46.3439987  72.7715006  82.3035017
  48.3689987  72.2455006  81.8545017  48.9129987  71.6815006  81.0965017
  48.7139987  73.2795006  81.8555017  48.5479987  71.8025006  82.8345017
  46.6659987  72.7945006  80.2635017  46.9909987  73.6975006  80.2655017
  44.8509987  70.7965006  81.7585017  44.3999987  70.7545006  82.9035017
  44.0659987  70.8775006  80.6835017  44.4579987  71.0175006  79.7635017
  42.6009987  70.8625006  80.8225017  42.2699987  71.4515006  81.6785017
  41.8389987  71.3455006  79.5655017  40.7669987  71.2905006  79.7555017
  42.2229987  72.7815006  79.2345017  43.2949987  72.8365006  79.0435017
  41.6789987  73.1085006  78.3485017  41.9699987  73.4285006  80.0745017
  42.0589987  70.4125006  78.3805017  41.7049987  69.4135006  78.6335017
  41.5079987  70.7845006  77.5165017  43.1219987  70.3715006  78.1425017
  42.0579987  69.4945006  81.2165017  41.0929987  69.4235006  81.9625017
  42.6499987  68.4115006  80.7225017  43.3869987  68.4675006  80.0345017
  42.1899987  67.0925006  81.1365017  41.1079987  67.0395006  81.0175017
  42.8309987  65.9295006  80.3465017  42.6359987  64.9955006  80.8735017
  42.2539987  65.8495006  78.9495017  42.4489987  66.7835006  78.4215017
  42.7189987  65.0245006  78.4105017  41.1779987  65.6835006  79.0095017
  44.2479987  66.1085006  80.2675017  44.6349987  65.3815006  79.7755017
  42.4729987  66.9215006  82.6195017  41.5769987  66.5915006  83.3905017
  43.7129987  67.1745006  83.0185017  44.4259987  67.4055006  82.3415017
  44.1039987  67.0425006  84.4165017  43.9059987  66.0265006  84.7565017
  45.5989987  67.3385006  84.5975017  45.8289987  68.2935006  84.1245017
  45.8649987  67.3835006  85.6535017  46.4989987  66.3255006  83.9735017
  46.2839987  64.9805006  83.8845017  45.3519987  64.6035006  84.3045017
  47.3429987  64.3705006  83.2535017  47.4219987  63.3825006  83.0615017
  48.2719987  65.3185006  82.9295017  49.4999987  65.1815006  82.2895017
  49.8159987  64.1855006  81.9785017  50.2369987  66.3125006  82.0905017
  51.2029987  66.2465006  81.5905017  49.7769987  67.5655006  82.5165017
  50.3749987  68.4625006  82.3545017  48.5469987  67.7055006  83.1575017
  48.2289987  68.7025006  83.4635017  47.7759987  66.5635006  83.3715017
  43.2629987  67.9375006  85.3385017  42.9589987  67.5395006  86.4635017
  42.8969987  69.1335006  84.8755017  43.2419987  69.4675006  83.9875017
  41.9859987  69.9915006  85.6325017  42.3409987  70.0725006  86.6605017
  41.9019987  71.3945006  85.0335017  41.9179987  71.1955006  83.9625017
  40.9229987  71.7825006  85.3155017  42.9749987  72.4245006  85.3755017
  43.9609987  72.0175006  85.1495017  42.7419987  73.6785006  84.5465017
  41.7569987  74.0865006  84.7725017  43.5049987  74.4195006  84.7855017
  42.7969987  73.4295006  83.4865017  42.9769987  72.7605006  86.8615017
  43.1719987  71.8565006  87.4385017  43.7539987  73.4965006  87.0665017
  42.0059987  73.1685006  87.1435017  40.5969987  69.3915006  85.6215017
  39.9719987  69.2275006  86.6695017  40.1189987  69.0685006  84.4235017
  40.6709987  69.2415006  83.5955017  38.7749987  68.5375006  84.2575017
  38.0529987  69.2835006  84.5905017  38.4759987  68.1855006  82.7965017
  38.4079987  69.1165006  82.2345017  39.2349987  67.5455006  82.3475017
  37.1659987  67.4835006  82.6225017  35.9739987  68.1705006  82.8425017
  36.0099987  69.2265006  83.1095017  34.7569987  67.5295006  82.7255017
  33.8279987  68.0745006  82.8935017  34.7199987  66.1835006  82.3915017
  33.7599987  65.6775006  82.2915017  35.9019987  65.4805006  82.1845017
  35.8709987  64.4215006  81.9265017  37.1179987  66.1275006  82.3065017
  38.0459987  65.5765006  82.1555017  38.5259987  67.3155006  85.1415017
  37.4679987  67.1935006  85.7535017  39.4899987  66.4055006  85.1975017
  40.3059987  66.4745006  84.6055017  39.3619987  65.2395006  86.0655017
  38.3469987  64.8475006  86.0015017  40.3389987  64.1355006  85.6535017
  41.2819987  64.5715006  85.3235017  40.5239987  63.4645006  86.4925017
  39.8399987  63.2825006  84.5215017  38.9139987  62.2805006  84.7545017
  38.5499987  62.1185006  85.7695017  38.4499987  61.4885006  83.7185017
  37.7229987  60.7005006  83.9155017  38.9109987  61.6985006  82.4305017
  38.5449987  61.0795006  81.6115017  39.8359987  62.6935006  82.1845017
  40.2049987  62.8605006  81.1725017  40.2939987  63.4795006  83.2255017
  41.0219987  64.2675006  83.0335017  39.5769987  65.6355006  87.5185017
  38.9019987  65.1345006  88.4065017  40.5149987  66.5445006  87.7475017
  41.0459987  66.9195006  86.9745017  40.8119987  67.0275006  89.0845017
  41.2259987  66.2015006  89.6625017  41.5539987  67.8215006  89.0045017
  39.5919987  67.5645006  89.7985017  39.4459987  67.3705006  91.0075017
  38.7149987  68.2425006  89.0595017  38.9239987  68.4795006  88.1005017
  37.4809987  68.7575006  89.6465017  37.6969987  69.1595006  90.6365017
  36.8599987  69.8735006  88.7865017  35.9839987  70.2305006  89.3285017
  37.6019987  70.6705006  88.7305017  36.4519987  69.4605006  87.3795017
  37.3189987  69.6135006  86.7375017  36.2099987  68.3985006  87.4155017
  35.0419987  70.3685006  86.7015017  33.6909987  69.7395006  87.6995017
  33.8799987  69.9615006  88.7495017  32.7589987  70.2135006  87.3905017
  33.6109987  68.6605006  87.5655017  36.4939987  67.6115006  89.8945017
  35.7859987  67.6115006  90.8975017  36.4769987  66.6205006  89.0015017
  37.0599987  66.6675006  88.1785017  35.5939987  65.4615006  89.1625017
  34.5849987  65.7895006  89.4125017  35.5479987  64.5675006  87.9025017
  36.5529987  64.2015006  87.6925017  34.6109987  63.3835006  88.1165017
  33.6059987  63.7485006  88.3265017  34.5929987  62.7665006  87.2175017
  34.9639987  62.7875006  88.9585017  35.1169987  65.3695006  86.6635017
  35.6929987  66.2945006  86.6755017  35.4009987  64.7765006  85.7945017
  33.6399987  65.6965006  86.5895017  33.3549987  66.2905006  87.4575017
  33.4379987  66.2625006  85.6805017  33.0629987  64.7715006  86.5765017
  36.0559987  64.6245006  90.3515017  35.2329987  64.0585006  91.0555017
  37.3709987  64.5425006  90.5595017  38.0039987  64.9095006  89.8635017
  37.9439987  63.9005006  91.7565017  37.5099987  62.9075006  91.8725017
  39.4709987  63.7605006  91.6505017  39.9009987  64.6725006  91.2355017
  39.8999987  63.5715006  92.6345017  39.9159987  62.6365006  90.7665017
  40.5689987  62.7365006  89.5725017  40.7979987  63.7425006  89.2215017
  40.8039987  61.4895006  89.0545017  41.2689987  61.2915006  88.1805017
  40.3029987  60.5545006  89.9165017  40.3009987  59.1685006  89.8245017
  40.7579987  58.7025006  88.9515017  39.7189987  58.4725006  90.8455017
  39.6969987  57.3835006  90.8105017  39.1429987  59.1315006  91.9485017
  38.6799987  58.5665006  92.7575017  39.1459987  60.5085006  92.0395017
  38.6809987  60.9735006  92.9085017  39.7369987  61.2425006  91.0085017
  37.6089987  64.6905006  93.0165017  37.3519987  64.1115006  94.0715017
  37.6309987  66.0135006  92.8995017  37.9489987  66.4395006  92.0405017
  37.2359987  66.8845006  93.9965017  37.7699987  66.6025006  94.9045017
  37.5689987  68.3415006  93.6665017  38.6249987  68.4325006  93.4135017
  36.9639987  68.6975006  92.8325017  37.3199987  69.2755006  94.8025017
  38.1669987  69.5515006  95.8285017  39.1299987  69.0405006  95.8215017
  37.5959987  70.4535006  96.6835017  38.0229987  70.8215006  97.5215017
  36.3469987  70.7745006  96.2205017  35.3799987  71.6405006  96.7475017
  35.6059987  72.1695006  97.6735017  34.1999987  71.7685006  96.0585017
  33.4249987  72.4345006  96.4375017  33.9649987  71.0575006  94.8685017
  33.0259987  71.1655006  94.3255017  34.9239987  70.1955006  94.3495017
  34.6919987  69.6625006  93.4275017  36.1409987  70.0475006  95.0325017
  35.7449987  66.7505006  94.2755017  35.3029987  66.8095006  95.4275017
  34.9799987  66.5675006  93.2055017  35.4079987  66.4685006  92.2965017
  33.5319987  66.5655006  93.2875017  33.1939987  67.4125006  93.8845017
  32.9179987  66.6775006  91.8875017  33.6229987  67.2985006  91.3355017
  32.8909987  65.6805006  91.4485017  31.5319987  67.3005006  91.8175017
  30.8219987  66.6575006  92.3385017  31.5459987  68.6715006  92.4705017
  32.2549987  69.3155006  91.9505017  30.5499987  69.1105006  92.4165017
  31.8429987  68.5745006  93.5145017  31.0719987  67.3915006  90.3715017
  31.0369987  66.3925006  89.9375017  30.0789987  67.8385006  90.3335017
  31.7699987  68.0085006  89.8055017  33.0329987  65.3125006  93.9925017
  32.1479987  65.3945006  94.8435017  33.6089987  64.1605006  93.6455017
  34.2989987  64.1425006  92.9085017  33.2699987  62.9025006  94.3085017
  32.2049987  62.7155006  94.1705017  34.0799987  61.6935006  93.7765017
  35.1439987  61.8885006  93.9115017  33.6969987  60.4345006  94.5315017
  32.6329987  60.2385006  94.3965017  34.2729987  59.5915006  94.1495017
  33.9099987  60.5675006  95.5925017  33.8559987  61.4475006  92.2795017
  33.9479987  62.4135006  91.7825017  34.6559987  60.7885006  91.9435017
  32.5159987  60.8295006  91.9375017  31.7149987  61.4885006  92.2735017
  32.4439987  60.6915006  90.8585017  32.4229987  59.8635006  92.4345017
  33.5669987  63.0665006  95.7945017  32.7759987  62.6655006  96.6435017
  34.7129987  63.6715006  96.0965017  35.3429987  63.9505006  95.3585017
  35.1289987  63.8875006  97.4805017  35.0849987  62.9275006  97.9955017
  36.5619987  64.4025006  97.5315017  36.6199987  65.3675006  97.0275017
  36.8709987  64.5165006  98.5705017  37.2219987  63.6925006  97.0325017
  34.2019987  64.8455006  98.2155017  34.0579987  64.7465006  99.4255017
  33.5879987  65.7715006  97.4835017  33.7549987  65.8135006  96.4885017
  32.6979987  66.7645006  98.0785017  33.0969987  67.0915006  99.0385017
  32.5699987  67.9835006  97.1615017  33.5759987  68.3525006  96.9625017
  32.1209987  67.6335006  96.2315017  31.7259987  69.1035006  97.7395017
  32.0629987  69.6915006  98.9565017  32.9439987  69.3305006  99.4875017
  31.3029987  70.7155006  99.4925017  31.5779987  71.1675006 100.4455017
  30.1899987  71.1675006  98.8085017  29.4399987  72.1825006  99.3495017
  29.7809987  72.4925006 100.1915017  29.8319987  70.6045006  97.5965017
  28.9529987  70.9615006  97.0595017  30.5989987  69.5805006  97.0665017
  30.3259987  69.1345006  96.1105017  31.3149987  66.1915006  98.3435017
  30.7799987  66.3325006  99.4425017  30.7479987  65.5565006  97.3235017
  31.2559987  65.4755006  96.4545017  29.3949987  65.0045006  97.3895017
  28.6909987  65.7405006  97.7785017  28.9239987  64.5285006  95.9965017
  29.6859987  63.8735006  95.5745017  27.6029987  63.7745006  96.0935017
  26.8399987  64.4295006  96.5145017  27.2949987  63.4515006  95.0995017
  27.7279987  62.9025006  96.7365017  28.7939987  65.7295006  95.0475017
  27.8299987  66.1975006  95.2485017  29.5939987  66.4265006  95.2965017
  28.8819987  65.3645006  93.5815017  28.0819987  64.6675006  93.3315017
  28.7819987  66.2655006  92.9755017  29.8459987  64.8975006  93.3805017
  29.3389987  63.8455006  98.3785017  28.3289987  63.6445006  99.0515017
  30.4319987  63.0925006  98.4525017  31.1829987  63.2615006  97.7985017
  30.5789987  61.9965006  99.4065017  29.7229987  61.3245006  99.3475017
  31.8499987  61.2025006  99.0745017  31.7689987  60.9145006  98.0265017
  32.6849987  61.8915006  99.1975017  32.0849987  59.9685006  99.9205017
  32.2749987  60.2765006 100.9485017  31.1929987  59.3435006  99.8875017
  33.2709987  59.1825006  99.4025017  32.9889987  58.6615006  98.4875017
  34.0949987  59.8645006  99.1925017  33.7169987  58.1985006 100.3825017
  34.5179987  58.4445006 100.9465017  33.1429987  57.0135006 100.5765017
  32.0889987  56.6405006  99.8545017  31.7179987  57.2615006  99.1505017
  31.6649987  55.7375006 100.0145017  33.6259987  56.1915006 101.5025017
  34.4249987  56.4705006 102.0535017  33.1919987  55.2915006 101.6505017
  30.6339987  62.4915006 100.8555017  30.2219987  61.7785006 101.7655017
  31.1449987  63.7055006 101.0595017  31.4249987  64.2575006 100.2615017
  31.3199987  64.2785006 102.3965017  31.1519987  65.3535006 102.3245017
  30.5679987  63.8375006 103.0505017  32.6979987  64.0315006 102.9895017
  32.9079987  64.2585006 104.1795017  33.6379987  63.5635006 102.1625017
  33.3869987  63.3415006 101.2095017  35.0269987  63.3435006 102.5865017
  35.0459987  62.5975006 103.3815017  35.9009987  62.8465006 101.4275017
  35.7599987  63.5495006 100.6065017  36.9429987  62.8655006 101.7465017
  35.5389987  61.4465006 100.9625017  34.7849987  60.7405006 101.6585017
  36.0329987  61.0335006  99.8945017  35.6329987  64.6285006 103.1225017
  36.3769987  64.6185006 104.1075017  35.2989987  65.7325006 102.4635017
  34.6689987  65.6685006 101.6765017  35.8279987  67.0385006 102.8175017
  36.9149987  67.0295006 102.7425017  35.2809987  68.1105006 101.8725017
  34.2019987  68.1415006 102.0265017  35.7199987  69.0575006 102.1875017
  35.5769987  67.8805006 100.3905017  35.2949987  66.8515006 100.1655017
  34.9379987  68.5625006  99.8295017  37.2929987  68.1435006  99.9075017
  37.4609987  69.9045006 100.2145017  37.2669987  70.1105006 101.2675017
  38.4729987  70.2225006  99.9635017  36.7449987  70.4505006  99.5995017
  35.4499987  67.3755006 104.2495017  36.2869987  67.8195006 105.0235017
  34.1899987  67.1355006 104.6005017  33.5519987  66.7465006 103.9205017
  33.6589987  67.5185006 105.9145017  33.9179987  68.5545006 106.1305017
  32.1299987  67.3805006 105.9345017  31.8749987  66.3885006 105.5615017
  31.8009987  67.4745006 106.9695017  31.4359987  68.4365006 105.0835017
  31.5549987  68.4085006 103.8355017  30.7619987  69.2995006 105.6745017
  34.2869987  66.7485006 107.0845017  34.4569987  67.3055006 108.1705017
  34.6229987  65.4775006 106.8615017  34.3649987  65.0375006 105.9895017
  35.3199987  64.6715006 107.8675017  35.3559987  65.2175006 108.8095017
  34.6029987  63.3385006 108.1015017  34.8379987  62.6425006 107.2965017
  34.9139987  62.9105006 109.0545017  33.1159987  63.4505006 108.1485017
  32.3129987  63.0885006 107.0895017  31.0489987  63.2955006 107.4085017
  30.2529987  63.0725006 106.6975017  31.0029987  63.7755006 108.6375017
  30.1679987  64.0265006 109.1475017  32.2839987  63.8825006 109.1225017
  32.4559987  64.2635006 110.1295017  36.7679987  64.4085006 107.4515017
  37.0609987  63.4345006 106.7565017  37.6619987  65.3065006 107.8555017
  37.3379987  66.1905006 108.2215017  39.1059987  65.0875006 107.7465017
  39.3009987  64.1645006 107.2015017  39.8099987  66.2625006 107.0355017
  39.6549987  67.1715006 107.6165017  41.3049987  65.9935006 106.9035017
  41.4609987  65.0855006 106.3215017  41.7829987  66.8335006 106.3995017
  41.7409987  65.8695006 107.8945017  39.1929987  66.4885006 105.6505017
  39.4799987  65.6395006 105.0305017  38.1109987  66.4935006 105.7805017
  39.6259987  67.7735006 104.9775017  40.7079987  67.7695006 104.8475017
  39.1439987  67.8545006 104.0035017  39.3389987  68.6235006 105.5965017
  39.7129987  64.8835006 109.1345017  40.7929987  64.3175006 109.2655017
  39.0119987  65.3485006 110.1655017  38.1919987  65.9115006 109.9905017
  39.4129987  65.1225006 111.5505017  40.4999987  65.1395006 111.6295017
  38.8379987  66.2195006 112.4575017  39.1789987  67.1945006 112.1105017
  37.7489987  66.1835006 112.4265017  39.3079987  65.9975006 113.8755017
  38.9679987  65.0225006 114.2245017  40.3969987  66.0345006 113.9075017
  38.7359987  67.0885006 114.7765017  37.6189987  66.8645006 115.3155017
  39.4219987  68.1365006 114.9195017  38.9729987  63.7445006 112.0645017
  39.3569987  63.3545006 113.1705017  38.1739987  63.0175006 111.2785017
  37.8549987  63.3975006 110.3985017  37.6909987  61.6945006 111.6795017
  37.9499987  61.5085006 112.7215017  36.1739987  61.6085006 111.5315017
  35.9189987  61.9405006 110.5255017  35.8779987  60.5665006 111.6555017
  35.4439987  62.4655006 112.5465017  35.6379987  62.2405006 113.7615017
  34.6739987  63.3575006 112.1305017  38.3569987  60.5875006 110.8675017
  38.1749987  60.5135006 109.6485017  39.1309987  59.7195006 111.5465017
  39.3239987  59.6765006 113.0115017  38.3549987  59.5585006 113.4965017
  39.7819987  60.6095006 113.3385017  40.2259987  58.4875006 113.2245017
  39.6309987  57.6365006 113.5555017  40.9689987  58.7285006 113.9855017
  40.8789987  58.2175006 111.9085017  41.0759987  57.1475006 111.8385017
  41.8009987  58.7695006 111.7265017  39.8199987  58.6185006 110.8825017
  40.2299987  58.9855006 109.9415017  38.8739987  57.4485006 110.6035017
  39.1349987  56.6365006 109.7075017  37.8029987  57.3605006 111.3915017
  37.7379987  57.9675006 112.1965017  36.7359987  56.3925006 111.1675017
  37.1089987  55.3795006 111.3145017  35.5989987  56.6435006 112.1585017
  34.6669987  56.2765006 111.7285017  35.8089987  56.1045006 113.0825017
  35.4779987  58.0295006 112.4365017  34.7609987  58.1695006 113.0595017
  36.2369987  56.4955006 109.7305017  36.1289987  55.4925006 109.0185017
  35.9559987  57.7245006 109.3105017  35.9579987  58.4885006 109.9705017
  35.6399987  58.0135006 107.9245017  34.7859987  57.4165006 107.6045017
  35.2899987  59.4915006 107.7645017  34.4619987  59.7475006 108.4255017
  36.1509987  60.1155006 108.0035017  34.8679987  59.8585006 106.3965017
  35.6779987  60.0995006 105.3375017  36.7509987  60.0155006 105.5105017
  34.9329987  60.4095006 104.2335017  35.2999987  60.6185006 103.3155017
  33.6079987  60.3845006 104.5725017  32.4729987  60.6315006 103.8005017
  32.6029987  60.8935006 102.7505017  31.2589987  60.5275006 104.4165017
  30.3479987  60.7135006 103.8475017  31.1559987  60.1875006 105.7615017
  30.1819987  60.1085006 106.2445017  32.2799987  59.9405006 106.5245017
  32.1399987  59.6755006 107.5725017  33.5329987  60.0385006 105.9295017
  36.8529987  57.6765006 107.0725017  37.9869987  57.9755006 107.4545017
  36.6149987  57.0345006 105.9325017  35.7009987  56.6415006 105.7585017
  37.6689987  56.8045006 104.9445017  38.5569987  57.3935006 105.1715017
  38.0739987  55.3115006 104.8575017  39.0719987  55.2475006 104.4245017
  38.0739987  54.6455006 106.2525017  37.0759987  54.7085006 106.6855017
  38.3619987  53.5985006 106.1555017  38.7839987  55.1595006 106.9005017
  37.1949987  54.6075006 103.9705017  37.4569987  53.6845006 103.9255017
  37.1839987  57.3445006 103.5865017  36.0129987  57.1915006 103.2425017
  38.0709987  58.0005006 102.8215017  39.5069987  58.2215006 103.0695017
  40.0689987  57.3435006 102.7505017  39.6689987  58.3885006 104.1345017
  39.8199987  59.4395006 102.2435017  40.5589987  59.1625006 101.4915017
  40.2389987  60.2015006 102.9015017  38.5489987  59.9195006 101.6105017
  38.7449987  60.2295006 100.5845017  38.0759987  60.7385006 102.1525017
  37.6379987  58.6955006 101.6175017  36.5789987  58.9245006 101.7375017
  37.8419987  57.8925006 100.3395017  38.3799987  56.7835006 100.3935017
  37.4089987  58.4545006  99.2055017  36.8969987  59.3245006  99.2425017
  37.6699987  57.8565006  97.8915017  37.2749987  56.8405006  97.8865017
  37.0259987  58.6365006  96.7485017  37.0019987  59.6965006  96.9995017
  37.6069987  58.4925006  95.8375017  35.3169987  58.1835006  96.4005017
  39.1439987  57.8405006  97.6415017  39.6949987  56.8125006  97.2645017
  39.7649987  59.0035006  97.8265017  39.2169987  59.8195006  98.0585017
  41.2049987  59.1535006  97.6985017  41.6829987  58.1995006  97.4765017
  41.5779987  60.1615006  96.5905017  41.0399987  61.0925006  96.7685017
  43.0779987  60.4355006  96.5845017  43.6169987  59.5055006  96.4065017
  43.3139987  61.1485006  95.7945017  43.3759987  60.8485006  97.5475017
  41.1329987  59.6455006  95.2315017  40.0519987  59.5035006  95.2325017
  41.4039987  60.3685006  94.4615017  41.6239987  58.6945006  95.0245017
  41.7549987  59.6405006  99.0245017  41.4269987  60.7385006  99.4595017
  42.5759987  58.8075006  99.6615017  42.7329987  57.8855006  99.2805017
  43.2609987  59.1715006 100.8895017  42.5209987  59.3505006 101.6695017
  44.2209987  58.0715006 101.3675017  45.1209987  58.0935006 100.7525017
  44.5969987  58.2915006 102.8205017  43.6979987  58.2695006 103.4365017
  45.2769987  57.5035006 103.1435017  45.0859987  59.2595006 102.9275017
  43.5919987  56.7925006 101.2395017  44.1949987  56.1085006 101.5395017
  44.0559987  60.4285006 100.6335017  44.7679987  60.5205006  99.6465017
  43.9019987  61.3985006 101.5275017  43.2459987  61.2475006 102.2805017
  44.5149987  62.7185006 101.3975017  44.1889987  63.3595006 102.2165017
  46.0389987  62.6065006 101.4425017  46.3839987  62.0115006 100.5975017
  46.4599987  63.6095006 101.3755017  46.5289987  61.9605006 102.7215017
  46.2319987  62.4345006 103.8145017  47.2699987  60.8685006 102.5915017
  47.6219987  60.3995006 103.4145017  47.4789987  60.5105006 101.6705017
  44.0389987  63.5185006 100.1765017  44.7059987  63.5635006  99.1485017
  42.8599987  64.1215006 100.3105017  42.2499987  63.8175006 101.0555017
  42.3859987  65.1715006  99.4125017  43.2059987  65.4915006  98.7705017
  41.2319987  64.6805006  98.5265017  40.6619987  64.0105006  99.1695017
  40.6329987  65.5625006  98.3005017  41.5869987  63.9595006  97.2275017
  42.0869987  63.0195006  97.4625017  40.3259987  63.6765006  96.4325017
  39.8259987  64.6155006  96.1965017  40.5869987  63.1625006  95.5075017
  39.6579987  63.0475006  97.0215017  42.5309987  64.7875006  96.3845017
  43.4489987  64.9725006  96.9415017  42.7659987  64.2495006  95.4665017
  42.0589987  65.7385006  96.1365017  41.9439987  66.3585006 100.2665017
  40.7599987  66.7035006 100.3195017  42.9069987  66.9805006 100.9365017
  43.8609987  66.6555006 100.8665017  42.6139987  68.0705006 101.8615017
  41.9199987  67.7235006 102.6275017  43.8949987  68.5645006 102.5475017
  44.6779987  68.6635006 101.7955017  43.6979987  69.5375006 102.9965017
  44.3819987  67.6175006 103.6335017  44.2509987  66.3965006 103.5135017
  44.9469987  68.1795006 104.7015017  45.2879987  67.5975006 105.4535017
  45.0309987  69.1845006 104.7545017  41.8779987  69.2495006 101.2255017
  41.1249987  69.9425006 101.9105017  42.0899987  69.4775006  99.9305017
  42.6949987  68.8715006  99.3945017  41.4579987  70.6055006  99.2475017
  40.4459987  70.6925006  99.6425017  42.0279987  71.4975006  99.5085017
  41.3889987  70.4875006  97.7355017  41.4859987  69.3925006  97.1765017
  41.2189987  71.6335006  97.0805017  41.1379987  72.4935006  97.6045017
  41.0539987  71.6875006  95.6315017  40.4309987  70.8575006  95.2975017
  40.3769987  73.0055006  95.2205017  39.4199987  73.1005006  95.7335017
  41.0189987  73.8425006  95.4935017  40.0909987  73.1435006  93.7445017
  39.4779987  74.3015006  93.2545017  39.2069987  75.1045006  93.9395017
  39.2129987  74.4295006  91.8855017  38.7339987  75.3315006  91.5045017
  39.5629987  73.3985006  91.0065017  39.3569987  73.4985006  89.9405017
  40.1769987  72.2395006  91.4945017  40.4489987  71.4365006  90.8095017
  40.4419987  72.1115006  92.8635017  40.9209987  71.2095006  93.2435017
  42.3839987  71.4995006  94.8935017  42.3859987  71.1715006  93.7095017
  43.5039987  71.6865006  95.5915017  43.4399987  71.9205006  96.5725017
  44.8399987  71.5665006  94.9885017  44.8579987  71.9035006  93.9515017
  45.9079987  72.3545006  95.7825017  45.9809987  71.9345006  96.7855017
  47.2699987  72.2685006  95.0945017  47.1979987  72.6885006  94.0915017
  48.0049987  72.8305006  95.6715017  47.5799987  71.2255006  95.0295017
  45.4749987  73.8015006  95.9785017  44.5349987  73.8285006  96.5305017
  46.2409987  74.3375006  96.5395017  45.3389987  74.2755006  95.0065017
  45.2869987  70.1145006  94.9425017  45.7919987  69.6495006  93.9265017
  45.1219987  69.4175006  96.0635017  44.7929987  69.8885006  96.8945017
  45.4639987  68.0065006  96.1595017  46.5379987  67.8735006  96.0255017
  45.0719987  67.4605006  97.5345017  44.8839987  66.3905006  97.4445017
  45.8999987  67.6265006  98.2245017  43.9109987  68.1035006  98.0275017
  43.6869987  67.7435006  98.8885017  44.8009987  67.1905006  95.0485017
  45.4099987  66.2645006  94.5165017  43.5689987  67.5495006  94.6905017
  43.0999987  68.2815006  95.2045017  42.8289987  66.8655006  93.6195017
  42.8109987  65.8065006  93.8775017  41.3989987  67.3715006  93.5445017
  41.4009987  68.4285006  93.2785017  40.8529987  66.8075006  92.7885017
  40.9159987  67.2415006  94.5125017  43.4919987  66.9995006  92.2595017
  43.5659987  66.0315006  91.5065017  43.9609987  68.2005006  91.9445017
  43.7709987  68.9915006  92.5425017  44.7029987  68.4305006  90.7055017
  44.0839987  68.1655006  89.8485017  45.0989987  69.9075006  90.5865017
  44.2269987  70.5475006  90.7245017  45.8489987  70.1485006  91.3395017
  45.6929987  70.2725006  89.2555017  44.9499987  70.1375006  88.0975017
  43.9299987  69.7595006  88.1655017  45.4829987  70.4745006  86.8635017
  44.8799987  70.3645006  85.9615017  46.7769987  70.9495006  86.7755017
  47.2049987  71.2105006  85.8075017  47.5299987  71.0935006  87.9255017
  48.5509987  71.4705006  87.8635017  46.9879987  70.7585006  89.1575017
  47.5819987  70.8765006  90.0645017  45.9489987  67.5355006  90.6235017
  46.2309987  66.9605006  89.5745017  46.6749987  67.4175006  91.7395017
  46.3989987  67.9435006  92.5565017  47.9009987  66.6155006  91.8105017
  48.5559987  66.8685006  90.9765017  48.6469987  66.8905006  93.1205017
  47.8539987  67.0295006  93.8555017  49.2649987  66.0405006  93.4095017
  49.5109987  68.1515006  93.0585017  48.9719987  68.8925006  92.4685017
  49.8269987  68.7295006  94.4345017  50.3669987  67.9895006  95.0255017
  50.4419987  69.6225006  94.3215017  48.8979987  68.9915006  94.9415017
  50.7889987  67.8615006  92.2835017  50.5369987  67.5465006  91.2705017
  51.4009987  68.7625006  92.2415017  51.3449987  67.0675006  92.7825017
  47.6409987  65.1175006  91.6655017  48.3549987  64.4305006  90.9305017
  46.6319987  64.6175006  92.3745017  46.1599987  65.1905006  93.0595017
  46.2019987  63.2325006  92.2175017  47.0329987  62.5605006  92.4345017
  45.0569987  62.9175006  93.1755017  45.3759987  63.0495006  94.2095017
  44.2179987  63.5805006  92.9675017  44.5329987  61.5125006  93.0635017
  45.2649987  60.4425006  93.5535017  46.2329987  60.6345006  94.0155017
  44.7879987  59.1535006  93.4645017  45.3779987  58.3255006  93.8565017
  43.5639987  58.9115006  92.8795017  43.1839987  57.8925006  92.8065017
  42.8179987  59.9635006  92.3855017  41.8499987  59.7745006  91.9205017
  43.2989987  61.2585006  92.4805017  42.7069987  62.0895006  92.0955017
  45.7679987  62.9965006  90.7755017  46.1369987  61.9985006  90.1665017
  45.0019987  63.9335006  90.2245017  44.6669987  64.7065006  90.7815017
  44.5629987  63.8405006  88.8355017  43.9319987  62.9605006  88.7085017
  43.7589987  65.0805006  88.4345017  42.9059987  65.1765006  89.1055017
  44.3979987  65.9585006  88.5315017  43.2989987  64.9765006  87.0975017
  42.7989987  65.7635006  86.8695017  45.7209987  63.6415006  87.8615017
  45.5729987  62.9265006  86.8815017  46.8629987  64.2735006  88.1235017
  46.9469987  64.8585006  88.9425017  48.0289987  64.1225006  87.2585017
  47.6999987  64.0425006  86.2225017  49.0239987  65.2835006  87.3905017
  49.3969987  65.3235006  88.4145017  50.1909987  65.0785006  86.4335017
  49.8189987  65.0395006  85.4095017  50.8929987  65.9065006  86.5325017
  50.6969987  64.1435006  86.6725017  48.3539987  66.6275006  87.1075017
  48.2919987  66.7465006  86.0255017  47.3479987  66.5915006  87.5265017
  49.1069987  67.7995006  87.7015017  50.1129987  67.8355006  87.2825017
  48.5819987  68.7255006  87.4665017  49.1689987  67.6815006  88.7835017
  48.7629987  62.8615006  87.6455017  49.0799987  62.0425006  86.7885017
  49.0499987  62.7285006  88.9405017  48.8659987  63.4995006  89.5665017
  49.6599987  61.5225006  89.4885017  50.7139987  61.4875006  89.2135017
  49.5509987  61.5045006  91.0245017  48.5369987  61.8315006  91.2545017
  49.6719987  60.4615006  91.3185017  50.5519987  62.3705006  91.7935017
  51.5459987  61.9505006  91.6405017  50.5119987  63.3725006  91.3675017
  50.2519987  62.4425006  93.3015017  49.8639987  61.4075006  93.9065017
  50.4089987  63.5385006  93.8945017  48.9919987  60.2695006  88.9065017
  49.6509987  59.2615006  88.6885017  47.6899987  60.3325006  88.6505017
  47.1699987  61.1715006  88.8655017  46.9669987  59.1915006  88.1135017
  47.3779987  58.2735006  88.5325017  45.4779987  59.2725006  88.4755017
  45.0369987  60.1205006  87.9515017  44.7549987  58.0095006  88.0835017
  45.1949987  57.1605006  88.6075017  43.7019987  58.0945006  88.3515017
  44.8439987  57.8585006  87.0075017  45.3419987  59.4505006  89.8865017
  44.4109987  59.5015006  90.1145017  47.1009987  59.0515006  86.5945017
  47.4129987  57.9715006  86.1045017  46.8689987  60.1325006  85.8525017
  46.6749987  61.0195006  86.2955017  46.7849987  60.0525006  84.3865017
  46.2839987  59.1275006  84.1005017  45.9979987  61.2305006  83.8165017
  45.1179987  61.3625006  84.4465017  46.6359987  62.1105006  83.8955017
  45.5609987  61.0475006  82.3645017  46.3649987  60.5235006  81.8475017
  44.6619987  60.4305006  82.3565017  45.2779987  62.3625006  81.6585017
  44.2169987  62.9795006  81.9225017  46.1229987  62.7695006  80.8285017
  48.1469987  59.9515006  83.7075017  48.2689987  59.2695006  82.6945017
  49.1599987  60.6285006  84.2475017  48.9889987  61.2795006  85.0005017
  50.5529987  60.3965006  83.8285017  50.6359987  60.4995006  82.7465017
  51.5389987  61.3655006  84.4895017  52.5509987  60.9875006  84.3465017
  51.4259987  62.7505006  83.8825017  50.4139987  63.1295006  84.0255017
  52.1359987  63.4195006  84.3685017  51.6469987  62.6995006  82.8165017
  51.2729987  61.4215006  85.8945017  51.8889987  62.0275006  86.3125017
  51.0029987  59.0335006  84.2735017  51.9659987  58.4905006  83.7525017
  50.3019987  58.5115006  85.2715017  49.5809987  59.0915006  85.6755017
  50.5929987  57.2315006  85.9025017  49.8709987  57.0195006  86.6915017
  50.6099987  56.0295006  84.9055017  50.4419987  55.1145006  85.4735017
  49.5359987  56.1625006  83.8235017  49.7039987  57.0765006  83.2545017
  49.5859987  55.3045006  83.1535017  48.5519987  56.2015006  84.2905017
  51.9019987  55.8905006  84.2945017  51.8899987  55.1475006  83.6865017
  51.8889987  57.3275006  86.7115017  52.6559987  56.3535006  86.7855017
  52.1409987  58.4875006  87.3165017  51.6059987  59.3095006  87.0755017
  53.2419987  58.6315006  88.2655017  54.0659987  58.0085006  87.9185017
  53.7189987  60.0885006  88.3915017  52.8859987  60.7055006  88.7285017
  54.8589987  60.1915006  89.3865017  55.6919987  59.5745006  89.0505017
  55.1829987  61.2295006  89.4625017  54.5219987  59.8445006  90.3635017
  54.2109987  60.5925006  87.0345017  55.1669987  60.1055006  86.8405017
  53.4819987  60.2705006  86.2905017  54.3839987  62.0945006  86.9535017
  55.1129987  62.4175006  87.6965017  54.7349987  62.3675006  85.9585017
  53.4279987  62.5815006  87.1475017  52.7649987  58.0475006  89.6035017
  53.4389987  57.2015006  90.1975017  51.5799987  58.4575006  90.0415017
  51.1349987  59.2415006  89.5865017  50.8859987  57.8195006  91.1605017
  50.0169987  58.4305006  91.4045017  50.5559987  56.8345006  90.8295017
  51.7389987  57.6615006  92.3975017  51.8829987  56.5495006  92.9085017
  52.3079987  58.7725006  92.8725017  52.1669987  59.6405006  92.3755017
  53.1989987  58.7765006  94.0515017  54.1339987  58.2765006  93.7975017
  53.5179987  60.2105006  94.5155017  52.5579987  60.7235006  94.5765017
  53.9579987  60.1445006  95.5105017  54.4509987  60.9875006  93.6005017
  55.7559987  60.5595006  93.3735017  56.1059987  59.6485006  93.8585017
  56.6059987  61.2735006  92.5445017  57.6249987  60.9275006  92.3695017
  56.1529987  62.4415006  91.9345017  56.9829987  63.1675006  91.1035017
  57.8559987  62.7785006  91.0125017  54.8649987  62.8845006  92.1535017
  54.5079987  63.7965006  91.6765017  54.0269987  62.1655006  92.9825017
  53.0109987  62.5145006  93.1665017  52.6229987  57.9745006  95.2245017
  53.3719987  57.3735006  95.9925017  51.3019987  57.9405006  95.3425017
  50.7169987  58.5345006  94.7725017  50.6609987  57.0515006  96.2915017
  49.6429987  56.8715006  95.9445017  51.2139987  56.1125006  96.2945017
  50.6109987  57.5985006  97.7045017  50.3649987  56.8475006  98.6525017
  50.8609987  58.8955006  97.8645017  51.3279987  59.4295006  97.1455017
  50.4719987  59.5805006  99.0925017  50.6879987  58.9415006  99.9485017
  51.2329987  60.8885006  99.2585017  52.2829987  60.6305006  99.1225017
  50.9189987  61.5635006  98.4625017  51.0499987  61.5705006 100.6005017
  49.9049987  62.3105006 100.8795017  49.1289987  62.3795006 100.1165017
  49.7389987  62.9515006 102.0965017  48.8329987  63.5235006 102.2995017
  50.7259987  62.8645006 103.0515017  50.5529987  63.5015006 104.2565017
  49.7169987  63.9695006 104.3165017  51.8779987  62.1425006 102.7995017
  52.6599987  62.0725006 103.5555017  52.0359987  61.5055006 101.5775017
  52.9459987  60.9415006 101.3705017  48.9819987  59.8315006  98.9595017
  48.2409987  59.7375006  99.9335017  48.5559987  60.1405006  97.7355017
  49.2379987  60.3455006  97.0195017  47.1469987  60.1855006  97.3795017
  46.5569987  60.3705006  98.2775017  46.8519987  61.2945006  96.3625017
  47.5209987  61.1175006  95.5205017  45.8199987  61.1455006  96.0435017
  47.0269987  62.7165006  96.8555017  46.5979987  63.3955006  96.1185017
  46.4959987  62.8245006  97.8015017  48.4869987  63.0495006  97.0565017
  48.7029987  63.0395006  98.1245017  49.0889987  62.2905006  96.5575017
  48.8429987  64.3495006  96.5235017  48.1719987  64.8025006  95.9195017
  49.9909987  64.9715006  96.7755017  50.9129987  64.4345006  97.5725017
  50.7449987  63.5345006  97.9995017  51.7759987  64.9295006  97.7465017
  50.2149987  66.1515006  96.2255017  49.5169987  66.5655006  95.6245017
  51.0829987  66.6345006  96.4095017  46.8049987  58.8345006  96.7645017
  47.2609987  58.5245006  95.6615017  46.0189987  58.0315006  97.4775017
  45.6129987  58.3635006  98.3405017  45.6829987  56.6835006  97.0285017
  46.0309987  56.5045006  96.0115017  46.2799987  55.6115006  97.9465017
  45.7079987  55.5695006  98.8735017  46.2259987  54.2545006  97.2555017
  46.7979987  54.2955006  96.3285017  46.6509987  53.4945006  97.9115017
  45.1899987  54.0015006  97.0315017  47.7039987  55.9675006  98.3355017
  47.7099987  56.9225006  98.8605017  48.1079987  55.1925006  98.9875017
  48.3179987  56.0435006  97.4385017  44.1929987  56.4565006  97.0505017
  43.5339987  56.8005006  98.0135017  43.6729987  55.8365006  96.0025017
  44.2419987  55.6845006  95.1825017  42.2569987  55.4865006  95.9375017
  41.5829987  56.2335006  96.3555017  41.8519987  55.1895006  94.4655017
  41.9449987  56.1105006  93.8905017  42.7369987  54.1115006  93.8445017
  42.6449987  53.1895006  94.4185017  42.4239987  53.9315006  92.8165017
  43.7749987  54.4425006  93.8545017  40.3619987  54.8625006  94.3405017
  40.2329987  53.8105006  94.5955017  39.8269987  55.4795006  95.0625017
  39.8099987  55.1165006  92.9525017  40.3439987  54.4995006  92.2295017
  38.7499987  54.8645006  92.9305017  39.9389987  56.1685006  92.6965017
  41.9809987  54.3345006  96.9295017  42.9269987  53.7495006  97.4525017
  40.7129987  54.0465006  97.2425017  39.9649987  54.6455006  96.9235017
  40.3799987  52.9435006  98.1745017  41.1469987  52.1705006  98.1265017
  40.2519987  53.4285006  99.6555017  39.6879987  52.6855006 100.2195017
  41.6239987  53.6145006 100.2915017  42.1879987  54.3585006  99.7285017
  41.5049987  53.9525006 101.3215017  42.1619987  52.6665006 100.2805017
  39.5299987  54.6645006  99.7265017  39.4629987  54.9435006 100.6425017
  39.1339987  52.1285006  97.7745017  38.4909987  52.4195006  96.7625017
  38.8439987  51.0895006  98.5705017  39.4849987  50.8985006  99.3275017
  37.6399987  50.2425006  98.4415017  37.6269987  49.7815006  97.4535017
  37.6199987  49.1295006  99.5035017  37.3949987  49.6045006 100.4585017
  36.8209987  48.4345006  99.2465017  38.9229987  48.3795006  99.6105017
  39.6279987  48.2535006  98.5895017  39.2329987  47.9045006 100.7265017
  36.3319987  51.0005006  98.6525017  35.3389987  50.7255006  97.9865017
  36.3429987  51.9215006  99.6125017  37.2309987  52.1525006 100.0355017
  35.1349987  52.5245006 100.1665017  34.5199987  51.7685006 100.6545017
  35.5319987  53.5745006 101.2025017  36.2199987  53.1325006 101.9235017
  36.0189987  54.4125006 100.7035017  34.2859987  54.0705006 101.9275017
  33.5979987  54.5125006 101.2065017  33.7989987  53.2335006 102.4285017
  34.6819987  55.1195006 102.9605017  35.3699987  54.6785006 103.6815017
  35.1689987  55.9565006 102.4605017  33.4359987  55.6155006 103.6855017
  32.7479987  56.0575006 102.9655017  32.9489987  54.7785006 104.1855017
  33.8179987  56.6265006 104.6825017  34.2689987  57.4025006 104.2195017
  32.9919987  56.9545006 105.1625017  34.4549987  56.2165006 105.3505017
  34.1219987  53.1275006  99.1685017  32.9229987  53.1285006  99.4535017
  34.5689987  53.6415006  98.0215017  35.5589987  53.7405006  97.8465017
  33.6269987  54.1335006  97.0015017  32.6079987  53.9135006  97.3205017
  33.7559987  55.6385006  96.7865017  32.9669987  55.9795006  96.1165017
  33.6659987  56.1515006  97.7435017  35.3539987  56.1725006  96.1355017
  33.8009987  53.4355006  95.6585017  34.9119987  53.3455006  95.1425017
  32.6949987  52.9335006  95.0865017  31.3539987  52.7435006  95.6735017
  31.0139987  53.6845006  96.1065017  31.4059987  51.9835006  96.4525017
  30.5139987  52.3085006  94.5035017  30.0019987  53.1735006  94.0815017
  29.7769987  51.5775006  94.8365017  31.4559987  51.7035006  93.5245017
  31.0389987  51.8665006  92.5305017  31.6659987  50.6425006  93.6605017
  32.7419987  52.5145006  93.6885017  33.6519987  51.9385006  93.5215017
  32.7339987  53.7325006  92.7645017  33.1959987  53.6475006  91.6275017
  32.2189987  54.8535006  93.2695017  31.8249987  54.8365006  94.1995017
  32.1349987  56.0925006  92.5055017  31.5199987  55.9405006  91.6185017
  31.4999987  57.2045006  93.3605017  32.1219987  57.3265006  94.2475017
  31.5259987  58.1215006  92.7715017  30.0569987  56.9105006  93.7845017
  29.4989987  56.6375006  92.8885017  30.1039987  56.0545006  94.4575017
  29.3539987  58.0735006  94.4875017  29.7419987  59.2475006  94.2815017
  28.3909987  57.8115006  95.2435017  33.5199987  56.5025006  92.0015017
  33.6659987  56.9675006  90.8745017  34.5349987  56.2975006  92.8375017
  34.3549987  55.9105006  93.7535017  35.9169987  56.6145006  92.4775017
  35.9279987  57.6115006  92.0365017  36.5089987  56.6155006  93.3925017
  36.5289987  55.6335006  91.4945017  37.2329987  56.0345006  90.5635017
  36.2589987  54.3465006  91.6945017  35.6709987  54.0645006  92.4655017
  36.8509987  53.3035006  90.8555017  37.9369987  53.3965006  90.8715017
  36.4489987  51.8865006  91.3175017  35.3619987  51.8035006  91.3085017
  37.0469987  50.8375006  90.3855017  38.1339987  50.9195006  90.3945017
  36.7559987  49.8425006  90.7225017  36.6789987  50.9995006  89.3725017
  36.9189987  51.6395006  92.7545017  38.0069987  51.7015006  92.7505017
  36.5119987  52.4445006  93.3665017  36.4929987  50.3055006  93.3275017
  36.8999987  49.5005006  92.7165017  36.8669987  50.2115006  94.3475017
  35.4049987  50.2425006  93.3325017  36.4669987  53.4895006  89.3865017
  37.3169987  53.3985006  88.5015017  35.1869987  53.7535006  89.1355017
  34.5119987  53.7155006  89.8855017  34.6969987  53.9695006  87.7665017
  35.1129987  53.2165006  87.0975017  33.1439987  53.9535006  87.6635017
  32.8529987  54.2965006  86.6705017  32.6029987  52.5495006  87.8935017
  32.8929987  52.2055006  88.8865017  31.5159987  52.5615006  87.8165017
  33.0119987  51.8745006  87.1425017  32.4919987  54.9335006  88.6495017
  31.4979987  54.5435006  88.8695017  33.0969987  54.9165006  89.5565017
  32.3759987  56.3595006  88.1465017  31.7709987  56.3775006  87.2405017
  31.9039987  56.9775006  88.9105017  33.3699987  56.7495006  87.9275017
  35.2579987  55.2385006  87.1285017  35.2429987  55.3665006  85.9055017
  35.7499987  56.1705006  87.9455017  35.6309987  56.0925006  88.9455017
  36.4429987  57.3375006  87.4225017  35.9249987  57.6855006  86.5295017
  36.4939987  58.4755006  88.4295017  35.4499987  58.7285006  88.6155017
  36.9539987  58.1295006  89.3555017  37.2379987  59.7165006  87.9225017
  38.2869987  59.4515006  87.7925017  36.6759987  60.2295006  86.6015017
  35.6269987  60.4955006  86.7315017  37.2369987  61.1095006  86.2845017
  36.7619987  59.4515006  85.8425017  37.1829987  60.7965006  88.9875017
  37.6559987  60.4325006  89.8995017  37.7099987  61.6825006  88.6345017
  36.1429987  61.0505006  89.1945017  37.8519987  56.9545006  87.0355017
  38.2449987  57.1575006  85.8895017  38.6099987  56.4065006  87.9885017
  38.2649987  56.3325006  88.9345017  39.9559987  55.9055006  87.6985017
  40.6459987  56.7445006  87.6105017  40.4489987  54.9845006  88.8095017
  40.4629987  55.6135006  89.6995017  39.7269987  54.1795006  88.9465017
  41.8449987  54.3875006  88.5825017  41.9639987  54.1625006  87.5225017
  42.9239987  55.3615006  89.0165017  42.8059987  55.5865006  90.0765017
  43.9049987  54.9175006  88.8465017  42.8369987  56.2815006  88.4385017
  42.0029987  53.0695006  89.3185017  41.2579987  52.3595006  88.9575017
  43.0009987  52.6705006  89.1395017  41.8629987  53.2305006  90.3875017
  39.9339987  55.1345006  86.3895017  40.8449987  55.2455006  85.5665017
  38.8669987  54.3595006  86.2155017  38.2019987  54.2845006  86.9715017
  38.6399987  53.5685006  85.0175017  39.4859987  52.9055006  84.8345017
  37.3789987  52.7145006  85.2055017  37.3429987  52.5295006  86.2785017
  36.5419987  53.3505006  84.9185017  37.2889987  51.3885006  84.4575017
  37.1019987  51.5875006  83.4025017  38.5819987  50.6115006  84.6035017
  38.7689987  50.4115006  85.6585017  38.5019987  49.6675006  84.0645017
  39.4059987  51.1955006  84.1925017  36.1299987  50.5605006  84.9955017
  35.1979987  51.1095006  84.8625017  36.0749987  49.6165006  84.4545017
  36.2859987  50.3625006  86.0555017  38.5149987  54.4405006  83.7695017
  39.3149987  54.3205006  82.8355017  37.5279987  55.3315006  83.7715017
  36.9049987  55.3785006  84.5645017  37.3089987  56.2615006  82.6605017
  37.0239987  55.6965006  81.7725017  36.2099987  57.2895006  82.9885017
  36.3749987  57.6685006  83.9975017  36.2329987  58.4495006  82.0005017
  36.0669987  58.0715006  80.9915017  35.4469987  59.1605006  82.2555017
  37.2009987  58.9475006  82.0465017  34.8349987  56.6335006  82.9455017
  34.5789987  56.4755006  81.8975017  34.9149987  55.6695006  83.4485017
  33.7569987  57.4605006  83.6085017  33.6769987  58.4245006  83.1055017
  32.8039987  56.9365006  83.5425017  34.0119987  57.6185006  84.6565017
  38.5689987  57.0405006  82.3365017  38.9529987  57.1475006  81.1775017
  39.1829987  57.6035006  83.3725017  38.7909987  57.4905006  84.2965017
  40.3779987  58.4225006  83.2245017  40.1459987  59.3085006  82.6335017
  40.8969987  58.8695006  84.5915017  40.1029987  59.4485006  85.0625017
  41.0839987  57.9675006  85.1745017  42.1649987  59.7045006  84.5305017
  43.0129987  59.0515006  84.3225017  42.0599987  60.4315006  83.7245017
  42.4329987  60.4485006  85.8215017  42.5179987  61.6775006  85.8375017
  42.5589987  59.7075006  86.9155017  42.7389987  60.1515006  87.8045017
  42.4749987  58.7025006  86.8535017  41.4579987  57.6635006  82.4805017
  41.8449987  58.0615006  81.3885017  41.9169987  56.5605006  83.0625017
  41.5629987  56.2995006  83.9715017  42.9729987  55.7385006  82.4665017
  43.9269987  56.2645006  82.5075017  43.1059987  54.4265006  83.2395017
  42.1939987  53.8435006  83.1125017  43.9529987  53.8655006  82.8455017
  43.3119987  54.6865006  84.6195017  43.3939987  53.8555006  85.0925017
  42.7359987  55.4515006  80.9785017  43.6649987  55.5275006  80.1645017
  41.4849987  55.1475006  80.6365017  40.7879987  55.0615006  81.3625017
  41.0859987  54.8705006  79.2535017  41.7339987  54.1305006  78.7835017
  39.6239987  54.3595006  79.1895017  38.9909987  55.0485006  79.7475017
  39.1309987  54.2695006  77.7515017  39.7639987  53.5795006  77.1925017
  38.1029987  53.9085006  77.7415017  39.1729987  55.2565006  77.2895017
  39.4989987  53.0055006  79.8745017  39.7949987  53.0975006  80.9195017
  38.4649987  52.6635006  79.8195017  40.1469987  52.2845006  79.3765017
  41.2439987  56.1075006  78.3605017  41.8699987  56.0385006  77.3085017
  40.6619987  57.2265006  78.7855017  40.0989987  57.2045006  79.6235017
  40.7619987  58.4915006  78.0475017  40.5609987  58.3105006  76.9915017
  39.7579987  59.5215006  78.5655017  39.6189987  59.2485006  79.6115017
  40.2009987  60.5155006  78.5055017  38.3989987  59.5235006  77.8535017
  38.5519987  59.9245006  76.8515017  37.7709987  58.1365006  77.7555017
  37.6169987  57.7355006  78.7575017  36.8119987  58.2065006  77.2415017
  38.4339987  57.4755006  77.1975017  37.4489987  60.4795006  78.5605017
  37.8659987  61.4865006  78.5435017  36.4849987  60.4775006  78.0515017
  37.3139987  60.1605006  79.5935017  42.1619987  59.0605006  78.1295017
  42.5869987  59.7855006  77.2425017  42.8709987  58.7345006  79.2025017
  42.4289987  58.2255006  79.9545017  44.2749987  59.0845006  79.3395017
  44.3779987  60.1685006  79.2865017  44.6359987  58.7335006  80.3065017
  45.1089987  58.4565006  78.2445017  46.0749987  59.0505006  77.7895017
  44.7359987  57.2565006  77.8125017  43.7299987  56.1085006  78.3475017
  42.7429987  56.5565006  78.4615017  44.0909987  55.7755006  79.3205017
  43.7509987  54.9965006  77.3085017  43.0149987  55.1745006  76.5245017
  43.5649987  54.0245006  77.7665017  45.1679987  55.0795006  76.7685017
  45.2529987  54.6645006  75.7645017  45.8779987  54.5805006  77.4285017
  45.4519987  56.5785006  76.7365017  46.5219987  56.7055006  76.9035017
  45.0829987  57.1375006  75.3705017  45.9419987  57.2735006  74.5085017
  43.8119987  57.4625006  75.1775017  43.1439987  57.3415006  75.9255017
  43.3279987  57.9585006  73.8905017  43.7129987  57.3535006  73.0695017
  41.7859987  57.9725006  73.8385017  41.4139987  58.5365006  74.6935017
  41.2829987  58.6145006  72.5475017  41.6539987  58.0505006  71.6915017
  40.1929987  58.6095006  72.5395017  41.6419987  59.6415006  72.4885017
  41.2369987  56.5485006  73.9805017  41.2739987  56.0835006  72.9955017
  41.8969987  56.0095006  74.6605017  39.8189987  56.4995006  74.5085017
  39.1589987  57.0375006  73.8285017  39.4939987  55.4615006  74.5835017
  39.7809987  56.9635006  75.4935017  43.8499987  59.3665006  73.6085017
  44.2209987  59.6765006  72.4755017  43.8599987  60.2185006  74.6325017
  43.4699987  59.9475006  75.5235017  44.3619987  61.5835006  74.4825017
  43.9839987  62.0325006  73.5645017  43.9839987  62.5005006  75.6755017
  42.9029987  62.4585006  75.8055017  44.6679987  62.0735006  76.9695017
  45.7499987  62.1155006  76.8405017  44.3729987  62.7445006  77.7755017
  44.3709987  61.0545006  77.2185017  44.3359987  63.9425006  75.3645017
  43.7889987  64.2675006  74.4795017  44.0649987  64.5735006  76.2105017
  45.4069987  64.0235006  75.1795017  45.8699987  61.5635006  74.2975017
  46.3999987  62.2725006  73.4515017  46.5449987  60.7275006  75.0765017
  46.0439987  60.1695006  75.7525017  47.9909987  60.6215006  75.0335017
  48.4429987  61.6035006  75.1735017  48.4749987  59.7015006  76.1435017
  48.2059987  60.1185006  77.1135017  47.9859987  58.7355006  76.0155017
  49.9589987  59.4955006  76.1055017  50.4379987  58.3795006  75.9145017
  50.7019987  60.5775006  76.2625017  51.7089987  60.5015006  76.2465017
  50.2589987  61.4755006  76.3985017  48.4789987  60.1145006  73.6795017
  49.4779987  60.6015006  73.1565017  47.7659987  59.1455006  73.1135017
  47.0429987  58.6785006  73.6425017  48.0309987  58.6885006  71.7465017
  49.0549987  58.3185006  71.6885017  47.0839987  57.5615006  71.3595017
  46.0549987  57.9195006  71.4045017  47.3089987  57.2295006  70.3455017
  47.2089987  56.7275006  72.0505017  47.9029987  59.8425006  70.7615017
  48.8899987  60.2655006  70.1605017  46.6879987  60.3595006  70.6195017
  45.9089987  59.8985006  71.0685017  46.4109987  61.5215006  69.7635017
  46.3279987  61.2165006  68.7205017  45.0749987  62.1595006  70.1985017
  44.3259987  61.3945006  70.4055017  45.2609987  62.7395006  71.1025017
  44.4549987  63.1135006  69.1905017  44.9909987  63.3275006  67.9165017
  45.8989987  62.8015006  67.6215017  44.3749987  64.2045006  67.0285017
  44.8149987  64.3705006  66.0455017  43.2129987  64.8635006  67.3855017
  42.7309987  65.5475006  66.6875017  42.6639987  64.6515006  68.6325017
  41.7479987  65.1685006  68.9195017  43.2769987  63.7805006  69.5215017
  42.8379987  63.6055006  70.5035017  47.5489987  62.5685006  69.7585017
  48.0319987  62.9525006  68.6915017  47.9969987  62.9925006  70.9405017
  47.6049987  62.6095006  71.7885017  48.9869987  64.0765006  71.0565017
  48.8019987  64.8265006  70.2875017  48.8939987  64.7495006  72.4305017
  49.0939987  63.9775006  73.1735017  49.6819987  65.5015006  72.4675017
  47.5489987  65.4065006  72.7295017  46.7969987  64.6205006  72.6545017
  47.5999987  65.7625006  73.7585017  47.0829987  66.7825006  71.6465017
  45.9879987  65.9705006  70.4805017  45.1419987  65.5395006  71.0155017
  45.6249987  66.6985006  69.7545017  46.5299987  65.1805006  69.9615017
  50.4289987  63.6405006  70.7955017  51.1379987  64.2945006  70.0325017
  50.8789987  62.5655006  71.4345017  50.3199987  62.1145006  72.1445017
  52.2209987  62.0375006  71.1665017  52.9839987  62.8055006  71.2985017
  52.5649987  60.8415006  72.0735017  51.6599987  60.2545006  72.2275017
  53.6449987  59.9575006  71.4525017  54.5509987  60.5435006  71.2985017
  53.8619987  59.1245006  72.1205017  53.2939987  59.5735006  70.4945017
  53.0039987  61.3405006  73.4415017  52.1969987  61.9155006  73.8955017
  53.2459987  60.4895006  74.0785017  53.8839987  61.9745006  73.3325017
  52.3489987  61.6225006  69.7015017  53.3489987  61.9295006  69.0455017
  51.3409987  60.9175006  69.1985017  50.5979987  60.6005006  69.8045017
  51.2689987  60.5805006  67.7815017  52.0499987  59.8605006  67.5385017
  50.2939987  60.1465006  67.5595017  51.4609987  61.8205006  66.9355017
  52.3399987  61.8605006  66.0785017  50.6599987  62.8475006  67.2085017
  49.9439987  62.7455006  67.9135017  50.7399987  64.1125006  66.4805017
  50.4809987  63.9525006  65.4335017  49.7709987  65.1335006  67.0725017
  48.8459987  64.6475006  67.3835017  50.2209987  65.6365006  67.9285017
  49.2889987  66.4375006  65.9225017  48.4899987  67.0815006  66.7695017
  52.1539987  64.6885006  66.4815017  52.6099987  65.2055006  65.4675017
  52.8439987  64.5905006  67.6135017  52.4009987  64.2215006  68.4425017
  54.2399987  65.0335006  67.7095017  54.3229987  66.0625006  67.3585017
  54.7329987  64.9695006  69.1555017  54.5359987  63.9605006  69.5175017
  55.8089987  65.1445006  69.1365017  54.0739987  65.9765006  70.0795017
  52.9959987  65.9035006  69.9375017  54.3239987  65.7015006  71.1045017
  54.5979987  67.6715006  69.7765017  56.3659987  67.4945006  69.9875017
  56.7489987  66.7765006  69.2625017  56.8489987  68.4595006  69.8335017
  56.5779987  67.1395006  70.9955017  55.1629987  64.1885006  66.8445017
  55.9299987  64.7205006  66.0425017  55.0869987  62.8745006  67.0125017
  54.4619987  62.4795006  67.7005017  55.9399987  61.9735006  66.2615017
  56.9819987  62.1465006  66.5325017  55.5939987  60.5155006  66.5605017
  55.8469987  60.2825006  67.5945017  54.5329987  60.3295006  66.3955017
  56.3409987  59.5335006  65.7035017  57.6819987  59.2645006  65.9425017
  58.1889987  59.7705006  66.7635017  58.3759987  58.3625006  65.1485017
  59.4269987  58.1565006  65.3485017  57.7309987  57.7235006  64.1005017
  58.2739987  57.0145006  63.4755017  56.3929987  57.9875006  63.8485017
  55.8809987  57.4895006  63.0245017  55.7059987  58.8875006  64.6485017
  54.6539987  59.0965006  64.4545017  55.8389987  62.2375006  64.7625017
  56.8609987  62.3715006  64.0825017  54.6099987  62.3245006  64.2575017
  53.8119987  62.2285006  64.8695017  54.3679987  62.5325006  62.8275017
  54.7789987  61.7115006  62.2405017  52.8619987  62.6535006  62.5185017
  52.4289987  63.4025006  63.1805017  52.6309987  63.0625006  61.0695017
  53.0639987  62.3135006  60.4065017  51.5599987  63.1405006  60.8795017
  53.1029987  64.0275006  60.8835017  52.1549987  61.3415006  62.7995017
  52.2809987  61.0785006  63.8495017  51.0929987  61.4455006  62.5755017
  52.5819987  60.5565006  62.1755017  55.0769987  63.7995006  62.3635017
  55.8139987  63.7865006  61.3705017  54.8569987  64.8775006  63.1115017
  54.2809987  64.7875006  63.9365017  55.3659987  66.1985006  62.7645017
  55.0559987  66.4705006  61.7555017  54.8069987  67.2335006  63.7445017
  53.7749987  66.9515006  63.9515017  55.3939987  67.1565006  64.6595017
  54.8489987  68.6655006  63.2355017  55.8809987  69.0155006  63.2735017
  54.4999987  68.6755006  62.2025017  53.9729987  69.5815006  64.0745017
  52.9299987  69.3645006  63.8445017  54.1639987  69.3715006  65.1265017
  54.2589987  71.0435006  63.7915017  53.4979987  71.6435006  64.2895017
  55.2389987  71.2865006  64.2025017  54.2469987  71.3385006  62.3335017
  53.3389987  71.1145006  61.9525017  54.4409987  72.3185006  62.1865017
  54.9529987  70.7825006  61.8715017  56.8949987  66.2545006  62.7615017
  57.4989987  66.9425006  61.9345017  57.5209987  65.5445006  63.6935017
  56.9989987  65.0725006  64.4185017  58.9789987  65.4855006  63.7405017
  59.3849987  66.4905006  63.6275017  59.4789987  64.8745006  65.0705017
  58.9729987  63.9215006  65.2285017  60.9839987  64.6505006  65.0395017
  61.4899987  65.6025006  64.8815017  61.3069987  64.2205006  65.9875017
  61.2339987  63.9675006  64.2275017  59.1359987  65.7955006  66.2385017
  59.7179987  66.7085006  66.1095017  58.0739987  66.0285006  66.1625017
  59.4259987  65.2005006  67.6015017  60.4879987  64.9675006  67.6785017
  59.1549987  65.9175006  68.3765017  58.8439987  64.2885006  67.7315017
  59.5099987  64.6885006  62.5405017  60.4549987  65.1225006  61.8755017
  58.8819987  63.5455006  62.2515017  58.0659987  63.2875006  62.7865017
  59.3749987  62.6055006  61.2355017  60.4639987  62.6235006  61.2025017
  58.9179987  61.1825006  61.5835017  59.4439987  60.4835006  60.9335017
  59.1809987  60.9805006  62.6215017  57.5149987  61.0265006  61.4115017
  57.2629987  60.1285006  61.6365017  58.9639987  62.9275006  59.7845017
  59.4599987  62.2885006  58.8535017  58.0699987  63.8965006  59.5885017
  57.6919987  64.3985006  60.3795017  57.5389987  64.2015006  58.2495017
  57.0009987  63.3325006  57.8715017  56.5789987  65.3985006  58.2775017
  56.2259987  65.5365006  57.2555017  55.7429987  65.1095006  58.9135017
  57.1779987  66.7015006  58.7875017  57.6039987  66.5275006  59.7755017
  57.9639987  67.0235006  58.1055017  56.1459987  67.8055006  58.8925017
  55.2989987  67.9505006  58.0125017  56.2139987  68.5905006  59.9645017
  55.5479987  69.3405006  60.0805017  56.9309987  68.4325006  60.6575017
  58.6309987  64.4455006  57.2125017  59.6339987  65.0845006  57.5045017
  58.4209987  63.9485006  55.9885017  57.1699987  63.3285006  55.5215017
  56.3439987  64.0235006  55.6735017  56.9859987  62.4165006  56.0895017
  57.4329987  63.0555006  54.0725017  57.0709987  63.8885006  53.4705017
  56.9199987  62.1415006  53.7725017  58.9069987  62.9005006  53.9545017
  59.2829987  63.1305006  52.9575017  59.2079987  61.8895006  54.2315017
  59.4629987  63.9045006  54.9635017  60.3559987  63.5255006  55.4605017
  59.7889987  65.2275006  54.2695017  60.9179987  65.4085006  53.8285017
  58.8299987  66.1445006  54.1585017  57.8859987  65.9515006  54.4595017
  59.1079987  67.4415006  53.5245017  59.2419987  67.2935006  52.4525017
  57.9669987  68.4405006  53.7415017  58.2659987  69.3725006  53.2625017
  57.0909987  68.0365006  53.2345017  57.6299987  68.7065006  55.1985017
  57.3129987  67.7655006  55.6485017  58.5339987  69.0595006  55.6945017
  56.5269987  69.7415006  55.3595017  55.9259987  69.7385006  54.4505017
  55.9069987  69.4455006  56.2055017  57.0759987  71.1395006  55.5985017
  57.8889987  71.0815006  56.3225017  57.4559987  71.5365006  54.6575017
  56.0109987  72.0365006  56.1195017  55.6589987  71.6695006  56.9915017
  56.3929987  72.9595006  56.2725017  55.2579987  72.0905006  55.4485017
  60.4159987  68.0355006  54.0305017  61.1079987  68.7125006  53.2855017
  60.7479987  67.7605006  55.2905017  60.0969987  67.2385006  55.8595017
  61.9799987  68.2475006  55.9145017  61.9859987  69.3375006  55.9285017
  62.0739987  67.7395006  57.3565017  61.9409987  66.6585006  57.3205017
  63.0799987  67.9695006  57.7085017  61.0569987  68.3425006  58.3055017
  60.0759987  68.3045006  57.8315017  61.0419987  67.7485006  59.2195017
  61.3989987  69.7825006  58.6445017  62.2349987  69.7935006  59.3435017
  61.6829987  70.3045006  57.7305017  60.2049987  70.4785006  59.2735017
  59.3329987  70.2935006  58.6465017  60.0399987  70.0465006  60.2605017
  60.4189987  71.9445006  59.4035017  60.5709987  72.3445006  58.4885017
  59.6039987  72.3675006  59.8245017  61.2269987  72.1165006  59.9855017
  63.2569987  67.8745006  55.1535017  64.1869987  68.6675006  55.0795017
  63.2949987  66.6715006  54.5955017  62.5309987  66.0295006  54.7515017
  64.4199987  66.2245006  53.7735017  65.3099987  66.1215006  54.3945017
  64.1169987  64.8715006  53.1255017  63.8279987  64.1955006  53.9295017
  63.2689987  65.0255006  52.4585017  65.2729987  64.2645006  52.3445017
  64.9109987  63.3855006  51.8115017  65.6339987  65.0005006  51.6265017
  66.4059987  63.8635006  53.2705017  66.9789987  64.7485006  53.5455017
  65.9939987  63.4045006  54.1695017  67.3009987  62.9085006  52.6265017
  67.1389987  61.9345006  52.8405017  68.2959987  63.2195006  51.8045017
  68.5679987  64.4825006  51.4925017  68.0109987  65.2275006  51.8845017
  69.3309987  64.6915006  50.8645017  69.0249987  62.2445006  51.2795017
  68.8169987  61.2835006  51.5085017  69.7849987  62.4675006  50.6525017
  64.7279987  67.2285006  52.6855017  65.8889987  67.4755006  52.3845017
  63.6879987  67.8085006  52.0975017  62.7489987  67.5035006  52.3105017
  63.8679987  68.8305006  51.0675017  64.1729987  68.3085006  50.1605017
  62.5579987  69.5555006  50.7945017  62.2439987  70.0905006  51.6915017
  62.6979987  70.2655006  49.9785017  61.7919987  68.8315006  50.5175017
  64.9699987  69.8385006  51.4115017  65.6219987  70.3625006  50.5125017
  65.1709987  70.1025006  52.7035017  64.5239987  69.7305006  53.3835017
  66.2549987  70.9765006  53.1775017  66.1439987  71.9685006  52.7405017
  66.2199987  71.1075006  54.7085017  66.2149987  70.0955006  55.1135017
  67.1389987  71.6125006  55.0045017  65.0229987  71.8755006  55.2495017
  64.1389987  71.4865006  54.7445017  64.9469987  71.6765006  56.3185017
  65.1199987  73.3775006  55.0185017  66.1519987  73.9895006  55.3975017
  64.1519987  73.9515006  54.4665017  67.6569987  70.5245006  52.7455017
  68.5369987  71.3495006  52.5395017  67.8749987  69.2235006  52.6175017
  67.1849987  68.5495006  52.9175017  69.1649987  68.7295006  52.1455017
  69.8819987  69.5495006  52.1035017  69.7129987  67.6455006  53.0835017
  70.6219987  67.2225006  52.6555017  70.0259987  68.2515006  54.4365017
  69.1169987  68.6735006  54.8645017  70.4149987  67.4795006  55.0995017
  70.7709987  69.0385006  54.3195017  68.7419987  66.6065006  53.2385017
  69.0879987  65.9305006  53.8255017  69.0949987  68.2315006  50.6945017
  69.8959987  67.3865006  50.2785017  68.1329987  68.7665006  49.9385017
  67.4339987  69.3365006  50.3925017  68.0459987  68.5855006  48.4945017
  68.8519987  67.9345006  48.1545017  66.7139987  67.9495006  48.1155017
  65.9699987  68.5955006  48.5815017  66.5829987  67.9665006  47.0335017
  66.5399987  66.5195006  48.6275017  66.7289987  66.5185006  49.7005017
  65.1399987  65.9775006  48.3575017  64.9499987  65.9775006  47.2845017
  65.0639987  64.9595006  48.7385017  64.4029987  66.6075006  48.8565017
  67.6079987  65.6305006  48.0045017  68.5959987  65.9995006  48.2805017
  67.4879987  64.6095006  48.3665017  67.5059987  65.6445006  46.9195017
  68.1489987  69.9615006  47.8735017  67.3589987  70.8345006  48.1955017
  69.1189987  70.1645006  46.9925017  69.7439987  69.4175006  46.7275017
  69.3209987  71.4815006  46.3945017  68.6489987  72.2225006  46.8275017
  70.7649987  71.9785006  46.5495017  70.9469987  72.7695006  45.8225017
  70.9959987  72.5175006  47.9535017  70.8139987  71.7265006  48.6815017
  72.0249987  72.8655006  48.0445017  70.3139987  73.3475006  48.1415017
  71.7599987  70.8735006  46.2265017  71.6139987  70.5415006  45.1985017
  72.7749987  71.2525006  46.3445017  71.6049987  70.0345006  46.9045017
  68.9969987  71.4705006  44.9205017  69.2509987  70.4925006  44.2255017
  68.4319987  72.5695006  44.4465017  68.0769987  73.2775006  45.0735017
  68.3029987  72.7885006  43.0195017  68.5419987  71.8675006  42.4885017
  66.8879987  73.2075006  42.6525017  66.5569987  74.0315006  43.2845017
  66.8499987  73.5135006  41.6075017  65.8869987  72.1205006  42.8135017
  65.8399987  71.0785006  41.9095017  66.5399987  71.0635006  41.0735017
  64.9169987  70.0605006  42.0565017  64.8909987  69.2405006  41.3395017
  64.0249987  70.0825006  43.1155017  63.2929987  69.2835006  43.2335017
  64.0659987  71.1225006  44.0245017  63.3669987  71.1475006  44.8605017
  64.9969987  72.1335006  43.8715017  65.0349987  72.9525006  44.5895017
  69.2729987  73.8805006  42.6375017  69.5429987  74.7755006  43.4365017
  69.8019987  73.8025006  41.4195017  69.6139987  73.0065006  40.8265017
  70.6969987  74.8295006  40.9275017  71.5139987  74.9655006  41.6355017
  71.2839987  74.4535006  39.5735017  72.0659987  75.1705006  39.3225017
  71.7159987  73.4555006  39.6475017  70.2949987  74.4645006  38.5655017
  70.6919987  74.2245006  37.7255017  69.9259987  76.1295006  40.8375017
  68.7039987  76.1365006  40.6835017  70.6589987  77.2265006  40.9355017
  71.6659987  77.1495006  40.9455017  70.0669987  78.5455006  41.0805017
  69.2169987  78.5055006  41.7615017  71.0929987  79.5535006  41.6315017
  71.5589987  79.1185006  42.5155017  72.1769987  79.8925006  40.5955017
  71.7119987  80.3285006  39.7115017  72.8799987  80.6065006  41.0245017
  72.7089987  78.9835006  40.3145017  70.4179987  80.7515006  42.0105017
  71.0549987  81.3825006  42.3545017  69.5199987  79.0375006  39.7435017
  68.5849987  79.8365006  39.6955017  70.1199987  78.5505006  38.6625017
  70.8869987  77.9035006  38.7765017  69.7049987  78.8935006  37.3175017
  68.8109987  79.5165006  37.3445017  70.8149987  79.6665006  36.6275017
  71.7499987  79.1145006  36.7175017  70.5829987  79.8175006  35.5735017
  71.0599987  81.0185006  37.2085017  72.3139987  81.4435006  37.5895017
  72.2339987  82.6785006  38.0525017  73.1239987  83.1995006  38.4045017
  70.9729987  83.0645006  37.9875017  70.6129987  83.9625006  38.2765017
  70.2179987  82.0465006  37.4605017  69.1449987  82.1785006  37.3245017
  69.4229987  77.6545006  36.4895017  69.9419987  76.5765006  36.7595017
  68.5989987  77.8235006  35.4705017  68.0009987  78.6355006  35.4275017
  68.5259987  76.8625006  34.3975017  68.9689987  75.8955006  34.6355017
  67.0839987  76.6455006  33.9825017  66.6289987  77.6035006  33.7315017
  67.0509987  75.9895006  33.1125017  66.5339987  76.1865006  34.8045017
  69.3399987  77.4595006  33.2565017  69.3589987  78.6785006  33.0875017
  70.0179987  76.6145006  32.4845017  70.0269987  75.6275006  32.6975017
  70.8099987  77.0865006  31.3475017  70.6599987  78.1515006  31.1725017
  72.3209987  76.8245006  31.5345017  72.8559987  77.1965006  30.6605017
  72.8329987  77.5305006  32.7805017  72.2979987  77.1595006  33.6545017
  73.8989987  77.3355006  32.8975017  72.6689987  78.6035006  32.6835017
  72.6239987  75.3345006  31.6045017  72.3029987  74.8545006  30.6805017
  73.6959987  75.1865006  31.7365017  72.0909987  74.8935006  32.4465017
  70.3469987  76.4345006  30.0575017  69.8259987  75.3215006  30.0725017
  70.5309987  77.1395006  28.9445017  70.8419987  78.0985006  29.0115017
  70.2429987  76.5945006  27.6165017  69.9429987  75.5505006  27.7105017
  69.1249987  77.3895006  26.8995017  69.3239987  78.4535006  27.0265017
  69.0649987  77.0575006  25.4105017  68.8659987  75.9935006  25.2825017
  68.2679987  77.6345006  24.9405017  70.0179987  77.3075006  24.9435017
  67.7789987  77.0725006  27.5445017  67.5879987  76.0095006  27.3955017
  67.8719987  77.2785006  28.6105017  66.6329987  77.8735006  26.9765017
  66.5389987  77.6685006  25.9105017  65.7089987  77.5955006  27.4825017
  66.8229987  78.9365006  27.1255017  71.5229987  76.5985006  26.7845017
  72.1409987  77.6445006  26.6015017  71.9189987  75.4265006  26.2965017
  71.4529987  74.5775006  26.5815017  73.0719987  75.3185006  25.4065017
  73.0739987  76.1545006  24.7075017  74.3829987  75.3425006  26.2025017
  75.2079987  75.2205006  25.5005017  74.4639987  76.3125006  26.6935017
  74.4359987  74.3145006  27.1765017  75.2689987  74.3655006  27.6505017
  72.9869987  74.0655006  24.5515017  72.1279987  73.2125006  24.7695017
  73.8819987  73.9655006  23.5755017  74.5789987  74.6865006  23.4565017
  73.8509987  72.8665006  22.6145017  72.8189987  72.5775006  22.4135017
  74.5049987  73.2955006  21.2965017  75.4549987  73.7675006  21.5465017
  74.6899987  72.3895006  20.7195017  73.6619987  74.2595006  20.4715017
  73.3129987  75.0565006  21.1275017  74.2919987  74.6835006  19.6895017
  72.2409987  73.4505006  19.7135017  73.0749987  72.4555006  18.4805017
  73.7649987  71.7705006  18.9725017  72.3389987  71.8845006  17.9145017
  73.6289987  73.1045006  17.8025017  74.5319987  71.6095006  23.1525017
  75.6149987  71.6805006  23.7375017  73.8889987  70.4655006  22.9365017
  73.0049987  70.4845006  22.4495017  74.3979987  69.1785006  23.3935017
  75.4589987  69.2645006  23.6295017  73.6519987  68.7205006  24.6505017
  72.6499987  69.1455006  24.5975017  73.5879987  67.6335006  24.6025017
  74.3089987  69.1325006  25.9595017  75.3719987  68.9005006  25.8965017
  74.1789987  70.2075006  26.0835017  73.7009987  68.4065006  27.1535017
  72.7619987  68.8905006  27.4235017  73.5089987  67.3695006  26.8795017
  74.5909987  68.4275006  28.3155017  75.4979987  68.8515006  28.1835017
  74.2909987  67.9285006  29.5145017  73.1109987  67.3525006  29.7415017
  72.4309987  67.2905006  28.9975017  72.9019987  66.9805006  30.6565017
  75.1799987  68.0115006  30.4995017  76.0739987  68.4505006  30.3335017
  74.9569987  67.6345006  31.4095017  74.2349987  68.1325006  22.3025017
  73.1199987  67.7035006  22.0205017  75.3479987  67.7215006  21.6995017
  76.2269987  68.1485006  21.9555017  75.3429987  66.7395006  20.6095017
  76.3189987  66.7205006  20.1255017  75.0359987  65.3295006  21.1535017
  74.4099987  65.4685006  22.0355017  74.4809987  64.7725006  20.3985017
  76.2919987  64.5505006  21.5385017  77.2909987  64.5825006  20.7825017
  76.2679987  63.8775006  22.5915017  74.3609987  67.1275006  19.4925017
  73.6199987  66.2875006  18.9825017  74.3579987  68.4095006  19.1305017
  74.9629987  69.0625006  19.6085017  73.5019987  68.9155006  18.0535017
  74.0049987  69.7925006  17.6465017  73.4659987  68.1335006  17.2955017
  72.0799987  69.2955006  18.4405017  71.3429987  69.8305006  17.6175017
  71.6859987  69.0325006  19.6825017  72.3069987  68.5525006  20.3185017
  70.3599987  69.4045006  20.1595017  69.7359987  69.7085006  19.3195017
  69.6959987  68.2235006  20.8565017  70.3349987  67.9525006  21.6975017
  68.7349987  68.5765006  21.2305017  69.4799987  67.0095006  19.9755017
  70.4539987  66.6015006  19.7055017  68.9199987  66.2665006  20.5435017
  68.7119987  67.3665006  18.7105017  68.1589987  68.2865006  18.9015017
  69.4369987  67.5375006  17.9145017  67.7439987  66.2715006  18.2885017
  66.8699987  66.3425006  18.9355017  67.4499987  66.4755006  17.2585017
  68.3189987  64.8985006  18.3785017  68.5909987  64.7095006  19.3325017
  67.6269987  64.2235006  18.0855017  69.1289987  64.8325006  17.7785017
  70.4429987  70.5655006  21.1295017  71.3449987  70.6275006  21.9605017
  69.4879987  71.4795006  21.0255017  68.8049987  71.4115006  20.2845017
  69.3909987  72.5965006  21.9505017  70.3849987  72.9605006  22.2085017
  68.6089987  73.7345006  21.2965017  69.0139987  73.7725006  20.2855017
  67.5639987  73.4285006  21.2565017  68.7099987  75.1165006  21.9375017
  68.6319987  75.0065006  23.0195017  70.0319987  75.7845006  21.5895017
  70.1099987  75.8945006  20.5075017  70.0779987  76.7675006  22.0585017
  70.8559987  75.1705006  21.9525017  67.5369987  75.9625006  21.4775017
  66.6039987  75.4855006  21.7785017  67.6019987  76.9515006  21.9315017
  67.5609987  76.0585006  20.3925017  68.6729987  72.1105006  23.2045017
  67.5699987  71.5845006  23.1125017  69.2829987  72.2855006  24.3735017
  70.1649987  72.7745006  24.4255017  68.7219987  71.7355006  25.6055017
  67.7229987  71.3385006  25.4225017  69.6089987  70.6075006  26.1055017
  70.6199987  70.9545006  26.3155017  69.1949987  70.1355006  26.9965017
  69.7749987  69.3025006  24.8815017  70.5699987  68.5265006  25.6125017
  68.5499987  72.7545006  26.7215017  69.3919987  73.6335006  26.8965017
  67.4529987  72.6175006  27.4695017  66.7289987  71.9835006  27.1615017
  67.2489987  73.3475006  28.7185017  67.8359987  74.2655006  28.7065017
  65.7809987  73.7105006  28.8995017  65.4999987  74.1435006  27.9395017
  65.1989987  72.8055006  29.0725017  65.4989987  74.7205006  30.0175017
  66.3829987  75.3395006  30.1705017  64.3219987  75.6035006  29.6435017
  63.4369987  74.9855006  29.4905017  64.1319987  76.3165006  30.4465017
  64.5499987  76.1435006  28.7245017  65.2529987  74.0535006  31.3625017
  66.1319987  73.4765006  31.6485017  65.0589987  74.8165006  32.1165017
  64.3919987  73.3895006  31.2875017  67.7019987  72.4485006  29.8585017
  67.2189987  71.3275006  29.9875017  68.6289987  72.9435006  30.6755017
  68.9209987  73.9045006  30.5655017  69.2459987  72.1495006  31.7365017
  68.7299987  71.1945006  31.8325017  70.7119987  71.8815006  31.4135017
  71.1669987  72.8435006  31.1765017  71.1679987  71.4765006  32.3165017
  70.9339987  70.9215006  30.2625017  70.7049987  69.9115006  30.6025017
  70.2609987  71.1915006  29.4485017  72.6319987  70.9755006  29.6695017
  72.6299987  72.5325006  28.7905017  72.3829987  73.3395006  29.4805017
  73.6169987  72.7105006  28.3635017  71.8889987  72.4985006  27.9915017
  69.1899987  72.8595006  33.0745017  69.4629987  74.0575006  33.1665017
  68.8309987  72.1095006  34.1085017  68.3599987  71.2295006  33.9535017
  69.0489987  72.5425006  35.4805017  69.7269987  73.3965006  35.4795017
  67.7429987  72.9545006  36.1715017  67.9639987  73.3185006  37.1745017
  67.2439987  73.7385006  35.6025017  66.7509987  71.8405006  36.3285017
  65.8179987  71.5825006  35.3325017  65.8119987  72.1995006  34.4345017
  64.9029987  70.5555006  35.4715017  64.1769987  70.3595006  34.6825017
  64.9099987  69.7745006  36.6175017  64.1899987  68.9635006  36.7275017
  65.8329987  70.0255006  37.6245017  65.8429987  69.4135006  38.5265017
  66.7419987  71.0575006  37.4795017  67.4619987  71.2655006  38.2715017
  69.7179987  71.3955006  36.2035017  69.6609987  70.2545006  35.7485017
  70.3679987  71.7105006  37.3145017  70.3549987  72.6645006  37.6465017
  71.1389987  70.7335006  38.0595017  71.1399987  69.7775006  37.5355017
  72.5849987  71.2135006  38.2045017  73.0149987  71.2135006  37.2025017
  72.5369987  72.2365006  38.5785017  73.4569987  70.3735006  39.1315017
  72.9199987  70.2245006  40.0685017  73.6329987  69.4085006  38.6575017
  74.7879987  71.0485006  39.4135017  74.6549987  72.1265006  39.3215017
  75.0889987  70.8055006  40.4325017  75.8449987  70.6295006  38.5015017
  75.6499987  69.8575006  37.8805017  77.0429987  71.2015006  38.4455017
  77.3369987  72.2205006  39.2435017  76.6459987  72.5625006  39.8965017
  78.2499987  72.6495006  39.1945017  77.9509987  70.7575006  37.5865017
  77.7289987  69.9845006  36.9765017  78.8609987  71.1945006  37.5465017
  70.5019987  70.5225006  39.4195017  69.9899987  71.4585006  40.0215017
  70.5499987  69.2865006  39.8955017  70.9929987  68.5615006  39.3495017
  69.9699987  68.9255006  41.1785017  69.6609987  69.7985006  41.7525017
  68.7489987  68.0155006  40.9725017  68.0969987  68.4725006  40.2285017
  69.1659987  66.6305006  40.4985017  69.8179987  66.1725006  41.2425017
  68.2799987  66.0105006  40.3615017  69.6989987  66.7155006  39.5515017
  67.9429987  67.9145006  42.2515017  67.5999987  68.9065006  42.5445017
  67.0819987  67.2665006  42.0885017  68.5659987  67.4975006  43.0425017
  71.0139987  68.2055006  42.0155017  71.9219987  67.5935006  41.4705017
  70.8889987  68.2765006  43.3345017  70.1199987  68.7875006  43.7455017
  71.8469987  67.6265006  44.2295017  72.2589987  66.7655006  43.7025017
  72.6429987  68.3415006  44.4355017  71.2499987  67.1615006  45.5415017
  70.1539987  67.5655006  45.9215017  71.9859987  66.3025006  46.2325017
  72.8719987  65.9885006  45.8625017  71.5469987  65.7705006  47.5115017
  70.7329987  66.3765006  47.9095017  71.0459987  64.3325006  47.3355017
  70.1109987  64.3675006  46.7765017  71.7969987  63.7975006  46.7535017
  70.8199987  63.6105006  48.6605017  70.3339987  64.2435006  49.6245017
  71.1239987  62.3975006  48.7305017  72.7229987  65.8195006  48.4685017
  73.7179987  65.1375006  48.2505017  72.5939987  66.6115006  49.5315017
  71.7189987  67.0925006  49.6855017  73.6949987  66.8535006  50.4695017
  74.6199987  67.0335006  49.9215017  73.3909987  68.0775006  51.3285017
  72.4729987  67.8135006  51.8535017  74.1989987  68.1995006  52.0495017
  73.1849987  69.3805006  50.5735017  72.3929987  69.2545006  49.8355017
  72.7929987  70.4715006  51.5545017  73.5849987  70.5985006  52.2925017
  72.6439987  71.4075006  51.0165017  71.8679987  70.1915006  52.0595017
  74.4439987  69.7535006  49.8065017  74.6829987  68.9645006  49.0935017
  74.2799987  70.6885006  49.2715017  75.2729987  69.8755006  50.5045017
  74.0179987  65.6905006  51.4065017  75.0739987  65.6915006  52.0455017
  73.1199987  64.7165006  51.5025017  72.2879987  64.7295006  50.9295017
  73.2959987  63.6165006  52.4385017  73.9399987  63.9295006  53.2605017
  71.9519987  63.1865006  53.0105017  71.2659987  63.0715006  52.1715017
  72.0999987  62.2205006  53.4925017  71.3709987  64.1615006  54.0055017
  72.1819987  64.7655006  54.4125017  70.6629987  64.8065006  53.4855017
  70.6629987  63.4415006  55.1335017  69.6479987  63.1875006  54.8285017
  71.2049987  62.5295006  55.3855017  70.5969987  64.2895006  56.3195017
  71.2479987  64.0875006  57.0645017  69.7489987  65.3015006  56.4755017
  68.8699987  65.6135006  55.5255017  68.8429987  65.0765006  54.6705017
  68.2339987  66.3865006  55.6635017  69.7739987  66.0045006  57.5935017
  70.4349987  65.7695006  58.3195017  69.1319987  66.7745006  57.7165017
  73.9369987  62.4125006  51.7925017  73.8359987  62.2195006  50.5775017
  74.5779987  61.5935006  52.6265017  74.7749987  61.8965006  53.5695017
  75.0679987  60.2825006  52.2035017  75.5489987  60.3745006  51.2295017
  76.0819987  59.7155006  53.1985017  75.8049987  60.0005006  54.2135017
  76.0649987  58.6295006  53.1095017  77.4819987  60.1985006  52.9275017
  78.2479987  59.5435006  52.2225017  77.8209987  61.3645006  53.4635017
  78.7479987  61.7355006  53.3135017  77.1499987  61.8755006  54.0195017
  73.9419987  59.2815006  52.0115017  74.0769987  58.3655006  51.2045017
  72.8459987  59.4425006  52.7545017  72.8329987  60.1315006  53.4925017
  71.6689987  58.5845006  52.5835017  71.9919987  57.5485006  52.4805017
  70.7169987  58.6835006  53.7815017  70.0309987  57.8375006  53.7405017
  71.3119987  58.6235006  54.6935017  69.9759987  59.8945006  53.7785017
  69.3949987  59.9155006  54.5425017  70.9429987  58.9305006  51.2865017
  71.2699987  59.9135006  50.6175017  69.9479987  58.1235006  50.9385017
  69.5919987  57.4365006  51.5875017  69.3829987  58.1635006  49.5965017
  69.9519987  58.8455006  48.9645017  69.4429987  56.7695006  48.9855017
  68.9539987  56.0545006  49.6475017  68.9589987  56.7495006  48.0095017
  70.8349987  56.2785006  48.7805017  71.7559987  56.9705006  48.0275017
  72.8979987  56.3105006  48.0235017  73.7599987  56.6965006  47.4795017
  72.7489987  55.2165006  48.7465017  73.4569987  54.5165006  48.9175017
  71.4679987  55.1765006  49.2365017  71.1519987  54.3465006  49.8685017
  67.9619987  58.6715006  49.5075017  67.2379987  58.7375006  50.5045017
  67.5929987  59.0435006  48.2845017  68.3029987  59.1845006  47.5795017
  66.2129987  59.2765006  47.9235017  65.5859987  59.2885006  48.8145017
  66.0339987  60.5935006  47.1535017  66.6239987  60.5535006  46.2375017
  64.5699987  60.8055006  46.8035017  63.9789987  60.8455006  47.7185017
  64.4579987  61.7425006  46.2585017  64.2209987  59.9805006  46.1825017
  66.5679987  61.7765006  47.9715017  67.6139987  61.5595006  48.1865017
  66.5049987  62.6535006  47.3275017  65.8299987  62.0485006  49.2715017
  65.8929987  61.1715006  49.9165017  66.2829987  62.9025006  49.7755017
  64.7839987  62.2665006  49.0575017  65.7879987  58.0915006  47.0675017
  66.2499987  57.9245006  45.9405017  64.9159987  57.2625006  47.6275017
  64.5339987  57.4985006  48.5325017  64.5139987  56.0055006  47.0165017
  65.2839987  55.5965006  46.3625017  64.1849987  54.9655006  48.0985017
  63.4979987  55.4135006  48.8165017  63.5449987  53.7275006  47.4895017
  64.2319987  53.2785006  46.7715017  63.3229987  53.0075006  48.2775017
  62.6219987  54.0075006  46.9825017  65.4479987  54.6055006  48.8675017
  65.8539987  55.5005006  49.3395017  65.2099987  53.8675006  49.6335017
  66.1859987  54.1905006  48.1815017  63.3099987  56.2205006  46.1125017
  62.4049987  56.9785006  46.4545017  63.3009987  55.5245006  44.9745017
  64.0509987  54.8675006  44.8095017  62.3189987  55.7355006  43.9135017
  62.6289987  55.1885006  43.0235017  60.9199987  55.2465006  44.3285017
  60.7239987  55.6445006  45.3245017  60.2089987  55.6735006  43.6215017
  60.7679987  53.7285006  44.3485017  61.2279987  53.3435006  43.4385017
  61.3089987  53.3505006  45.2165017  59.3119987  53.2685006  44.4165017
  59.0709987  52.0915006  44.7805017  58.4019987  54.0725006  44.1035017
  62.3199987  57.2135006  43.5115017  61.2659987  57.8315006  43.2975017
  63.5239987  57.7715006  43.4165017  64.3519987  57.2315006  43.6225017
  63.6869987  59.1655006  43.0445017  63.1089987  59.8145006  43.7015017
  65.1459987  59.5705006  43.1245017  65.7369987  58.9355006  42.4645017
  65.2519987  60.6105006  42.8175017  65.4989987  59.4575006  44.1495017
  63.1649987  59.3625006  41.6345017  63.2819987  58.4615006  40.8015017
  62.5769987  60.5325006  41.3805017  62.4389987  61.1905006  42.1345017
  62.0869987  60.8905006  40.0475017  62.8119987  60.5655006  39.3015017
  60.7349987  60.2285006  39.7395017  60.7289987  59.9275006  38.6915017
  60.6319987  59.3455006  40.3705017  59.6509987  61.1145006  39.9835017
  58.8239987  60.6715006  39.7815017  61.9389987  62.3965006  39.9135017
  61.5699987  63.0865006  40.8615017  62.1869987  62.8925006  38.7145017
  62.4669987  62.2785006  37.9635017  62.1329987  64.3165006  38.4535017
  61.7899987  64.8835006  39.3185017  63.5169987  64.8425006  38.0085017
  64.2449987  64.5805006  38.7765017  63.9499987  64.2465006  36.6735017
  63.2229987  64.5085006  35.9055017  64.9269987  64.6425006  36.3985017
  64.0099987  63.1615006  36.7615017  63.5299987  66.3755006  37.9495017
  64.3789987  66.6645006  37.3305017  62.6049987  66.6845006  37.4625017
  63.6389987  67.0515006  39.3035017  64.5639987  66.7435006  39.7905017
  63.6409987  68.1335006  39.1705017  62.7899987  66.7635006  39.9235017
  61.0689987  64.5945006  37.4025017  61.0599987  63.9685006  36.3455017
  60.1489987  65.5045006  37.7095017  60.0449987  65.8105006  38.6665017
  59.1999987  66.0175006  36.7045017  59.5439987  65.7295006  35.7115017
  57.7799987  65.4615006  36.9135017  57.1939987  65.7865006  36.0545017
  57.8709987  64.3755006  36.9005017  57.0839987  65.8975006  38.1975017
  57.8249987  65.9685006  38.9945017  56.6279987  66.8745006  38.0375017
  56.0109987  64.8965006  38.5915017  55.3449987  64.7555006  37.7405017
  56.4969987  63.9505006  38.8325017  55.2159987  65.3215006  39.7435017
  55.5689987  65.0525006  40.6505017  54.0749987  66.0165006  39.6835017
  53.5579987  66.4105006  38.5205017  54.0319987  66.1835006  37.6575017
  52.6949987  66.9345006  38.5065017  53.4419987  66.3335006  40.8085017
  53.8259987  66.0485006  41.6985017  52.5799987  66.8585006  40.7685017
  59.1979987  67.5415006  36.7045017  59.5589987  68.1785006  37.6985017
  58.7999987  68.1215006  35.5805017  58.4859987  67.5675006  34.7965017
  58.8659987  69.5625006  35.4225017  58.8499987  70.0305006  36.4065017
  60.1549987  69.9495006  34.7225017  60.1819987  69.4955006  33.7315017
  60.2049987  71.0345006  34.6265017  61.0059987  69.5975006  35.3055017
  57.6609987  70.0815006  34.6575017  57.2529987  69.4995006  33.6605017
  57.1049987  71.1855006  35.1445017  57.5519987  71.6435006  35.9255017
  55.8789987  71.7685006  34.6105017  55.5169987  71.1795006  33.7685017
  54.7959987  71.7825006  35.7025017  55.2559987  72.2335006  36.5815017
  54.0019987  72.4325006  35.3345017  54.2069987  70.4205006  36.0775017
  54.9449987  69.6495006  35.8565017  53.9889987  70.4185006  37.1455017
  52.9269987  70.1375006  35.2965017  52.3149987  71.0385006  35.3335017
  53.2109987  69.9345006  34.2645017  52.1309987  68.9605006  35.8445017
  52.2439987  68.9575006  36.9285017  51.0829987  69.1195006  35.5895017
  52.5819987  67.6525006  35.2955017  53.5529987  67.5045006  35.5325017
  52.0219987  66.9105006  35.6915017  52.4769987  67.6545006  34.2905017
  56.1649987  73.1995006  34.1475017  56.8069987  73.9725006  34.8545017
  55.6999987  73.5485006  32.9565017  55.2499987  72.8665006  32.3625017
  55.8209987  74.9165006  32.4685017  56.6749987  75.3975006  32.9455017
  56.0259987  74.9485006  30.9545017  57.0699987  74.6645006  30.8265017
  55.3849987  74.1805006  30.5205017  55.7709987  76.2835006  30.2505017
  54.7329987  76.5725006  30.4125017  56.6879987  77.3655006  30.7925017
  57.7269987  77.0775006  30.6305017  56.4879987  78.3045006  30.2765017
  56.5089987  77.4925006  31.8605017  55.9659987  76.1225006  28.7565017
  55.2679987  75.3765006  28.3765017  55.7829987  77.0755006  28.2605017
  56.9869987  75.7995006  28.5555017  54.5459987  75.6425006  32.8185017
  53.4569987  75.1855006  32.4715017  54.6899987  76.7835006  33.4805017
  55.6169987  77.1105006  33.7105017  53.5489987  77.5565006  33.9505017
  52.6049987  77.0905006  33.6675017  53.5989987  77.7235006  35.4745017
  54.5229987  78.2325006  35.7475017  52.4069987  78.5425006  35.9535017
  51.4829987  78.0335006  35.6805017  52.4539987  78.6545006  37.0365017
  52.4299987  79.5265006  35.4865017  53.6439987  76.3375006  36.1175017
  52.7549987  75.8035006  35.7815017  54.5339987  75.8385006  35.7325017
  53.6849987  76.3455006  37.6215017  52.7949987  76.8435006  38.0075017
  53.7149987  75.3205006  37.9905017  54.5739987  76.8785006  37.9585017
  53.4829987  78.9225006  33.2705017  54.3099987  79.8075006  33.5185017
  52.4899987  79.0765006  32.4015017  51.9119987  78.2835006  32.1625017
  52.2329987  80.3405006  31.7355017  52.3689987  81.1575006  32.4435017
  53.1879987  80.5505006  30.5575017  53.2539987  81.6285006  30.4065017
  54.1569987  80.1685006  30.8785017  52.7859987  79.8785006  29.2495017
  52.8599987  78.7985006  29.3765017  51.7539987  80.1475006  29.0225017
  53.6839987  80.3155006  28.1095017  54.7209987  80.2755006  28.4425017
  53.5459987  79.6335006  27.2705017  53.3469987  81.7325006  27.6715017
  52.3319987  81.7295006  27.2745017  53.3909987  82.3765006  28.5505017
  54.2829987  82.2435006  26.6355017  54.2419987  81.6475006  25.8215017
  54.0189987  83.1835006  26.3785017  55.2239987  82.2465006  27.0035017
  50.7879987  80.3755006  31.2675017  50.2289987  79.3525006  30.8645017
  50.1989987  81.5655006  31.3175017  50.7229987  82.3645006  31.6445017
  48.8089987  81.7605006  30.9415017  48.1819987  81.0165006  31.4325017
  48.3409987  83.1485006  31.3665017  48.7219987  83.8855006  30.6585017
  47.2509987  83.1735006  31.3645017  48.8169987  83.4515006  32.6645017
  48.5159987  84.3265006  32.9195017  48.6259987  81.6035006  29.4435017
  49.5919987  81.6645006  28.6725017  47.3789987  81.3945006  29.0395017
  46.6349987  81.2895006  29.7135017  47.0609987  81.2335006  27.6335017
  47.6469987  81.9335006  27.0385017  47.3859987  79.8095006  27.1745017
  47.2369987  79.7885006  26.0945017  48.4389987  79.6425006  27.3995017
  46.5489987  78.7155006  27.8235017  46.9519987  78.5185006  28.8165017
  45.5239987  79.0755006  27.9125017  46.5659987  77.4325006  27.0065017
  47.5949987  77.0795006  26.9405017  45.9589987  76.6875006  27.5205017
  46.0149987  77.6555006  25.6045017  45.2599987  78.4395006  25.6555017
  46.8339987  77.9825006  24.9645017  45.4099987  76.4235006  25.0425017
  44.6499987  76.1205006  25.6355017  45.0579987  76.6145006  24.1155017
  46.1099987  75.6965006  24.9945017  45.6099987  81.5705006  27.3335017
  44.8009987  81.7695006  28.2365017  45.3059987  81.6245006  26.0435017
  46.0249987  81.4005006  25.3705017  43.9939987  81.9945006  25.5495017
  43.2559987  81.9445006  26.3495017  44.0479987  83.4315006  25.0225017
  44.9569987  83.8745006  25.4285017  44.1329987  83.3585006  23.9385017
  42.8529987  84.3075006  25.3805017  42.1039987  84.1855006  24.5985017
  42.4369987  83.9845006  26.3345017  43.2159987  85.7895006  25.4825017
  44.1689987  86.1645006  26.1805017  42.4449987  86.6415006  24.8045017
  42.6409987  87.6315006  24.8375017  41.6689987  86.2925006  24.2605017
  43.6259987  81.0205006  24.4325017  44.4189987  80.7825006  23.5265017
  42.4409987  80.4355006  24.5005017  41.8359987  80.5575006  25.3005017
  42.0099987  79.5375006  23.4415017  42.8599987  78.9645006  23.0725017
  40.9159987  78.5495006  23.9185017  40.6929987  77.8555006  23.1085017
  41.3819987  77.7705006  25.1405017  41.6039987  78.4645006  25.9515017
  40.5959987  77.0835006  25.4555017  42.2799987  77.2045006  24.8905017
  39.7099987  79.2485006  24.2405017  39.0449987  78.6215006  24.5335017
  41.5119987  80.3605006  22.2545017  41.1019987  81.5125006  22.4215017
  41.5639987  79.7675006  21.0605017  42.0349987  78.8775006  20.9795017
  40.9689987  80.3535006  19.8505017  41.6039987  81.1595006  19.4815017
  40.8299987  79.2945006  18.7485017  39.9739987  78.6625006  18.9855017
  40.6529987  79.8045006  17.8015017  41.9929987  78.4945006  18.6435017
  41.8729987  77.8445006  17.9475017  39.5869987  80.9235006  20.1355017
  39.2419987  82.0045006  19.6655017  38.8139987  80.1795006  20.9245017
  39.2159987  79.3465006  21.3305017  37.4069987  80.4635006  21.1805017
  36.9239987  80.8055006  20.2645017  36.6889987  79.1955006  21.6705017
  37.1889987  78.8875006  22.5885017  35.6629987  79.4845006  21.8965017
  36.6839987  78.0295006  20.6765017  35.8699987  77.3645006  20.9665017
  36.4779987  78.4475006  19.6905017  37.9909987  77.2435006  20.6325017
  38.8159987  77.3965006  21.5575017  38.1989987  76.4705006  19.6725017
  37.1979987  81.5945006  22.1865017  36.1179987  82.1825006  22.2295017
  38.2129987  81.8835006  23.0015017  39.0489987  81.3165006  22.9845017
  38.1579987  83.0115006  23.9345017  38.7889987  83.7925006  23.5105017
  37.1219987  83.3495006  23.9485017  38.6059987  82.7325006  25.3595017
  38.9769987  83.6535006  26.0805017  38.5879987  81.4705006  25.7755017
  38.3309987  80.7265006  25.1425017  38.8589987  81.1295006  27.1735017
  38.2119987  81.7145006  27.8275017  38.5949987  79.6395006  27.4275017
  37.6419987  79.3945006  26.9595017  39.3929987  79.0805006  26.9395017
  38.5449987  79.2675006  28.9085017  39.5049987  79.5535006  29.3385017
  37.7499987  79.8485006  29.3765017  38.3019987  77.7885006  29.1525017
  37.9419987  77.4285006  30.2965017  38.4849987  76.9865006  28.2085017
  40.2819987  81.4845006  27.6205017  41.2569987  80.9955006  27.0635017
  40.3829987  82.3385006  28.6345017  39.5639987  82.8395006  28.9485017
  41.6529987  82.6015006  29.3025017  42.4709987  82.5315006  28.5855017
  41.6539987  84.0095006  29.9105017  41.6389987  84.7675006  29.1275017
  40.7759987  84.1265006  30.5455017  42.8559987  84.3065006  30.7755017
  44.0559987  84.7185006  30.2055017  44.1249987  84.8225006  29.1225017
  45.1579987  84.9965006  31.0005017  46.0949987  85.3145006  30.5425017
  45.0679987  84.8705006  32.3755017  45.9349987  85.0865006  32.9995017
  43.8769987  84.4695006  32.9585017  43.8029987  84.3725006  34.0415017
  42.7789987  84.1915006  32.1625017  41.8399987  83.8785006  32.6195017
  41.8759987  81.5585006  30.3965017  40.9849987  81.3105006  31.2095017
  43.0699987  80.9625006  30.4145017  43.7429987  81.1985006  29.6995017
  43.4419987  79.9545006  31.4145017  42.6189987  79.7815006  32.1085017
  43.8369987  78.6245006  30.7445017  44.6879987  78.7975006  30.0865017
  44.2119987  77.5875006  31.7985017  43.3609987  77.4135006  32.4565017
  44.4879987  76.6545006  31.3085017  45.0549987  77.9525006  32.3845017
  42.6859987  78.1085006  29.8665017  41.9059987  77.7545006  30.5405017
  42.3139987  78.9595006  29.2965017  43.0759987  76.9935006  28.9135017
  43.4479987  76.1415006  29.4825017  42.2049987  76.6895006  28.3335017
  43.8559987  77.3475006  28.2395017  44.6129987  80.4725006  32.2555017
  45.7409987  80.4895006  31.7815017  44.3469987  80.8955006  33.5035017
  43.0209987  80.7895006  34.1375017  42.7669987  79.7365006  34.2605017
  42.2799987  81.2695006  33.4985017  43.1909987  81.5025006  35.4575017
  42.6219987  80.9815006  36.2275017  42.8269987  82.5255006  35.3675017
  44.6429987  81.4815006  35.7505017  45.0209987  80.5865006  36.2435017
  44.8749987  82.3565006  36.3585017  45.2809987  81.6225006  34.3695017
  45.2179987  82.6575006  34.0325017  46.7569987  81.1855006  34.4105017
  47.6279987  81.9695006  34.0465017  47.0579987  79.9845006  34.8785017
  46.3479987  79.3315006  35.1765017  48.4529987  79.6195006  35.0665017
  49.0909987  80.2575006  34.4545017  48.8489987  79.7955006  36.5325017
  48.0639987  79.2905006  37.0945017  49.8009987  79.2955006  36.7105017
  48.9459987  81.2595006  36.9905017  48.0389987  81.7855006  36.6925017
  49.1009987  81.3345006  38.4985017  50.0079987  80.8095006  38.7975017
  49.1679987  82.3785006  38.8055017  48.2379987  80.8705006  38.9765017
  50.0949987  82.0035006  36.3175017  49.9489987  81.9975006  35.2375017
  50.1209987  83.0335006  36.6745017  51.0379987  81.5125006  36.5585017
  48.6639987  78.2095006  34.5625017  48.9789987  77.2855006  35.3165017
  48.5049987  78.0805006  33.2495017  48.4609987  78.9125006  32.6785017
  48.3289987  76.7895006  32.6015017  47.5309987  76.2325006  33.0925017
  47.9569987  76.9835006  31.1345017  47.2499987  77.8095006  31.0615017
  48.8549987  77.2235006  30.5655017  47.3229987  75.7535006  30.5375017
  46.4119987  75.1715006  31.1235017  47.8039987  75.3425006  29.3705017
  47.4139987  74.5225006  28.9275017  48.5579987  75.8515006  28.9315017
  49.5519987  75.8915006  32.6935017  50.6309987  76.2545006  32.2265017
  49.3689987  74.7135006  33.2815017  48.4619987  74.4705006  33.6525017
  50.4599987  73.7675006  33.4545017  51.4109987  74.2975006  33.5005017
  50.2729987  72.9905006  34.7515017  49.2319987  72.6675006  34.7895017
  50.9219987  72.1165006  34.7025017  50.5979987  73.7905006  35.9945017
  51.6769987  73.9335006  36.0465017  50.1059987  74.7615006  35.9355017
  50.1409987  73.0925006  37.2585017  50.1239987  71.8595006  37.3285017
  49.7599987  73.8775006  38.2665017  49.4459987  73.4645006  39.1335017
  49.7869987  74.8815006  38.1585017  50.5629987  72.7965006  32.2795017
  49.6209987  72.0645006  31.9795017  51.7159987  72.8015006  31.6165017
  52.4029987  73.5145006  31.8195017  52.0199987  71.8255006  30.5825017
  51.1969987  71.1165006  30.4965017  52.2219987  72.5115006  29.2195017
  52.1719987  71.7585006  28.4325017  51.1469987  73.5585006  28.9865017
  51.1969987  74.3115006  29.7725017  51.3049987  74.0335006  28.0185017
  50.1659987  73.0825006  29.0015017  53.4999987  73.1505006  29.1785017
  53.6179987  73.5755006  28.3255017  53.2869987  71.0755006  30.9925017
  54.3329987  71.6925006  31.1965017  53.1939987  69.7545006  31.1315017
  52.3049987  69.2905006  31.0065017  54.3449987  68.9495006  31.5385017
  54.7199987  69.3045006  32.4985017  53.9509987  67.4665006  31.6825017
  52.9599987  67.4065006  32.1335017  53.9139987  67.0635006  30.6705017
  54.9499987  66.6475006  32.5265017  55.3609987  67.0815006  33.6295017
  55.3029987  65.5325006  32.0885017  55.4959987  69.1235006  30.5325017
  55.2819987  69.0775006  29.3185017  56.6959987  69.3765006  31.0635017
  56.7439987  69.5495006  32.0575017  57.9419987  69.3965006  30.2945017
  57.7359987  69.6505006  29.2545017  58.9569987  70.4005006  30.8775017
  59.1629987  70.1335006  31.9145017  60.2519987  70.3755006  30.0815017
  60.0469987  70.6425006  29.0445017  60.9549987  71.0905006  30.5085017
  60.6829987  69.3755006  30.1195017  58.3819987  71.8135006  30.8875017
  58.3469987  72.1605006  29.8545017  57.3679987  71.7525006  31.2835017
  59.1929987  72.7875006  31.7215017  60.2069987  72.8495006  31.3255017
  58.7279987  73.7725006  31.6845017  59.2279987  72.4415006  32.7545017
  58.5789987  68.0015006  30.3455017  58.7239987  67.4005006  31.4135017
  58.9709987  67.4945006  29.1875017  58.8509987  68.0115006  28.3285017
  59.5609987  66.1785006  29.1175017  58.9489987  65.4645006  29.6685017
  59.6499987  65.7235006  27.6635017  58.6809987  65.8715006  27.1865017
  60.4019987  66.3265006  27.1545017  60.0329987  64.2665006  27.5365017
  60.4489987  63.6345006  28.5045017  59.8919987  63.7195006  26.3385017
  60.1329987  62.7485006  26.1985017  59.5439987  64.2755006  25.5705017
  60.9459987  66.2005006  29.7345017  61.7689987  67.0265006  29.3535017
  61.2019987  65.3105006  30.6915017  60.4489987  64.7735006  31.0975017
  62.5469987  65.1625006  31.2605017  63.3099987  65.4845006  30.5525017
  62.7139987  65.9705006  32.5675017  63.6659987  65.7065006  33.0275017
  62.6879987  67.4635006  32.2795017  61.7359987  67.7285006  31.8195017
  62.8069987  68.0155006  33.2115017  63.5019987  67.7175006  31.6005017
  61.6299987  65.6095006  33.5675017  61.6909987  64.5465006  33.8015017
  61.7679987  66.1905006  34.4795017  60.6519987  65.8315006  33.1405017
  62.9289987  63.6935006  31.4835017  63.6499987  63.3625006  32.4265017
  62.4549987  62.8245006  30.5925017  61.7859987  63.1455006  29.9075017
  62.8619987  61.4155006  30.5595017  63.4529987  61.2825006  29.6535017
  63.4949987  61.2525006  31.4315017  61.7349987  60.3965006  30.5695017
  61.9999987  59.2015006  30.7065017  60.4949987  60.8555006  30.3965017
  60.3749987  61.8115006  30.0935017  59.2919987  60.0575006  30.6825017
  59.2929987  59.7275006  31.7215017  58.0459987  60.9175006  30.4425017
  58.2219987  61.9005006  30.8795017  58.0019987  61.0055006  29.3565017
  56.7289987  60.3615006  30.9595017  56.6019987  59.8875006  32.2685017
  57.4779987  59.9015006  32.9175017  55.3869987  59.4035006  32.7485017
  55.3099987  59.0235006  33.7675017  54.2689987  59.4085006  31.9225017
  53.0599987  58.9325006  32.3925017  53.1059987  58.6235006  33.3005017
  54.3709987  59.8905006  30.6265017  53.4969987  59.8955006  29.9755017
  55.5889987  60.3675006  30.1575017  55.6669987  60.7575006  29.1425017
  59.1909987  58.7755006  29.8625017  58.7789987  57.7375006  30.3775017
  59.5809987  58.8455006  28.5965017  59.9419987  59.7105006  28.2205017
  59.3999987  57.7165006  27.6855017  58.5259987  57.1345006  27.9765017
  59.1909987  58.2325006  26.2595017  60.1199987  58.6705006  25.8945017
  58.9319987  57.3685006  25.6475017  58.0879987  59.2545006  26.1775017
  56.7589987  58.8785006  26.3015017  56.5209987  57.8245006  26.4475017
  55.7419987  59.8165006  26.2425017  54.7019987  59.5025006  26.3325017
  56.0489987  61.1565006  26.0695017  55.0509987  62.1055006  26.0135017
  54.1719987  61.7315006  26.1055017  57.3639987  61.5515006  25.9505017
  57.6119987  62.6035006  25.8105017  58.3739987  60.6025006  26.0095017
  59.4159987  60.9095006  25.9235017  60.5449987  56.6955006  27.7435017
  60.4139987  55.5745006  27.2665017  61.6679987  57.0805006  28.3315017
  61.7639987  58.0225006  28.6835017  62.7949987  56.1735006  28.4735017
  62.6189987  55.2735006  27.8845017  64.0739987  56.8435006  27.9705017
  64.8919987  56.1235006  28.0075017  63.8889987  57.3255006  26.5445017
  63.0719987  58.0455006  26.5065017  64.8069987  57.8005006  26.1985017
  63.6549987  56.4775006  25.9015017  64.3739987  57.9655006  28.8035017
  65.1769987  58.3895006  28.4915017  63.0109987  55.7495006  29.9225017
  63.8249987  54.8705006  30.1945017  62.2849987  56.3685006  30.8495017
  61.5699987  57.0275006  30.5755017  62.4909987  56.1225006  32.2735017
  61.6559987  56.5535006  32.8255017  62.5199987  55.0455006  32.4405017
  63.7859987  56.7355006  32.7785017  64.3199987  56.3135006  33.8055017
  64.2899987  57.7315006  32.0565017  63.8879987  57.9585006  31.1585017
  65.4659987  58.4715006  32.4935017  66.0999987  57.8265006  33.1015017
  66.2799987  58.9635006  31.2895017  65.5709987  59.3105006  30.5375017
  66.9039987  59.7965006  31.6115017  67.1609987  57.8695006  30.6915017
  68.1459987  57.4805006  31.3555017  66.8819987  57.4085006  29.5595017
  65.0459987  59.6335006  33.3865017  65.8839987  60.3975006  33.8585017
  63.7449987  59.7665006  33.6125017  63.0739987  59.2915006  33.0265017
  63.2459987  60.6645006  34.6445017  63.8959987  61.5375006  34.7095017
  61.8209987  61.1365006  34.3325017  61.5319987  61.8055006  35.1435017
  61.8369987  61.6895006  33.3935017  60.8179987  59.9995006  34.2325017
  61.2299987  58.8335006  34.0355017  59.6049987  60.3005006  34.3305017
  63.3119987  60.0125006  36.0205017  63.1639987  60.6865006  37.0355017
  63.5289987  58.7025006  36.0545017  63.4899987  58.1595006  35.2035017
  63.7899987  58.0065006  37.3065017  63.2209987  58.4735006  38.1105017
  63.3809987  56.5405006  37.2085017  64.0179987  56.0755006  36.4555017
  63.5729987  56.0835006  38.1795017  61.9179987  56.3365006  36.8325017
  61.3059987  56.6995006  37.6575017  61.7139987  56.9305006  35.9415017
  61.5839987  54.8765006  36.5565017  61.6599987  54.3155006  37.4875017
  60.5639987  54.8135006  36.1765017  62.4859987  54.2795006  35.5755017
  63.1769987  54.8875006  35.1605017  62.4609987  53.0025006  35.2055017
  61.5589987  52.1625006  35.7035017  60.8799987  52.4945006  36.3735017
  61.5569987  51.1965006  35.4095017  63.3449987  52.5665006  34.3195017
  64.0269987  53.2045006  33.9345017  63.3329987  51.5985006  34.0335017
  65.2759987  58.1345006  37.6205017  66.1239987  57.5895006  36.9165017
  65.5829987  58.8725006  38.6795017  64.8459987  59.2305006  39.2705017
  66.9539987  59.2155006  39.0055017  67.5679987  59.2095006  38.1055017
  67.0009987  60.6105006  39.6185017  66.3959987  60.5245006  40.5205017
  68.0339987  60.8255006  39.8935017  66.4619987  61.7395006  38.7515017
  65.4159987  61.5475006  38.5105017  66.5749987  63.0525006  39.5085017
  67.6209987  63.2445006  39.7495017  66.1899987  63.8635006  38.8905017
  65.9959987  62.9925006  40.4295017  67.2059987  61.8105006  37.4285017
  67.0849987  60.8695006  36.8925017  66.8019987  62.6255006  36.8275017
  68.2649987  61.9885006  37.6155017  67.6109987  58.2365006  39.9755017
  66.9639987  57.7065006  40.8865017  68.9029987  57.9965006  39.7385017
  69.2589987  58.2165006  38.8195017  69.8269987  57.4425006  40.7245017
  69.2679987  57.0695006  41.5825017  70.6289987  56.2875006  40.1235017
  69.9879987  55.4295006  39.9195017  71.0859987  56.6285006  39.1945017
  71.7529987  55.7885006  40.9995017  71.4939987  55.2735006  42.2635017
  70.4659987  55.2455006  42.6245017  72.5209987  54.7995006  43.0615017
  72.3039987  54.4035006  44.0535017  73.8239987  54.8295006  42.5985017
  74.6349987  54.4565006  43.2245017  74.0979987  55.3345006  41.3385017
  75.1239987  55.3625006  40.9725017  73.0669987  55.8045006  40.5445017
  73.2799987  56.1935006  39.5485017  70.7359987  58.6005006  41.0985017
  71.6739987  58.9255006  40.3765017  70.4279987  59.2425006  42.2165017
  69.7719987  58.8305006  42.8645017  70.9889987  60.5445006  42.5385017
  71.5319987  60.9495006  41.6845017  69.8519987  61.4995006  42.8915017
  69.2669987  61.5465006  41.9735017  69.2629987  61.0185006  43.6725017
  70.2209987  62.9085006  43.3305017  70.9079987  62.8535006  44.1755017
  70.8839987  63.6485006  42.1895017  70.1979987  63.7045006  41.3445017
  71.1449987  64.6565006  42.5125017  71.7879987  63.1185006  41.8885017
  68.9829987  63.6475006  43.8055017  68.5419987  63.1145006  44.6475017
  69.2579987  64.6555006  44.1175017  68.2589987  63.7045006  42.9925017
  71.9569987  60.4435006  43.7005017  71.5459987  60.4995006  44.8625017
  73.2409987  60.2865006  43.3965017  73.5219987  60.0575006  42.4535017
  74.2709987  60.3365006  44.4335017  73.8169987  60.3665006  45.4235017
  75.2259987  59.1305006  44.3665017  75.6999987  59.1065006  43.3855017
  76.2969987  59.2415006  45.4445017  75.8239987  59.2655006  46.4265017
  76.9639987  58.3815006  45.3845017  76.8699987  60.1565006  45.2955017
  74.4419987  57.8395006  44.5275017  73.7059987  57.7585006  43.7285017
  75.1239987  56.9905006  44.4795017  73.9329987  57.8405006  45.4915017
  75.0169987  61.6645006  44.3285017  74.7709987  62.5925006  45.1125017
  75.9119987  61.7585006  43.3475017  76.1859987  60.9375006  42.8265017
  76.5449987  63.0235006  43.0215017  76.7749987  63.5565006  43.9445017
  77.8489987  62.8225006  42.2325017  78.4759987  63.7015006  42.3795017
  78.3569987  61.9435006  42.6305017  77.6069987  62.6415006  40.8475017
  78.4419987  62.5195006  40.3905017  75.5309987  63.8245006  42.2115017
  74.6159987  63.2445006  41.6265017  75.6859987  65.1535006  42.1765017
  76.7129987  65.9225006  42.9045017  77.6919987  65.7185006  42.4715017
  76.7109987  65.6265006  43.9535017  76.2849987  67.3405006  42.7125017
  77.1569987  67.9935006  42.6785017  75.6329987  67.6485006  43.5295017
  75.5519987  67.3455006  41.4175017  76.2449987  67.3665006  40.5765017
  74.8529987  68.1775006  41.3325017  74.7899987  66.0255006  41.4285017
  73.8539987  66.0705006  41.9855017  74.5079987  65.5695006  39.9925017
  75.4109987  65.0535006  39.3305017  73.2639987  65.7575006  39.5375017
  72.5789987  66.1445006  40.1705017  72.8449987  65.4425006  38.1695017
  73.6849987  65.0195006  37.6195017  71.7019987  64.4335006  38.1655017
  70.9389987  64.9265006  38.7675017  71.3519987  64.3455006  37.1365017
  71.9749987  63.0385006  38.7315017  72.3379987  63.1285006  39.7555017
  70.6939987  62.2205006  38.7185017  70.3299987  62.1295006  37.6945017
  70.8919987  61.2275006  39.1225017  69.9389987  62.7165006  39.3285017
  73.0719987  62.3135006  37.9635017  73.9959987  62.8885006  38.0185017
  73.2319987  61.3275006  38.4005017  72.7749987  62.2045006  36.9205017
  72.3579987  66.6915006  37.4555017  71.6819987  67.5235006  38.0525017
  72.6969987  66.8005006  36.1705017  73.3379987  66.1265006  35.7765017
  72.1609987  67.8425006  35.2945017  71.8389987  68.6905006  35.8985017
  73.1899987  68.3165006  34.2515017  73.6069987  67.4475006  33.7425017
  72.5259987  69.2325006  33.2305017  72.1089987  70.1015006  33.7385017
  73.2659987  69.5595006  32.4995017  71.7279987  68.6925006  32.7215017
  74.3499987  69.0545006  34.9285017  73.9819987  70.0415006  35.2075017
  74.6029987  68.4945006  35.8285017  75.5869987  69.2025006  34.0595017
  75.3339987  69.7625006  33.1595017  76.3589987  69.7355006  34.6135017
  75.9559987  68.2155006  33.7805017  70.9709987  67.2605006  34.5465017
  71.1489987  66.4325006  33.6605017  69.7649987  67.7015006  34.8935017
  69.6699987  68.3795006  35.6365017  68.5509987  67.2235006  34.2305017
  68.6319987  66.1645006  33.9865017  67.2779987  67.4615006  35.0785017
  67.0929987  68.5335006  35.1425017  66.0709987  66.7735006  34.4475017
  66.2549987  65.7015006  34.3845017  65.1879987  66.9545006  35.0605017
  65.9059987  67.1735006  33.4465017  67.4789987  66.9935006  36.5315017
  68.1059987  67.7425006  37.0165017  66.4929987  66.9895006  36.9965017
  68.1159987  65.6255006  36.6845017  69.1019987  65.6295006  36.2195017
  68.2149987  65.3865006  37.7435017  67.4899987  64.8765006  36.2005017
  68.4229987  67.9695006  32.9155017  68.4809987  69.2015006  32.8905017
  68.2509987  67.2145006  31.8325017  68.1899987  66.2115006  31.9345017
  68.2089987  67.7795006  30.4805017  68.3959987  68.8525006  30.5235017
  69.2789987  67.1295006  29.5905017  70.2529987  67.2765006  30.0575017
  69.0679987  66.0625006  29.5205017  69.2879987  67.6955006  28.2915017
  69.9649987  67.2695006  27.7615017  66.8319987  67.6255006  29.8305017
  66.2839987  66.5295006  29.7345017  66.2759987  68.7445006  29.3975017
  66.6889987  69.6355006  29.6345017  65.0769987  68.7375006  28.5905017
  64.6239987  67.7465006  28.6205017  64.0589987  69.7555006  29.1065017
  63.5019987  69.3505006  29.9515017  64.5749987  70.6645006  29.4145017
  63.0469987  70.1635006  28.0825017  62.0719987  69.3055006  27.6175017
  61.3289987  69.9315006  26.7225017  60.4979987  69.4215006  26.2345017
  61.7879987  71.1625006  26.5905017  61.4129987  71.8725006  25.9775017
  62.8659987  71.3315006  27.4255017  63.3889987  72.2875006  27.4535017
  65.5129987  69.0875006  27.1835017  65.9399987  70.2125006  26.9235017
  65.4229987  68.1135006  26.2865017  65.1569987  67.1835006  26.5775017
  65.7319987  68.3345006  24.8855017  66.6649987  68.8905006  24.7925017
  65.8869987  66.9945006  24.1645017  66.6499987  66.4325006  24.7035017
  64.9299987  66.4785006  24.2465017  66.2789987  67.1045006  22.6995017
  65.5249987  67.7145006  22.2015017  67.2459987  67.6055006  22.6435017
  66.3689987  65.7535006  22.0145017  67.1219987  64.8795006  22.5085017
  65.6879987  65.5745006  20.9765017  64.6129987  69.1615006  24.2585017
  63.4489987  68.7555006  24.2825017  64.9749987  70.3205006  23.7095017
  65.9439987  70.6045006  23.7505017  64.0139987  71.2265006  23.0875017
  63.0499987  71.1325006  23.5865017  64.4749987  72.6935006  23.1355017
  65.3889987  72.8015006  22.5505017  63.3939987  73.6015006  22.5605017
  62.4799987  73.4945006  23.1455017  63.7309987  74.6375006  22.5995017
  63.1969987  73.3225006  21.5255017  64.8019987  73.1135006  24.5705017
  63.8819987  73.0285006  25.1495017  65.5379987  72.4075006  24.9535017
  65.3449987  74.5235006  24.6905017  64.6089987  75.2305006  24.3085017
  65.5519987  74.7455006  25.7375017  66.2649987  74.6095006  24.1125017
  63.7769987  70.8155006  21.6395017  64.4209987  71.3245006  20.7215017
  62.8339987  69.8935006  21.4645017  62.3609987  69.5425006  22.2845017
  62.4739987  69.3335006  20.1655017  63.2209987  69.5955006  19.4155017
  62.4109987  67.8085006  20.2815017  62.1459987  67.3985006  19.3065017
  63.3909987  67.4355006  20.5775017  61.3859987  67.3405006  21.2995017
  60.4899987  68.0855006  21.7025017  61.5189987  66.0965006  21.7255017
  60.8679987  65.7255006  22.4035017  62.2709987  65.5225006  21.3715017
  61.1359987  69.8825006  19.6695017  60.5409987  70.7425006  20.3145017
  60.6609987  69.3755006  18.5315017  61.2419987  68.7465006  17.9955017
  59.3549987  69.7595006  17.9785017  59.3999987  70.7755006  17.5865017
  58.9659987  68.8095006  16.8365017  59.8119987  68.7635006  16.1505017
  58.8009987  67.8255006  17.2755017  57.7189987  69.2415006  16.0765017
  56.8689987  69.1555006  16.7535017  57.8349987  70.2815006  15.7695017
  57.4439987  68.3995006  14.8435017  58.3659987  67.9335006  14.1705017
  56.1619987  68.2105006  14.5305017  55.9189987  67.6585006  13.7205017
  55.4389987  68.6205006  15.1055017  58.2349987  69.8075006  19.0315017
  57.3929987  70.7035006  19.0145017  58.2469987  68.8515006  19.9545017
  58.9809987  68.1575006  19.9395017  57.2009987  68.7295006  20.9635017
  56.2399987  69.0255006  20.5435017  57.0999987  67.2745006  21.4415017
  58.1189987  66.9275006  21.6135017  56.5579987  67.2905006  22.3865017
  56.3979987  66.3285006  20.4675017  56.2559987  65.3655006  20.9585017
  55.4259987  66.7595006  20.2265017  57.1669987  66.1045006  19.1695017
  58.3779987  65.8735006  19.1755017  56.4569987  66.1625006  18.0465017
  56.9129987  66.0215006  17.1565017  55.4649987  66.3465006  18.0885017
  57.4289987  69.6475006  22.1595017  56.5959987  69.7065006  23.0515017
  58.5489987  70.3585006  22.1915017  59.2189987  70.2845006  21.4395017
  58.8679987  71.2335006  23.3235017  58.6359987  70.7295006  24.2615017
  60.3599987  71.5845006  23.3115017  60.9279987  70.6545006  23.3305017
  60.5759987  72.1225006  22.3885017  60.7279987  72.3865006  24.4235017
  61.6659987  72.5835006  24.3795017  58.0439987  72.5285006  23.3055017
  57.6889987  73.0195006  22.2305017  57.7339987  73.0825006  24.4975017
  57.6689987  72.3905006  25.7955017  58.6359987  72.4545006  26.2945017
  57.4089987  71.3435006  25.6405017  56.5989987  73.1425006  26.5185017
  56.7749987  73.0885006  27.5925017  55.6259987  72.7075006  26.2885017
  56.6849987  74.5395006  26.0245017  57.3999987  75.1015006  26.6255017
  55.7169987  75.0395006  26.0505017  57.1829987  74.4415006  24.5815017
  56.3799987  74.5095006  23.8475017  58.2089987  75.5485006  24.3195017
  57.8449987  76.7175006  24.2805017  59.4779987  75.1905006  24.1645017
  59.7549987  74.2345006  24.3365017  60.5119987  76.1575006  23.8115017
  60.1359987  77.1735006  23.9335017  61.7229987  75.9705006  24.7295017
  62.1919987  74.9945006  24.6025017  62.4479987  76.7535006  24.5065017
  61.3889987  76.0985006  26.1785017  61.4299987  77.3305006  26.8035017
  61.7309987  78.2075006  26.2305017  61.0959987  77.4585006  28.1365017
  61.1419987  78.4335006  28.6225017  60.7019987  76.3445006  28.8565017
  60.4339987  76.4385006  29.9085017  60.6489987  75.1095006  28.2375017
  60.3429987  74.2275006  28.8005017  60.9849987  74.9945006  26.9045017
  60.9339987  74.0235006  26.4115017  60.9119987  76.0225006  22.3405017
  61.9389987  76.5585006  21.9125017  60.0859987  75.3265006  21.5645017
  59.2439987  74.9245006  21.9505017  60.3949987  75.0705006  20.1675017
  61.3539987  74.5585006  20.0865017  59.3169987  74.1885006  19.5425017
  59.2229987  73.2655006  20.1145017  58.3619987  74.7135006  19.5405017
  59.5899987  73.7875006  18.1225017  58.8009987  74.0375006  17.0365017
  57.8779987  74.5895006  17.2175017  59.3709987  73.5145006  15.9045017
  58.9809987  73.5615006  14.9745017  60.5529987  72.9115006  16.2415017
  61.4819987  72.2405006  15.4405017  61.2819987  72.1565006  14.3725017
  62.5949987  71.7265006  16.0555017  63.3409987  71.1995006  15.4615017
  62.7979987  71.8635006  17.4385017  63.6849987  71.4515006  17.9195017
  61.8719987  72.5295006  18.2355017  62.0769987  72.6145006  19.3025017
  60.7259987  73.0625006  17.6345017  60.5399987  76.3705006  19.3805017
  61.4829987  76.5185006  18.6005017  59.6249987  77.3125006  19.6075017
  58.8709987  77.1315006  20.2545017  59.6309987  78.5895006  18.8855017
  60.2799987  78.5235006  18.0125017  58.2109987  78.9285006  18.4155017
  57.5699987  78.9245006  19.2975017  58.2419987  79.9335006  17.9935017
  57.6539987  77.9605006  17.3795017  58.4919987  77.4755006  16.8805017
  57.0779987  77.2155006  17.9275017  56.7619987  78.6285006  16.3405017
  56.9969987  79.8095006  15.9915017  55.8289987  77.9595006  15.8535017
  60.1999987  79.7715006  19.6865017  59.8599987  80.9215006  19.4135017
  61.0749987  79.4985006  20.6545017  61.3109987  78.5395006  20.8675017
  61.6639987  80.5565006  21.4745017  61.2289987  81.5195006  21.2065017
  61.4519987  80.2985006  22.9795017  61.7989987  79.2925006  23.2185017
  62.2289987  81.3165006  23.8145017  61.8829987  82.3225006  23.5765017
  62.0669987  81.1175006  24.8735017  63.2919987  81.2365006  23.5895017
  59.9599987  80.3665006  23.3105017  59.6129987  81.3575006  23.0185017
  59.4629987  79.6135006  22.6995017  59.6339987  80.1275006  24.7685017
  60.1309987  80.8805006  25.3805017  58.5559987  80.1935006  24.9155017
  59.9799987  79.1365006  25.0605017  63.1519987  80.7095006  21.1785017
  63.9419987  79.7895006  21.4005017  63.5179987  81.8835006  20.6785017
  62.8079987  82.5715006  20.4745017  64.9079987  82.2235006  20.4055017
  65.4849987  81.3195006  20.2115017  64.9859987  83.1265006  19.1755017
  66.0329987  83.3545006  18.9765017  64.5619987  82.5935006  18.3245017
  64.2699987  84.3335006  19.3815017  64.3339987  84.8815006  18.5965017
  65.5079987  82.9495006  21.6015017  64.7799987  83.3915006  22.4895017
  66.8339987  83.0805006  21.6105017  67.3879987  82.6075006  20.9105017
  67.5299987  83.8845006  22.6225017  67.4619987  83.3925006  23.5925017
  69.0069987  84.0505006  22.2605017  69.4129987  83.0535006  22.0895017
  69.0519987  84.6245006  21.3345017  69.8269987  84.7555006  23.3355017
  69.4009987  85.7465006  23.4935017  69.7509987  84.1765006  24.2565017
  71.2869987  84.8895006  22.9415017  71.6209987  83.9525006  22.4955017
  71.3849987  85.6935006  22.2125017  72.1399987  85.2035006  24.1575017
  71.7339987  86.0875006  24.6485017  72.0959987  84.3565006  24.8415017
  73.5519987  85.4555006  23.7725017  73.5929987  86.2405006  23.1385017
  74.0949987  85.6615006  24.5995017  73.9279987  84.6355006  23.3175017
  66.8999987  85.2705006  22.7495017  66.7429987  85.7985006  23.8565017
  66.5549987  85.8465006  21.5985017  66.7699987  85.3665006  20.7365017
  65.9299987  87.1605006  21.5205017  66.6009987  87.8895006  21.9755017
  65.7129987  87.5415006  20.0635017  65.0359987  86.8255006  19.5975017
  65.2789987  88.5395006  20.0095017  66.6679987  87.5325006  19.5385017
  64.6069987  87.2175006  22.2715017  64.3969987  88.1125006  23.0875017
  63.7269987  86.2575006  21.9925017  63.9819987  85.5305006  21.3395017
  62.3639987  86.2515006  22.5445017  61.9379987  87.2535006  22.4915017
  61.4709987  85.2975006  21.7475017  62.0129987  84.3575006  21.6435017
  60.5679987  85.1325006  22.3355017  61.0909987  85.8165006  20.3725017
  60.3379987  86.5945006  20.4985017  61.9739987  86.2395006  19.8935017
  60.5229987  84.7335006  19.4725017  61.0889987  83.6445006  19.3575017
  59.4049987  85.0305006  18.8185017  58.9849987  84.3455006  18.2065017
  58.9809987  85.9395006  18.9365017  62.2859987  85.8855006  24.0285017
  61.3599987  86.3125006  24.7175017  63.2529987  85.1095006  24.5145017
  64.0289987  84.8525006  23.9215017  63.1749987  84.5165006  25.8505017
  62.3759987  83.7755006  25.8745017  64.4969987  83.8265006  26.2265017
  64.6119987  83.0585006  25.4615017  65.3029987  84.5545006  26.1335017
  64.5519987  83.1775006  27.6135017  64.4769987  83.9585006  28.3705017
  63.4119987  82.1865006  27.7935017  63.4869987  81.4045006  27.0375017
  63.4719987  81.7385006  28.7855017  62.4589987  82.7045006  27.6865017
  65.8919987  82.4975006  27.8355017  66.6909987  83.2345006  27.7605017
  65.9099987  82.0435006  28.8265017  66.0379987  81.7255006  27.0795017
  62.7589987  85.5035006  26.9425017  61.7699987  85.2715006  27.6355017
  63.4929987  86.6195006  27.0865017  64.4739987  87.2085006  26.1645017
  63.9599987  87.7565006  25.3745017  65.0859987  86.4235006  25.7215017
  65.2599987  88.1035006  27.0655017  65.6639987  88.9345006  26.4875017
  66.0789987  87.5395006  27.5115017  64.3069987  88.5815006  28.1155017
  63.8759987  89.5325006  27.8035017  64.7909987  88.7025006  29.0845017
  63.2059987  87.5155006  28.2095017  63.2669987  86.9255006  29.1235017
  61.8349987  88.1755006  28.1215017  61.2729987  88.5395006  29.1555017
  61.3179987  88.3195006  26.8955017  61.8859987  88.0585006  26.1025017
  59.9969987  88.9155006  26.6415017  59.7859987  89.6825006  27.3865017
  59.9629987  89.5625006  25.2485017  60.7649987  90.2955006  25.1685017
  60.0959987  88.7945006  24.4865017  58.6199987  90.2545006  25.0425017
  57.8169987  89.5215006  25.1225017  58.4859987  91.0235006  25.8035017
  58.5859987  90.8965006  23.6595017  59.3879987  91.6305006  23.5785017
  58.7199987  90.1285006  22.8985017  57.2419987  91.5875006  23.4535017
  56.4399987  90.8545006  23.5325017  57.1069987  92.3555006  24.2145017
  57.2099987  92.2075006  22.1205017  57.3349987  91.4955006  21.4155017
  56.3199987  92.6655006  21.9835017  57.9529987  92.8875006  22.0475017
  58.8379987  87.9085006  26.7875017  57.6669987  88.2795006  26.6495017
  59.1639987  86.6455006  27.0605017  60.1319987  86.3585006  27.0405017
  58.1499987  85.6425006  27.3815017  57.2569987  85.8235006  26.7835017
  58.6589987  84.2265006  27.0855017  59.5449987  84.3265006  26.4595017
  58.9369987  83.7775006  28.0395017  57.6429987  83.3395006  26.3865017
  58.0089987  82.3135006  26.4235017  56.7089987  83.4125006  26.9435017
  57.4019987  83.7405006  24.9355017  58.3799987  84.0195006  24.2065017
  56.2269987  83.7705006  24.5165017  57.8189987  85.7795006  28.8595017
  58.6849987  86.1345006  29.6605017  56.5709987  85.5035006  29.2155017
  55.8899987  85.2585006  28.5115017  56.1289987  85.5975006  30.6025017
  56.9239987  86.0185006  31.2185017  54.8939987  86.5065006  30.7065017
  55.1469987  87.5055006  30.3525017  54.0889987  86.0985006  30.0955017
  54.4439987  86.5815006  32.1455017  54.1909987  85.5825006  32.4995017
  55.2479987  86.9905006  32.7575017  53.2169987  87.4835006  32.2485017
  52.0879987  86.9375006  32.1235017  53.4189987  88.7105006  32.4505017
  55.8319987  84.1945006  31.1345017  54.6699987  83.8005006  31.2465017
  56.8889987  83.4495006  31.4565017  57.8139987  83.8475006  31.3775017
  56.7679987  82.0425006  31.8645017  55.7439987  81.8315006  32.1715017
  57.1279987  81.1205006  30.6995017  57.0199987  80.1245006  31.1285017
  56.3669987  81.2705006  29.9345017  58.5179987  81.2575006  30.0705017
  58.6579987  82.3055006  29.8045017  59.6399987  80.8155006  30.9985017
  59.5009987  79.7675006  31.2645017  60.5989987  80.9375006  30.4945017
  59.6259987  81.4245006  31.9025017  58.5659987  80.4445006  28.7865017
  57.8119987  80.8155006  28.0925017  59.5529987  80.5375006  28.3335017
  58.3679987  79.3965006  29.0115017  57.6189987  81.6685006  33.0715017
  58.5329987  82.3965006  33.4615017  57.3209987  80.4995006  33.6265017
  56.6099987  79.9255006  33.1965017  57.9619987  80.0105006  34.8395017
  58.9819987  80.3875006  34.9105017  57.1719987  80.5035006  36.0555017
  57.1599987  81.5915006  35.9925017  56.1579987  80.1215006  35.9375017
  57.7199987  80.0795006  37.4135017  57.7059987  78.9905006  37.4495017
  58.7489987  80.4315006  37.4875017  56.9089987  80.6355006  38.5755017
  56.0869987  81.5595006  38.3605017  57.0959987  80.1515006  39.7115017
  58.0009987  78.4815006  34.8175017  56.9809987  77.8335006  34.5845017
  59.1729987  77.9095006  35.0575017  59.9809987  78.4805006  35.2615017
  59.3329987  76.4615006  35.0545017  58.5119987  75.9675006  34.5335017
  60.6629987  76.0605006  34.4075017  61.4589987  76.6735006  34.8295017
  60.9669987  74.5875006  34.6625017  60.1719987  73.9735006  34.2395017
  61.9159987  74.3255006  34.1945017  61.0309987  74.4095006  35.7355017
  60.6189987  76.3755006  32.9125017  59.8829987  75.7095006  32.4615017
  60.2859987  77.4085006  32.8075017  61.9479987  76.2025006  32.2155017
  62.2819987  75.1705006  32.3195017  61.8379987  76.4435006  31.1585017
  62.6839987  76.8685006  32.6655017  59.3309987  75.9465006  36.4755017
  60.2009987  76.3155006  37.2535017  58.3739987  75.0885006  36.8145017
  57.6149987  74.8885006  36.1785017  58.3459987  74.4785006  38.1385017
  58.9899987  75.0365006  38.8185017  56.9349987  74.4255006  38.7345017
  56.2499987  74.0435006  37.9775017  56.8929987  73.5195006  39.9615017
  57.5779987  73.9005006  40.7185017  55.8809987  73.4995006  40.3645017
  57.1909987  72.5095006  39.6785017  56.5049987  75.8335006  39.1065017
  56.5049987  76.4615006  38.2155017  55.5019987  75.8075006  39.5315017
  57.1989987  76.2445006  39.8395017  58.9459987  73.0925006  38.1025017
  58.5389987  72.2415006  37.3165017  59.8989987  72.8825006  39.0015017
  60.0919987  73.6135006  39.6715017  60.7229987  71.6915006  39.0285017
  60.4819987  70.9735006  38.2445017  62.2079987  72.0885006  38.8935017
  62.3119987  73.1195006  39.2315017  63.1249987  71.1945006  39.7075017
  63.0219987  70.1635006  39.3695017  64.1579987  71.5175006  39.5765017
  62.8549987  71.2595006  40.7615017  62.5909987  72.0855006  37.4215017
  61.9699987  72.8005006  36.8825017  63.6389987  72.3655006  37.3175017
  62.4389987  71.0885006  37.0075017  60.4259987  70.9425006  40.3165017
  60.4249987  71.5375006  41.3945017  60.1519987  69.6455006  40.1915017
  60.2659987  69.1905006  39.2975017  59.6649987  68.8535006  41.3115017
  59.8199987  69.3885006  42.2485017  58.1739987  68.5125006  41.1565017
  58.0589987  67.7605006  40.3755017  57.6179987  67.9715006  42.4665017
  57.7319987  68.7225006  43.2475017  56.5609987  67.7345006  42.3425017
  58.1619987  67.0695006  42.7475017  57.3839987  69.7465006  40.7115017
  57.5269987  70.5115006  41.4745017  57.8199987  70.0845006  39.7715017
  55.9009987  69.4965006  40.5195017  55.4639987  69.1585006  41.4595017
  55.4139987  70.4195006  40.2045017  55.7569987  68.7315006  39.7565017
  60.4419987  67.5585006  41.4385017  60.4939987  66.7585006  40.5035017
  61.0309987  67.3585006  42.6105017  60.9669987  68.0675006  43.3275017
  61.7789987  66.1495006  42.9035017  61.8549987  65.5355006  42.0065017
  63.1859987  66.4945006  43.3775017  63.5859987  67.1255006  42.5835017
  63.1069987  67.0745006  44.2975017  64.1179987  65.3095006  43.6025017
  63.6049987  64.5605006  44.2055017  64.5189987  64.6985006  42.2695017
  65.0319987  65.4465006  41.6655017  65.1849987  63.8525006  42.4425017
  63.6279987  64.3565006  41.7435017  65.3469987  65.7375006  44.3935017
  65.0379987  66.1315006  45.3615017  65.9999987  64.8785006  44.5445017
  65.8839987  66.5095006  43.8425017  61.0359987  65.3955006  43.9865017
  60.7939987  65.9355006  45.0665017  60.6719987  64.1525006  43.6815017
  60.9829987  63.7525006  42.8075017  59.8389987  63.3395006  44.5545017
  59.7599987  63.8155006  45.5315017  58.4299987  63.1795006  43.9715017
  58.5599987  62.8095006  42.9545017  57.9339987  62.4185006  44.5735017
  57.5809987  64.4385006  43.9475017  57.3629987  64.7045006  44.9815017
  58.1639987  65.2345006  43.4835017  56.2759987  64.2555006  43.1845017
  56.2649987  63.6165006  42.1115017  55.2459987  64.7625006  43.6525017
  60.4419987  61.9575006  44.7295017  60.5789987  61.1935006  43.7695017
  60.7869987  61.6295006  45.9635017  60.7699987  62.3155006  46.7045017
  61.1989987  60.2765006  46.2875017  60.5679987  59.5695006  45.7485017
  62.2379987  60.1355006  45.9905017  61.0729987  60.0175006  47.7665017
  60.6009987  60.8715006  48.5105017  61.5109987  58.8395006  48.1885017
  61.9439987  58.1985006  47.5385017  61.3449987  58.4165006  49.5615017
  60.5739987  59.0135006  50.0475017  60.9279987  56.9605006  49.6025017
  61.6459987  56.3845006  49.0185017  60.9539987  56.6285006  50.6405017
  59.5409987  56.7515006  49.0425017  58.8119987  56.9955006  49.8155017
  59.4039987  57.4175006  48.1905017  59.2929987  55.0585006  48.5115017
  57.9989987  55.3255006  47.2955017  58.3649987  55.9915006  46.5145017
  57.7129987  54.3715006  46.8535017  57.1319987  55.7755006  47.7795017
  62.6129987  58.6115006  50.3665017  63.6889987  58.2165006  49.9515017
  62.4579987  59.2375006  51.5235017  61.5649987  59.6605006  51.7305017
  63.5139987  59.3455006  52.5085017  64.4119987  59.8435006  52.1435017
  62.9979987  60.1045006  53.7475017  62.1519987  59.5595006  54.1665017
  64.0949987  60.2325006  54.8045017  64.9409987  60.7785006  54.3865017
  63.7069987  60.7715006  55.6685017  64.4209987  59.2395006  55.1125017
  62.4279987  61.4685006  53.3405017  61.6019987  61.3245006  52.6435017
  62.0679987  61.9915006  54.2265017  63.2079987  62.0605006  52.8615017
  63.9339987  57.9265006  52.8925017  63.0919987  57.0965006  53.2155017
  65.2239987  57.6275006  52.8505017  65.9309987  58.3215006  52.6525017
  65.6379987  56.2315006  52.9715017  65.1469987  55.6425006  52.1965017
  67.1579987  56.0775006  52.8165017  67.4849987  56.7995006  52.0685017
  67.6099987  56.3215006  53.7775017  67.5889987  54.6765006  52.3925017
  67.2229987  53.9845006  53.1505017  67.1019987  54.4635006  51.4415017
  69.0969987  54.5105006  52.2395017  69.8409987  55.4985006  52.4395017
  69.5449987  53.3805006  51.9145017  65.1529987  55.5765006  54.2725017
  64.7389987  54.4195006  54.2525017  65.1759987  56.3135006  55.3865017
  65.4249987  57.2905006  55.3355017  64.9339987  55.7205006  56.7195017
  65.3649987  54.7195006  56.6895017  65.6409987  56.5215006  57.8015017
  65.2139987  57.5235006  57.8505017  65.5129987  56.0255006  58.7635017
  66.7029987  56.5915006  57.5675017  63.4579987  55.5775006  57.0635017
  63.0219987  54.5295006  57.5205017  62.6999987  56.6505006  56.8915017
  63.1229987  57.5515006  56.7175017  61.2499987  56.5705006  56.9535017
  60.9509987  55.7615006  57.6205017  60.6019987  57.8905006  57.4525017
  59.5449987  57.7135006  57.6495017  61.2819987  58.3715006  58.7265017
  62.3389987  58.5495006  58.5295017  60.8139987  59.2975006  59.0615017
  61.1799987  57.6125006  59.5025017  60.6859987  58.9245006  56.4565017
  60.2779987  59.7265006  56.7925017  60.8269987  56.2665006  55.5325017
  61.2929987  56.9125006  54.6045017  59.9449987  55.2975006  55.3345017
  59.5649987  54.7655006  56.1045017  59.4969987  54.9735006  53.9775017
  60.3759987  54.6805006  53.4035017  58.8129987  54.1275006  54.0515017
  58.7939987  56.1185006  53.2585017  58.4009987  55.9625006  52.1015017
  58.6829987  57.2685006  53.9345017  59.2209987  57.3615006  54.7845017
  57.8029987  58.3725006  53.5465017  56.8319987  57.9875006  53.2345017
  57.5969987  59.3135006  54.7385017  58.5799987  59.6885006  55.0215017
  56.9799987  60.1415006  54.3885017  56.9349987  58.6635006  55.9455017
  55.9339987  58.3485006  55.6505017  57.5239987  57.7895006  56.2215017
  56.8139987  59.7725006  57.3685017  55.5769987  58.9375006  58.3655017
  55.9309987  57.9395006  58.6245017  55.3989987  59.5075006  59.2775017
  54.6479987  58.8575006  57.8005017  58.3239987  59.1785006  52.3645017
  59.5169987  59.4275006  52.2625017  57.4009987  59.6045006  51.4985017
  56.4259987  59.4505006  51.7145017  57.7349987  60.2855006  50.2485017
  58.6809987  59.9065006  49.8625017  56.6489987  60.0825006  49.1755017
  55.7149987  60.5175006  49.5325017  57.0539987  60.7525006  47.8615017
  57.9869987  60.3175006  47.5035017  56.2729987  60.5965006  47.1175017
  57.1909987  61.8215006  48.0255017  56.4419987  58.6805006  48.9505017
  55.7639987  58.5605006  48.2815017  57.8859987  61.7765006  50.4585017
  57.0349987  62.4075006  51.0815017  58.9639987  62.3285006  49.9055017
  59.5869987  61.7325006  49.3795017  59.2939987  63.7505006  50.0185017
  58.6539987  64.2215006  50.7645017  60.7499987  63.9265006  50.4445017
  60.8699987  63.7035006  51.5045017  61.4019987  63.2765006  49.8615017
  61.3759987  65.6045006  50.2115017  62.5999987  65.3615006  50.6715017
  59.0889987  64.4315006  48.6815017  59.2289987  63.8035006  47.6325017
  58.7589987  65.7155006  48.7205017  58.5989987  66.1705006  49.6075017
  58.5859987  66.4955006  47.5035017  58.9659987  65.9325006  46.6505017
  57.1009987  66.8105006  47.2615017  56.5929987  65.8575006  47.1135017
  56.7239987  67.2855006  48.1675017  56.8379987  67.7175006  46.0655017
  57.2539987  68.7035006  46.2725017  57.3459987  67.2825006  45.2045017
  55.3639987  67.8725006  45.7325017  54.7649987  68.9305006  45.9515017
  54.7749987  66.8245006  45.1855017  53.7959987  66.8695006  44.9425017
  55.3069987  65.9835006  45.0125017  59.3869987  67.7745006  47.6435017
  59.0129987  68.6545006  48.4195017  60.4919987  67.8695006  46.9105017
  60.8389987  67.0685006  46.4025017  61.2629987  69.1085006  46.8615017
  60.9819987  69.7505006  47.6965017  62.7509987  68.8235006  46.9485017
  63.0489987  68.1895006  46.1135017  63.3039987  69.7615006  46.9075017
  62.9699987  68.3145006  47.8875017  60.9319987  69.8635006  45.5795017
  60.8489987  69.2655006  44.5045017  60.7389987  71.1765006  45.7125017
  60.9209987  71.6145006  46.6035017  60.2879987  72.0145006  44.6105017
  60.2849987  71.4395006  43.6845017  58.8759987  72.5195006  44.8745017
  58.8979987  73.0175006  45.8435017  58.6539987  73.2495006  44.0965017
  57.8049987  71.4485006  44.8815017  57.7149987  71.0285006  43.8795017
  58.0919987  70.6625006  45.5795017  56.4699987  72.0385006  45.3045017
  56.1839987  72.8235006  44.6045017  55.7119987  71.2555006  45.3005017
  56.5429987  72.6125006  46.6465017  56.7619987  73.5965006  46.7005017
  56.3469987  71.9415006  47.7805017  56.0479987  70.6485006  47.7765017
  55.9649987  70.1555006  46.8995017  55.9039987  70.1635006  48.6505017
  56.4489987  72.5745006  48.9415017  56.6739987  73.5585006  48.9585017
  56.3009987  72.0695006  49.8035017  61.1809987  73.2235006  44.4425017
  61.8179987  73.6715006  45.3885017  61.2109987  73.7555006  43.2275017
  60.8179987  73.2395006  42.4535017  61.8309987  75.0495006  42.9545017
  61.5559987  75.7515006  43.7415017  63.3559987  74.9465006  42.9015017
  63.7159987  74.5955006  43.8685017  63.6309987  74.2275006  42.1295017
  63.9439987  76.2055006  42.6065017  64.8989987  76.1135006  42.5795017
  61.2979987  75.5865006  41.6365017  60.5569987  74.9075006  40.9205017
  61.6839987  76.8095006  41.3185017  62.3479987  77.3035006  41.8975017
  61.1419987  77.4885006  40.1695017  60.6979987  76.7715006  39.4785017
  60.0589987  78.4615006  40.6255017  59.1459987  77.8945006  40.8095017
  60.3889987  78.9285006  41.5535017  59.8049987  79.4625006  39.6575017
  59.1199987  80.0535006  39.9795017  62.2449987  78.2165006  39.4255017
  63.2439987  78.6225006  40.0155017  62.0649987  78.3505006  38.1205017
  61.2929987  77.8785006  37.6715017  62.9429987  79.1605006  37.3035017
  63.6369987  79.7085006  37.9415017  63.7469987  78.2875006  36.3465017
  63.0419987  77.7315006  35.7285017  64.3389987  78.9505006  35.7155017
  64.6599987  77.3235006  37.0575017  65.8209987  77.7655006  37.6735017
  66.0689987  78.8265006  37.6275017  66.6579987  76.8885006  38.3365017
  67.5649987  77.2515006  38.8195017  66.3409987  75.5515006  38.3855017
  67.1709987  74.6845006  39.0435017  67.9369987  75.1175006  39.4285017
  65.1969987  75.0875006  37.7765017  64.9469987  74.0275006  37.8115017
  64.3629987  75.9735006  37.1185017  63.4549987  75.6115006  36.6375017
  62.0599987  80.1065006  36.5295017  61.2999987  79.6665006  35.6675017
  62.1239987  81.3945006  36.8665017  62.6089987  81.6865006  37.7025017
  61.4159987  82.4075006  36.0865017  60.5389987  81.9565006  35.6225017
  60.9869987  83.6455006  36.9045017  60.6419987  84.4245006  36.2245017
  59.8629987  83.2715006  37.8575017  60.2069987  82.4925006  38.5385017
  59.5649987  84.1495006  38.4315017  59.0099987  82.9045006  37.2875017
  62.1559987  84.2535006  37.6825017  62.3129987  83.6405006  38.5695017
  63.0379987  84.2005006  37.0435017  61.9199987  85.6905006  38.0975017
  61.0389987  85.7445006  38.7365017  62.7879987  86.0585006  38.6445017
  61.7629987  86.3045006  37.2105017  62.2869987  82.8115006  34.9115017
  63.4939987  82.5535006  34.9055017  61.6529987  83.4375006  33.9235017
  60.6749987  83.6575006  34.0425017  62.2689987  83.6945006  32.6185017
  62.5029987  82.7665006  32.0965017  61.3239987  84.5375006  31.7295017
  60.3919987  83.9875006  31.5995017  61.0269987  85.9045006  32.3575017
  61.9589987  86.4555006  32.4875017  60.3599987  86.4675006  31.7045017
  60.5509987  85.7635006  33.3275017  61.9079987  84.7095006  30.4355017
  61.3199987  85.2325006  29.8855017  63.6799987  84.3185006  32.6905017
  64.5469987  83.9945006  31.8715017  63.9029987  85.1805006  33.6855017
  63.1419987  85.4025006  34.3115017  65.1909987  85.8625006  33.8845017
  65.5909987  86.2015006  32.9295017  64.9889987  87.0795006  34.7895017
  65.9129987  87.6585006  34.8085017  64.1859987  87.6915006  34.3785017
  64.6529987  86.6835006  36.1085017  64.5319987  87.4635006  36.6555017
  66.3049987  84.9905006  34.4845017  67.4699987  85.3925006  34.4905017
  65.9469987  83.8165006  34.9985017  64.9729987  83.5495006  34.9835017
  66.9059987  82.9115006  35.6365017  67.8089987  83.4545006  35.9155017
  66.2829987  82.3135006  36.9025017  65.3499987  81.8315006  36.6105017
  66.9759987  81.5625006  37.2825017  66.0019987  83.3475006  37.9945017
  66.9539987  83.5175006  38.4985017  65.6769987  84.2695006  37.5125017
  64.9579987  82.9135006  39.0155017  64.1469987  82.0065006  38.7265017
  64.9329987  83.5085006  40.1165017  67.3389987  81.8035006  34.6775017
  68.0769987  80.9035006  35.0555017  66.8739987  81.8855006  33.4355017
  66.2539987  82.6485006  33.2035017  67.1869987  80.9115006  32.3995017
  67.5799987  79.9835006  32.8165017  65.9239987  80.6055006  31.5605017
  65.6109987  81.5205006  31.0585017  66.1959987  79.5235006  30.5215017
  66.5079987  78.6075006  31.0235017  65.2879987  79.3325006  29.9495017
  66.9859987  79.8555006  29.8485017  64.7659987  80.2025006  32.4855017
  65.1139987  79.3605006  33.0835017  64.5679987  81.0535006  33.1375017
  63.4939987  79.8145006  31.7615017  63.6909987  78.9635006  31.1095017
  62.7289987  79.5445006  32.4895017  63.1449987  80.6565006  31.1635017
  68.3089987  81.4715006  31.5105017  68.0509987  82.2415006  30.5785017
  69.5499987  81.0855006  31.7975017  69.7149987  80.4175006  32.5375017
  70.7089987  81.6445006  31.0945017  70.5599987  82.7115006  30.9275017
  71.9829987  81.4515006  31.9235017  72.1739987  80.3815006  31.8465017
  72.7809987  81.9995006  31.4215017  71.9369987  81.8555006  33.3945017
  71.3889987  81.0985006  33.9545017  73.3469987  81.9775006  33.9535017
  73.8959987  82.7345006  33.3935017  73.2979987  82.2665006  35.0035017
  73.8579987  81.0185006  33.8645017  71.1839987  83.1615006  33.5825017
  70.1619987  83.0475006  33.2215017  71.1679987  83.4235006  34.6405017
  71.6809987  83.9525006  33.0205017  70.9059987  81.0175006  29.7125017
  71.2199987  79.8325006  29.6025017  70.7369987  81.8085006  28.6565017
  70.4559987  82.7725006  28.7615017  70.9369987  81.2895006  27.3075017
  70.6009987  80.2535006  27.2635017  70.1539987  82.0985006  26.2845017
  69.1079987  82.1475006  26.5865017  70.5519987  83.1085006  26.1895017
  70.1759987  81.4965006  24.9065017  71.2599987  81.3655006  24.0745017
  72.2169987  81.7265006  24.4515017  70.8799987  80.7795006  22.8915017
  71.4909987  80.5735006  22.1145017  69.5339987  80.5235006  22.9355017
  68.6979987  79.9465006  21.9805017  69.1299987  79.6275006  21.0325017
  67.3749987  79.8175006  22.2995017  66.6919987  79.3695006  21.5775017
  66.8709987  80.2485006  23.5385017  65.8129987  80.1425006  23.7805017
  67.6979987  80.8185006  24.4855017  67.2599987  81.1315006  25.4335017
  69.0559987  80.9655006  24.1895017  72.4049987  81.3275006  26.9395017
  73.0449987  82.3695006  27.0435017  72.9239987  80.1955006  26.4795017
  72.3509987  79.3635006  26.4565017  74.2999987  80.1015006  26.0015017
  74.3549987  79.2895006  25.2765017  74.5569987  81.0415006  25.5135017
  75.2919987  79.8365006  27.1155017  76.4089987  80.3485006  27.0835017
  74.8869987  79.0115006  28.0815017  73.9799987  78.5755006  27.9985017
  75.6829987  78.7315006  29.2725017  76.7009987  79.1005006  29.1445017
  75.0579987  79.4325006  30.4735017  73.9759987  79.3385006  30.3825017
  75.3949987  78.9005006  31.3625017  75.4269987  80.8895006  30.5905017
  74.8159987  81.8455006  29.7935017  74.0639987  81.5285006  29.0705017
  75.1479987  83.1865006  29.9055017  74.6579987  83.9295006  29.2755017
  76.1069987  83.5825006  30.8275017  76.4509987  84.9115006  30.9485017
  75.9659987  85.4805006  30.3465017  76.7279987  82.6465006  31.6305017
  77.4819987  82.9525006  32.3555017  76.3869987  81.3125006  31.5095017
  76.8719987  80.5665006  32.1395017  75.7999987  77.2415006  29.5775017
  74.9759987  76.4415006  29.1465017  76.8329987  76.8935006  30.3415017
  77.4699987  77.6175006  30.6405017  77.0839987  75.5215006  30.7865017
  76.2149987  74.8985006  30.5735017  78.2919987  74.9385006  30.0585017
  78.9599987  75.7765006  29.8575017  78.7689987  74.2545006  30.7605017
  77.9939987  74.2065006  28.7605017  77.2479987  73.4315006  28.9365017
  77.6189987  74.9095006  28.0175017  79.2759987  73.5685006  28.2515017
  80.1179987  74.1755006  28.5835017  79.3569987  72.5695006  28.6795017
  79.3229987  73.4595006  26.7995017  78.4499987  73.5725006  26.3035017
  80.4279987  73.2215006  26.0955017  81.6039987  73.0595006  26.6955017
  81.6659987  73.1165006  27.7015017  82.4289987  72.8795006  26.1415017
  80.3589987  73.1465006  24.7735017  79.4699987  73.2705006  24.3095017
  81.1949987  72.9665006  24.2365017  77.3839987  75.4765006  32.2805017
  78.0329987  76.3815006  32.8155017  76.9449987  74.4065006  32.9395017
  76.3569987  73.7275006  32.4775017  77.2479987  74.2105006  34.3535017
  77.0589987  75.1365006  34.8965017  76.3799987  73.1025006  34.9585017
  76.2649987  72.2925006  34.2385017  76.8359987  72.7155006  35.8695017
  74.9969987  73.5485006  35.3265017  74.7829987  74.2925006  36.4765017
  75.6319987  74.5515006  37.1085017  73.5059987  74.7075006  36.8265017
  73.3539987  75.2955006  37.7315017  72.4269987  74.3755006  36.0285017
  71.4219987  74.6985006  36.3005017  72.6269987  73.6305006  34.8805017
  71.7789987  73.3665006  34.2485017  73.9059987  73.2185006  34.5335017
  74.0619987  72.6295006  33.6295017  78.7239987  73.8805006  34.5505017
  79.3159987  73.1295006  33.7745017  79.3089987  74.4515006  35.5975017
  78.7789987  75.0855006  36.1775017  80.6989987  74.1925006  35.9485017
  81.3189987  74.1555006  35.0525017  81.2419987  75.2905006  36.8775017
  80.8459987  75.1305006  37.8805017  82.7629987  75.2575006  36.9225017
  83.1599987  75.4175006  35.9205017  83.1249987  76.0435006  37.5855017
  83.0949987  74.2875006  37.2935017  80.8019987  76.5725006  36.4145017
  81.1419987  77.2565006  36.9955017  80.8129987  72.8495006  36.6715017
  80.0599987  72.5925006  37.6035017  81.7559987  71.9905006  36.2475017
  82.5819987  72.1215006  35.0295017  83.2499987  72.9755006  35.1445017
  81.9279987  72.2855006  34.1735017  83.3239987  70.8145006  34.9435017
  84.3509987  71.0125006  34.6375017  82.8389987  70.1835006  34.1985017
  83.2699987  70.1845006  36.2895017  84.1309987  70.4885006  36.8855017
  83.2369987  69.0965006  36.2285017  81.9789987  70.7125006  36.9305017
  81.1129987  70.0835006  36.7225017  82.1699987  70.8325006  38.4455017
  82.6479987  71.8565006  38.9395017  81.7849987  69.7745006  39.1545017
  81.3819987  68.9895006  38.6635017  81.8919987  69.6995006  40.6175017
  82.4749987  70.5275006  41.0215017  80.4969987  69.7055006  41.2845017
  80.6209987  69.5665006  42.3585017  79.7759987  71.0185006  41.0235017
  79.6509987  71.1575006  39.9495017  78.7969987  70.9975006  41.5025017
  80.3619987  71.8425006  41.4305017  79.6499987  68.5365006  40.7975017
  80.1489987  67.5985006  41.0425017  78.6749987  68.5665006  41.2835017
  79.5199987  68.6065006  39.7175017  82.6299987  68.4495006  41.1015017
  83.1069987  68.4155006  42.2385017  82.7139987  67.4305006  40.2415017
  82.3589987  67.5515006  39.3035017  83.2669987  66.1235006  40.6125017
  83.1039987  65.9485006  41.6755017  82.5949987  64.9955006  39.8215017
  82.0799987  65.5115006  39.0115017  83.3819987  64.3655006  39.4075017
  81.6009987  64.1305006  40.5845017  80.7679987  64.7435006  40.9285017
  81.0799987  63.0415006  39.6605017  81.9119987  62.4275006  39.3165017
  80.3669987  62.4175006  40.1995017  80.5859987  63.4975006  38.8025017
  82.2419987  63.5275006  41.8265017  82.5849987  64.3265006  42.4835017
  81.5099987  62.9145006  42.3525017  83.0899987  62.9085006  41.5345017
  84.7659987  66.0255006  40.3935017  85.2749987  66.4145006  39.3445017
  85.4579987  65.4915006  41.3925017  84.9819987  65.2475006  42.2495017
  86.8849987  65.2325006  41.2995017  87.1859987  65.1685006  40.2535017
  87.7299987  66.3195006  41.9895017  88.7189987  66.3305006  41.5315017
  87.0889987  67.7035006  41.8515017  86.0999987  67.6935006  42.3105017
  87.7129987  68.4445006  42.3505017  86.9969987  67.9585006  40.7955017
  87.8899987  66.0005006  43.3765017  88.4169987  66.6805006  43.8025017
  87.1709987  63.9085006  41.9775017  86.4189987  63.4705006  42.8475017
  88.2759987  63.2895006  41.5895017  88.8659987  63.7135006  40.8885017
  88.6509987  61.9875006  42.1085017  87.7779987  61.4705006  42.5065017
  89.2429987  61.1475006  40.9805017  88.4899987  61.2515006  40.1995017
  90.1619987  61.6435006  40.6665017  89.5219987  59.6675006  41.2245017
  90.4479987  59.5835006  41.7925017  88.3959987  58.9965006  41.9915017
  87.4689987  59.0795006  41.4235017  88.6359987  57.9445006  42.1435017
  88.2739987  59.4835006  42.9585017  89.7559987  58.9845006  39.8825017
  90.6099987  59.4435006  39.3845017  89.9569987  57.9255006  40.0435017
  88.8689987  59.0955006  39.2585017  89.6459987  62.1495006  43.2495017
  90.5389987  62.9835006  43.1945017  89.4539987  61.3725006  44.3025017
  88.6349987  60.7815006  44.3295017  90.3699987  61.3325006  45.4295017
  91.2939987  61.8535006  45.1805017  89.7309987  62.0205006  46.6445017
  89.0259987  62.7515006  46.2495017  89.1869987  61.2465006  47.1865017
  90.7049987  62.7145006  47.5915017  90.1869987  62.8845006  48.5355017
  91.5379987  62.0295006  47.7525017  91.2329987  64.0375006  47.0575017
  90.4919987  64.7375006  46.3295017  92.3939987  64.3825006  47.3755017
  90.6249987  59.8525006  45.6995017  89.9549987  59.0005006  45.1105017
  91.5729987  59.5335006  46.5765017  92.1269987  60.2535006  47.0185017
  91.8859987  58.1325006  46.8775017  92.2019987  57.6265006  45.9655017
  93.0139987  58.0275006  47.9115017  93.7979987  58.7205006  47.6055017
  92.6229987  58.3285006  48.8835017  93.5909987  56.6205006  48.0105017
  92.9339987  55.7355006  48.5925017  94.7159987  56.4035006  47.5165017
  90.6489987  57.3865006  47.3735017  90.1549987  57.6435006  48.4675017
  90.1359987  56.4865006  46.5395017  90.5209987  56.3955006  45.6105017
  89.0279987  55.6155006  46.9175017  89.0479987  54.7875006  46.2095017
  89.2689987  55.2465006  47.9145017  87.6309987  56.2175006  46.9365017
  86.6659987  55.4765006  47.1275017  87.5029987  57.5335006  46.7305017
  88.3279987  58.0865006  46.5485017  86.2019987  58.2245006  46.8155017
  85.3959987  57.5295006  46.5805017  85.9819987  58.7695006  48.2365017
  86.9309987  59.0765006  48.6755017  85.3039987  59.6225006  48.2045017
  85.3699987  57.7645006  49.1875017  83.9839987  57.6185006  49.2715017
  83.3469987  58.2405006  48.6435017  83.4129987  56.6935006  50.1425017
  82.3289987  56.5955006  50.1985017  84.2229987  55.8975006  50.9385017
  83.7789987  55.1715006  51.6195017  85.6019987  56.0275006  50.8655017
  86.2409987  55.4015006  51.4885017  86.1709987  56.9565006  49.9965017
  87.2549987  57.0595006  49.9425017  86.0789987  59.3615006  45.8055017
  87.0369987  60.0795006  45.5745017  84.9009987  59.5215006  45.2055017
  84.1699987  58.8385006  45.3455017  84.6199987  60.6765006  44.3355017
  85.5219987  60.9415006  43.7835017  83.5029987  60.3585006  43.3275017
  82.7549987  59.8005006  43.8905017  83.0779987  61.3085006  43.0025017
  83.9249987  59.5575006  42.1215017  84.5019987  60.1735006  41.0265017
  84.6509987  61.2535006  41.0475017  84.8879987  59.4445006  39.9175017
  85.3479987  59.9455006  39.0665017  84.6879987  58.0855006  39.8885017
  85.0729987  57.3605006  38.7865017  85.4689987  57.9025006  38.1005017
  84.1059987  57.4525006  40.9615017  83.9459987  56.3745006  40.9445017
  83.7229987  58.1905006  42.0665017  83.2519987  57.6955006  42.9155017
  84.1719987  61.8745006  45.1785017  83.1459987  61.7915006  45.8445017
  84.9029987  62.9865006  45.1435017  85.7499987  63.0405006  44.5965017
  84.5369987  64.1415006  45.9795017  83.8089987  63.8265006  46.7275017
  85.7509987  64.7275006  46.6965017  86.3099987  63.9055006  47.1425017
  86.3729987  65.2295006  45.9555017  85.3549987  65.7205006  47.7825017
  84.6739987  66.4415006  47.3295017  84.8319987  65.1695006  48.5645017
  86.5349987  66.4515006  48.3845017  87.5929987  65.8185006  48.6075017
  86.3889987  67.6665006  48.6385017  83.8239987  65.2615006  45.2235017
  84.3129987  65.7425006  44.2025017  82.6919987  65.6995006  45.7755017
  82.3699987  65.2615006  46.6265017  81.8779987  66.7665006  45.1945017
  82.0659987  66.8855006  44.1275017  80.3779987  66.4815006  45.4015017
  80.1719987  66.4415006  46.4715017  79.5279987  67.5695006  44.7615017
  79.7329987  67.6095006  43.6915017  78.4729987  67.3475006  44.9205017
  79.7679987  68.5315006  45.2135017  80.0139987  65.1185006  44.8335017
  80.5949987  64.3465006  45.3385017  78.9509987  64.9325006  44.9875017
  80.2349987  65.0985006  43.7665017  82.2309987  68.1125006  45.8295017
  82.4479987  68.1945006  47.0375017  82.2769987  69.1615006  45.0085017
  82.0769987  69.0245006  44.0285017  82.6479987  70.5085006  45.4615017
  82.9449987  70.4825006  46.5095017  83.8289987  71.0335006  44.6285017
  84.6469987  70.3185006  44.7145017  83.4979987  71.0825006  43.5915017
  84.3079987  72.4095006  45.0745017  83.8369987  72.9085006  46.1205017
  85.1689987  72.9845006  44.3705017  81.4589987  71.4535006  45.3475017
  81.3039987  72.1435006  44.3435017  80.6379987  71.5005006  46.3925017
  80.8219987  70.9235006  47.2015017  79.3739987  72.2485006  46.3435017
  78.8359987  71.9925006  45.4305017  78.4809987  71.9125006  47.5505017
  79.0679987  71.9085006  48.4685017  77.7299987  72.7015006  47.6035017
  77.7969987  70.5775006  47.3855017  76.5509987  70.4795006  46.7735017
  76.0569987  71.3895006  46.4335017  75.9369987  69.2495006  46.5935017
  74.9559987  69.1865006  46.1225017  76.5759987  68.0955006  47.0215017
  75.9889987  66.8635006  46.8505017  75.1319987  66.9125006  46.4215017
  77.8139987  68.1715006  47.6205017  78.3179987  67.2655006  47.9585017
  78.4189987  69.4055006  47.7925017  79.4039987  69.4695006  48.2555017
  79.5449987  73.7625006  46.1715017  78.5939987  74.4445006  45.7895017
  80.7459987  74.2805006  46.4225017  81.4599987  73.7205006  46.8665017
  81.0669987  75.6675006  46.0735017  80.4789987  76.3415006  46.6965017
  82.5529987  75.9715006  46.2915017  83.1279987  75.1815006  45.8085017
  82.7949987  76.9295006  45.8315017  82.9399987  76.0255006  47.7595017
  82.2479987  76.6345006  48.5735017  84.0639987  75.4015006  48.1005017
  84.3679987  75.4055006  49.0635017  84.6079987  74.9265006  47.3945017
  80.7409987  75.9535006  44.6175017  80.2659987  77.0345006  44.2925017
  81.0059987  74.9745006  43.7525017  81.3759987  74.1045006  44.1095017
  80.8209987  75.1095006  42.3035017  80.9089987  76.1545006  42.0075017
  81.8969987  74.3005006  41.5715017  81.6989987  73.2395006  41.7245017
  81.8409987  74.5305006  40.5075017  83.1909987  74.6135006  42.0545017
  83.8439987  74.0935006  41.5795017  79.4469987  74.6495006  41.8115017
  79.1839987  74.6715006  40.6105017  78.5729987  74.2525006  42.7335017
  78.7959987  74.3625006  43.7125017  77.3229987  73.5815006  42.3775017
  77.5369987  72.7045006  41.7665017  76.5719987  73.1285006  43.6415017
  77.1389987  72.3535006  44.1565017  76.4259987  73.9765006  44.3105017
  75.2079987  72.5545006  43.3695017  74.0859987  73.3635006  43.4265017
  74.2069987  74.4175006  43.6765017  72.8309987  72.8555006  43.1725017
  71.9579987  73.5065006  43.2195017  72.6799987  71.5185006  42.8575017
  71.6899987  71.1105006  42.6555017  73.7929987  70.6955006  42.7995017
  73.6799987  69.6405006  42.5515017  75.0499987  71.2155006  43.0565017
  75.9269987  70.5685006  43.0135017  76.4289987  74.4595006  41.5125017
  75.8769987  73.9915006  40.5195017  76.3089987  75.7275006  41.8925017
  76.8239987  76.0495006  42.6995017  75.4309987  76.6765006  41.2065017
  74.5739987  76.1575006  40.7775017  74.9229987  77.7125006  42.2055017
  75.7589987  78.2455006  42.6585017  74.2699987  78.4235006  41.7005017
  74.1309987  77.1275006  43.3275017  72.8169987  76.7385006  43.1845017
  72.3729987  76.2615006  44.3315017  71.3499987  75.8975006  44.4235017
  73.3519987  76.3295006  45.2165017  73.3019987  76.0345006  46.1815017
  74.4629987  76.8705006  44.6135017  75.3799987  77.0115006  45.1865017
  76.1019987  77.4145006  40.0435017  75.4299987  78.0955006  39.2635017
  77.4179987  77.2725006  39.9275017  77.8939987  76.5815006  40.4905017
  78.2129987  78.1055006  39.0415017  77.8929987  79.1455006  39.1085017
  79.6819987  78.0195006  39.4525017  79.7099987  77.9675006  40.5405017
  80.0799987  77.0955006  39.0345017  80.5229987  79.1905006  38.9815017
  80.3879987  79.2905006  37.9045017  80.1489987  80.0855006  39.4795017
  82.0009987  79.0185006  39.2925017  82.3709987  78.0515006  39.9955017
  82.7999987  79.8575006  38.8235017  78.0559987  77.6845006  37.5865017
  78.0669987  76.4925006  37.2845017  77.9049987  78.6665006  36.6935017
  77.8159987  79.6195006  37.0155017  77.8829987  78.4155006  35.2445017
  78.1589987  77.3805006  35.0425017  76.5109987  78.6915006  34.6075017
  76.5919987  78.5505006  33.5295017  75.4509987  77.7565006  35.1615017
  75.3689987  77.8975006  36.2395017  74.4919987  77.9755006  34.6925017
  75.7309987  76.7245006  34.9515017  76.1359987  80.0515006  34.8475017
  75.2789987  80.2225006  34.4495017  78.8639987  79.3035006  34.5095017
  79.2979987  80.3335006  35.0315017  79.1869987  78.8945006  33.2865017
  78.8399987  78.0025006  32.9625017  80.0529987  79.6625006  32.4005017
  80.1109987  80.6945006  32.7475017  81.4639987  79.0755006  32.3775017
  82.0599987  79.7695006  31.7845017  81.8319987  79.0665006  33.4035017
  81.5759987  77.6855006  31.7895017  81.4989987  76.5585006  32.5995017
  81.3459987  76.6885006  33.6705017  81.6139987  75.2835006  32.0655017
  81.5489987  74.4085006  32.7115017  81.8139987  75.1265006  30.7065017
  81.9289987  73.8685006  30.1605017  81.8549987  73.1685006  30.8135017
  81.8969987  76.2305006  29.8895017  82.0519987  76.1065006  28.8175017
  81.7839987  77.4995006  30.4305017  81.8579987  78.3755006  29.7855017
  79.4779987  79.6775006  30.9975017  78.7099987  78.7925006  30.6295017
  79.8759987  80.6735006  30.2145017  80.5599987  81.3305006  30.5635017
  79.3189987  80.8955006  28.8825017  78.2699987  80.5995006  28.8525017
  79.4169987  82.3855006  28.5415017  79.1889987  82.9345006  29.4555017
  80.4499987  82.5755006  28.2515017  78.4869987  82.8445006  27.4305017
  78.7819987  82.3345006  26.5135017  77.4749987  82.5455006  27.7035017
  78.5279987  84.3475006  27.2095017  79.6319987  84.9345006  27.2615017
  77.4499987  84.9415006  26.9785017  80.0209987  80.0505006  27.8005017
  81.2409987  79.8335006  27.8585017  79.2399987  79.5655006  26.8315017
  78.2359987  79.6155006  26.9335017  79.7869987  78.9365006  25.6215017
  80.8499987  79.1605006  25.5285017  79.5999987  77.4035006  25.5845017
  79.7319987  77.0585006  24.5595017  80.6099987  76.7145006  26.4835017
  80.4789987  77.0595006  27.5095017  80.4589987  75.6355006  26.4405017
  81.6189987  76.9525006  26.1465017  78.2639987  77.0645006  25.9775017
  78.1549987  76.1115006  25.9525017  79.1579987  79.4775006  24.3495017
  78.0779987  80.0765006  24.3675017  79.8649987  79.2445006  23.2475017
  80.7939987  78.8585006  23.3415017  79.3749987  79.5405006  21.9145017
  79.2119987  80.6125006  21.8005017  80.4089987  79.0895006  20.8785017
  81.3519987  79.5925006  21.0915017  80.5429987  78.0115006  20.9715017
  79.9959987  79.4005006  19.5625017  80.6639987  79.1055006  18.9395017
  78.0469987  78.8135006  21.7045017  77.9769987  77.5925006  21.8245017
  76.9929987  79.5745006  21.4235017  77.1089987  80.5695006  21.2965017
  75.6509987  79.0145006  21.3065017  75.6969987  78.0115006  20.8825017
  74.9679987  78.9355006  22.6815017  74.8229987  79.9475006  23.0595017
  73.6199987  78.2335006  22.5815017  73.7639987  77.2215006  22.2045017
  73.1579987  78.1905006  23.5675017  72.9719987  78.7855006  21.9005017
  75.8079987  78.2195006  23.5925017  75.3809987  78.1705006  24.4505017
  74.7769987  79.8595006  20.3805017  74.6879987  81.0755006  20.5705017
  74.1249987  79.2185006  19.3855017  74.3149987  77.8045006  19.0035017
  73.9589987  77.1665006  19.8125017  75.3759987  77.6205006  18.8365017
  73.5039987  77.6535006  17.7505017  73.0489987  76.6635006  17.7265017
  74.1489987  77.7775006  16.8805017  72.4769987  78.7205006  17.8035017
  71.6259987  78.4065006  18.4075017  72.1289987  79.0185006  16.8145017
  73.1909987  79.8915006  18.4805017  73.7879987  80.4895006  17.7915017
  72.1659987  80.7945006  19.1855017  71.7259987  80.4815006  20.2955017
  71.8029987  81.9035006  18.5345017  72.2849987  82.1485006  17.6815017
  70.7489987  82.8035006  19.0215017  70.7049987  82.7665006  20.1095017
  71.0359987  84.2405006  18.5935017  71.1939987  84.2645006  17.5155017
  70.1799987  84.8645006  18.8485017  72.1869987  84.7305006  19.2485017
  72.3539987  85.6335006  18.9695017  69.3739987  82.3985006  18.5005017
  68.3619987  82.9955006  18.8705017  69.3509987  81.3755006  17.6495017
  70.2069987  80.8665006  17.4795017  68.1509987  80.9635006  16.9385017
  67.5599987  81.8385006  16.6665017  68.5289987  80.2095006  15.6575017
  69.2279987  79.4535006  16.0145017  67.6269987  79.7235006  15.2855017
  69.1809987  81.0135006  14.5235017  68.5479987  81.8775006  14.3205017
  70.5899987  81.4855006  14.8685017  71.2239987  80.6225006  15.0715017
  71.0009987  82.0485006  14.0305017  70.5539987  82.1245006  15.7515017
  69.2099987  80.1795006  13.2535017  68.1919987  79.9145006  12.9685017
  69.6729987  80.7535006  12.4515017  69.7859987  79.2705006  13.4285017
  67.3029987  80.0665006  17.8165017  67.8129987  79.4285006  18.7345017
  66.0059987  80.0245006  17.5325017  65.6129987  80.6655006  16.8575017
  65.1119987  79.0775006  18.1875017  65.2779987  79.1065006  19.2645017
  63.6439987  79.4195006  17.9085017  63.0229987  78.8875006  18.6295017
  63.5099987  80.4935006  18.0365017  63.2629987  79.0495006  16.5925017
  62.3409987  79.2765006  16.4505017  65.4299987  77.6835006  17.6625017
  65.9509987  77.5385006  16.5495017  65.1179987  76.6655006  18.4595017
  64.7509987  76.8435006  19.3835017  65.3489987  75.2775006  18.0605017
  66.4219987  75.1025006  17.9875017  64.7719987  74.3295006  19.0975017
  63.6959987  74.4865006  19.1745017  64.9679987  73.2995006  18.7985017
  65.2369987  74.5215006  20.0645017  64.7469987  74.9965006  16.6825017
  65.3579987  74.3115006  15.8585017  63.5539987  75.5455006  16.4505017
  63.0939987  76.0215006  17.2135017  62.8499987  75.4475006  15.1655017
  62.6359987  74.4045006  14.9305017  61.5239987  76.2135006  15.2465017
  60.8949987  75.6525006  15.9375017  61.7639987  77.1845006  15.6795017
  60.7789987  76.4145006  13.9295017  61.4309987  76.9335006  13.2265017
  60.5079987  75.4405006  13.5215017  59.5169987  77.2395006  14.1565017
  58.6669987  76.5595006  14.1125017  59.5829987  77.6745006  15.1535017
  59.3319987  78.3495006  13.1305017  58.7019987  79.1175006  13.5805017
  60.3149987  78.7685006  12.9125017  58.7059987  77.8725006  11.8695017
  57.7949987  77.4855006  12.0715017  58.6079987  78.6465006  11.2285017
  59.2889987  77.1615006  11.4515017  63.6729987  75.9695006  13.9935017
  63.6879987  75.3625006  12.9175017  64.3369987  77.1025006  14.1925017
  64.2459987  77.6055006  15.0635017  65.1399987  77.6985006  13.1305017
  64.5919987  77.6625006  12.1895017  65.4589987  79.1555006  13.4535017
  65.8949987  79.1825006  14.4525017  66.1949987  79.4995006  12.7265017
  64.2419987  80.0625006  13.4085017  63.9099987  80.1255006  12.3725017
  63.4599987  79.6035006  14.0125017  64.5309987  81.4535006  13.9305017
  65.6709987  81.9365006  13.7535017  63.6129987  82.0645006  14.5205017
  66.4169987  76.8995006  12.8755017  66.9159987  76.8645006  11.7515017
  66.9369987  76.2505006  13.9135017  66.5969987  76.4245006  14.8485017
  68.0569987  75.3325006  13.7455017  68.8729987  75.8415006  13.2335017
  68.5649987  74.8355006  15.1005017  67.7239987  74.9905006  15.7765017
  68.7959987  73.7715006  15.0465017  69.7869987  75.5965006  15.6235017
  69.6869987  76.6475006  15.3515017  69.9019987  75.4735006  17.1355017
  70.0019987  74.4235006  17.4085017  70.7779987  76.0235006  17.4795017
  69.0079987  75.8865006  17.6035017  71.0569987  75.1055006  14.9365017
  70.9739987  75.2655006  13.8615017  71.9149987  75.6575006  15.3205017
  71.1909987  74.0425006  15.1355017  67.6819987  74.1535006  12.8525017
  68.4789987  73.7185006  12.0235017  66.4679987  73.6425006  13.0195017
  65.8839987  73.9635006  13.7785017  65.9659987  72.5675006  12.1645017
  66.6589987  71.7275006  12.2215017  64.6009987  72.1045006  12.6465017
  63.8939987  72.9315006  12.5865017  64.2529987  71.2835006  12.0195017
  64.6759987  71.7655006  13.6795017  65.8919987  73.0035006  10.6975017
  66.2859987  72.2555006   9.8025017  65.3889987  74.2145006  10.4615017
  65.0149987  74.7515006  11.2315017  65.2879987  74.7755006   9.1065017
  64.6919987  74.1155006   8.4765017  64.6169987  76.1525006   9.1465017
  65.1609987  76.7555006   9.8735017  64.7259987  76.5935006   8.1555017
  63.1419987  76.1115006   9.5245017  62.6179987  75.5685006   8.7385017
  63.0509987  75.5665006  10.4645017  62.5299987  77.4935006   9.6795017
  63.2099987  78.4055006  10.2025017  61.3589987  77.6695006   9.2815017
  66.6489987  74.8765006   8.4015017  66.7449987  74.6535006   7.1905017
  67.6929987  75.2165006   9.1555017  67.5469987  75.5365006  10.1025017
  69.0639987  75.1825006   8.6375017  69.1129987  75.7455006   7.7055017
  70.0519987  75.7995006   9.6365017  69.7959987  75.3075006  10.5745017
  71.0569987  75.5055006   9.3345017  69.9999987  77.3155006   9.8265017
  68.9949987  77.6055006  10.1315017  70.9959987  77.7395006  10.8955017
  72.0019987  77.4505006  10.5905017  70.9529987  78.8205006  11.0245017
  70.7479987  77.2515006  11.8375017  70.2699987  78.0385006   8.5175017
  69.5179987  77.7525006   7.7825017  70.2269987  79.1155006   8.6815017
  71.2589987  77.7665006   8.1485017  69.4969987  73.7535006   8.3195017
  70.1659987  73.5135006   7.3165017  69.1159987  72.8145006   9.1835017
  68.6319987  73.0845006  10.0275017  69.4469987  71.4025006   8.9955017
  70.5189987  71.3405006   8.8075017  69.1269987  70.6095006  10.2565017
  68.0559987  70.6545006  10.4525017  69.4269987  69.5705006  10.1195017
  69.6689987  71.0355006  11.1015017  68.7329987  70.7925006   7.7805017
  69.3369987  70.0095006   7.0445017  67.4589987  71.1505006   7.5825017
  67.0079987  71.7375006   8.2695017  66.6639987  70.6895006   6.4245017
  66.5899987  69.6025006   6.4445017  65.2429987  71.2805006   6.4545017
  65.3249987  72.3405006   6.6955017  64.7909987  71.1665006   5.4695017
  64.3419987  70.6165006   7.4825017  64.6679987  69.5695006   8.0425017
  63.1859987  71.2255006   7.7255017  62.5439987  70.8325006   8.3985017
  62.9549987  72.0785006   7.2355017  67.3039987  71.0435006   5.0835017
  67.3069987  70.2285006   4.1575017  67.8229987  72.2645006   4.9855017
  67.6759987  72.9335006   5.7285017  68.5379987  72.7045006   3.7875017
  68.0209987  72.3425006   2.8985017  68.6069987  74.2325006   3.7255017
  68.8049987  74.5915006   4.7355017  69.4419987  74.4955006   3.0765017
  67.3349987  74.8755006   3.1995017  67.0309987  74.3385006   2.3005017
  66.5629987  74.7715006   3.9625017  67.5269987  76.3485006   2.8695017
  68.5519987  76.4985006   2.5315017  66.8379987  76.6185006   2.0685017
  67.2779987  77.2245006   4.0185017  66.3149987  77.4945006   4.1595017
  68.1999987  77.6855006   4.8675017  69.4849987  77.3655006   4.7425017
  69.7809987  76.7595006   3.9905017  70.1589987  77.7295006   5.4005017
  67.8249987  78.4785006   5.8655017  66.8509987  78.7245006   5.9725017
  68.5149987  78.8315006   6.5125017  69.9459987  72.1045006   3.6985017
  70.4469987  71.8755006   2.5965017  70.5709987  71.8525006   4.8535017
  70.1239987  72.1255006   5.7175017  71.9129987  71.2535006   4.9215017
  72.5659987  71.8185006   4.2565017  72.4659987  71.3425006   6.3395017
  71.8269987  70.7735006   7.0155017  73.4749987  70.9315006   6.3625017
  72.4909987  72.3855006   6.6555017  71.9179987  69.7985006   4.4485017
  72.7939987  69.3945006   3.6795017  70.9429987  69.0195006   4.9135017
  70.3019987  69.3765006   5.6075017  70.8079987  67.6225006   4.4975017
  71.7829987  67.1365006   4.5215017  69.8619987  66.8685006   5.4335017
  70.0639987  67.2135006   6.4475017  68.8439987  67.1395006   5.1545017
  70.0179987  65.3585006   5.3725017  69.5609987  65.0105006   4.4465017
  71.0849987  65.1345006   5.3565017  69.3729987  64.6565006   6.5485017
  68.1609987  64.8505006   6.7625017  70.0779987  63.9085006   7.2575017
  70.3199987  67.5205006   3.0495017  70.7039987  66.6015006   2.3275017
  69.4889987  68.4735006   2.6255017  69.1449987  69.1655006   3.2765017
  68.9929987  68.5105006   1.2425017  68.7759987  67.4995006   0.8985017
  67.7079987  69.3415006   1.1635017  67.0209987  68.9955006   1.9365017
  67.9579987  70.3875006   1.3425017  67.0919987  69.2135006  -0.1074983
  66.2909987  69.7425006  -0.1294983  70.0209987  69.0545006   0.2325017
  69.7929987  68.9785006  -0.9784983  71.1409987  69.5895006   0.7295017
  71.2599987  69.6225006   1.7315017  72.1829987  70.1865006  -0.1154983
  71.7319987  70.6735006  -0.9804983  72.9649987  71.2375006   0.6885017
  72.2629987  71.9005006   1.1945017  73.5649987  70.7095006   1.4295017
  73.8889987  72.0775006  -0.1734983  73.5509987  72.4475006  -1.2974983
  75.0579987  72.3995006   0.3635017  75.7149987  72.9575006  -0.1624983
  75.2859987  72.0855006   1.2965017  73.1519987  69.1485006  -0.6884983
  72.9779987  67.9425006  -0.5104983  74.1219987  69.5025006  -1.3554983
  49.2409987  17.6495006  39.9005017  49.0259987  18.1005006  40.7785017
  49.5429987  16.7035006  40.0865017  48.4839987  17.8195006  39.2545017
  50.4259987  18.3325006  39.3075017  51.2269987  17.6015006  39.2005017
  50.0979987  18.9405006  37.9275017  49.7549987  18.1535006  37.2555017
  49.0029987  19.9895006  38.0815017  49.3449987  20.7765006  38.7525017
  48.7709987  20.4195006  37.1065017  48.1079987  19.5235006  38.4945017
  51.3489987  19.5935006  37.3505017  52.1329987  18.8445006  37.2415017
  51.6909987  20.3815006  38.0215017  51.0249987  20.1925006  35.9865017
  50.2409987  20.9415006  36.0955017  51.9189987  20.6595006  35.5725017
  50.6829987  19.4045006  35.3155017  50.9439987  19.4315006  40.2435017
  50.1739987  20.0865006  40.9475017  52.2599987  19.6175006  40.2565017
  52.8549987  19.0365006  39.6835017  52.8859987  20.6325006  41.0945017
  52.4609987  20.5965006  42.0975017  54.3969987  20.3895006  41.1935017
  54.5259987  19.3835006  41.5925017  54.7859987  20.4285006  40.1765017
  55.1549987  21.3825006  42.0655017  56.2179987  21.2965006  41.8395017
  54.8119987  22.3865006  41.8165017  54.9559987  21.1565006  43.5545017
  54.1529987  20.3235006  43.9705017  55.6939987  21.9035006  44.3635017
  55.6049987  21.7985006  45.3645017  56.3409987  22.5745006  43.9755017
  52.6249987  22.0035006  40.4995017  52.7799987  22.2095006  39.2955017
  52.2189987  22.9385006  41.3465017  51.9099987  22.6845006  42.2735017
  52.1159987  24.3315006  40.9435017  52.2939987  24.4105006  39.8715017
  50.7219987  24.9065006  41.2545017  50.7339987  25.9305006  40.8805017
  50.0199987  24.3135006  40.6675017  50.2879987  24.9055006  42.7205017
  50.7049987  24.0225006  43.2045017  50.6819987  25.8015006  43.1985017
  48.7669987  24.8865006  42.8515017  48.3909987  23.9435006  42.4535017
  48.5039987  24.9655006  43.9065017  48.1309987  25.9905006  42.1245017
  48.6239987  26.8715006  42.1385017  46.9659987  25.9215006  41.4695017
  46.2639987  24.7905006  41.4105017  46.6109987  23.9595006  41.8685017
  45.3879987  24.7695006  40.9085017  46.4989987  27.0005006  40.8495017
  47.0249987  27.8625006  40.8765017  45.6199987  26.9535006  40.3535017
  53.2239987  25.1315006  41.6125017  53.8659987  24.6725006  42.5605017
  53.4569987  26.3215006  41.0755017  52.9349987  26.5835006  40.2515017
  54.4359987  27.2655006  41.6035017  55.3029987  26.7375006  42.0005017
  54.8999987  28.1855006  40.4685017  55.0389987  27.5725006  39.5775017
  54.0629987  28.8665006  40.3135017  56.1569987  28.9835006  40.7325017
  57.2669987  28.4085006  41.3445017  57.2169987  27.3635006  41.6485017
  58.4189987  29.1395006  41.5685017  59.2769987  28.6815006  42.0615017
  58.4799987  30.4495006  41.1615017  59.6229987  31.1725006  41.3785017
  60.3089987  30.6655006  41.8185017  57.3999987  31.0395006  40.5425017
  57.4479987  32.0805006  40.2235017  56.2499987  30.3025006  40.3265017
  55.3949987  30.7595006  39.8285017  53.8109987  28.0855006  42.7195017
  54.4489987  28.3645006  43.7315017  52.5509987  28.4575006  42.5155017
  52.0949987  28.1635006  41.6635017  51.7999987  29.2825006  43.4505017
  52.3079987  29.3925006  44.4085017  51.5509987  30.6865006  42.8595017
  51.0679987  30.5775006  41.8885017  50.6619987  31.5135006  43.7775017
  51.1439987  31.6235006  44.7485017  50.5019987  32.4985006  43.3385017
  49.7029987  31.0115006  43.9035017  52.8729987  31.3945006  42.6005017
  53.4649987  30.8125006  41.8945017  52.6809987  32.3835006  42.1835017
  53.4209987  31.4955006  43.5375017  50.4569987  28.6265006  43.7695017
  49.7389987  28.1715006  42.8765017  50.1229987  28.5905006  45.0505017
  50.7639987  28.9335006  45.7515017  48.8519987  28.0455006  45.4885017
  48.6219987  27.1355006  44.9345017  48.9209987  27.7075006  46.9705017
  49.2529987  28.6075006  47.4885017  47.9089987  27.4585006  47.2885017
  49.8539987  26.5575006  47.3065017  49.3769987  25.6115006  47.0495017
  50.7809987  26.6615006  46.7425017  50.1609987  26.5815006  48.7915017
  50.9779987  27.2825006  48.9615017  49.2719987  26.9255006  49.3195017
  50.5449987  25.2805006  49.3215017  50.3129987  24.4685006  48.7675017
  51.1649987  25.0985006  50.4875017  51.4909987  26.1345006  51.2575017
  51.2669987  27.0725006  50.9575017  51.9609987  25.9775006  52.1375017
  51.4759987  23.8695006  50.8835017  51.2409987  23.0795006  50.2995017
  51.9459987  23.7305006  51.7665017  47.7129987  29.0325006  45.2525017
  47.9339987  30.2425006  45.1335017  46.4889987  28.5105006  45.2185017
  46.3669987  27.5125006  45.3115017  45.3059987  29.3335006  44.9825017
  45.4179987  29.8845006  44.0485017  44.0599987  28.4545006  44.8845017
  43.9889987  27.8865006  45.8125017  43.1999987  29.1185006  44.7985017
  44.0809987  27.4935006  43.7005017  44.8189987  27.8525006  42.9835017
  44.3779987  26.5105006  44.0645017  42.7209987  27.3935006  43.0225017
  42.7159987  26.4995006  42.3985017  41.9599987  27.2985006  43.7975017
  42.4189987  28.6185006  42.1595017  41.3359987  28.7085006  42.0705017
  42.8149987  29.4955006  42.6705017  43.0209987  28.5215006  40.8025017
  42.6529987  27.7085006  40.3285017  42.7939987  29.3515006  40.2735017
  44.0239987  28.4385006  40.8845017  45.1229987  30.3895006  46.0675017
  44.5789987  31.4655006  45.8115017  45.5869987  30.0805006  47.2745017
  45.9539987  29.1555006  47.4495017  45.4859987  31.0095006  48.3985017
  44.5759987  31.6015006  48.3005017  45.4389987  30.2525006  49.7435017
  45.1339987  30.9545006  50.5195017  44.6839987  29.4735006  49.6425017
  46.7699987  29.6215006  50.1255017  47.8109987  30.2965006  49.9765017
  46.7669987  28.4575006  50.5885017  46.6009987  32.0485006  48.4025017
  46.5529987  32.9855006  49.1905017  47.6119987  31.8685006  47.5555017
  47.6739987  31.0165006  47.0165017  48.6549987  32.8805006  47.3765017
  48.6709987  33.1185006  46.3125017  48.3309987  33.7555006  47.9395017
  50.0569987  32.4995006  47.8185017  51.0279987  33.1095006  47.3695017
  50.1739987  31.5035006  48.6935017  49.3519987  31.0755006  49.0955017
  51.4859987  31.0555006  49.1585017  52.0809987  31.9195006  49.4535017
  51.3549987  30.1205006  50.3575017  50.7029987  29.2965006  50.0685017
  52.3469987  29.7335006  50.5895017  50.7819987  30.8135006  51.5845017
  51.1089987  31.8535006  51.5715017  49.6949987  30.7745006  51.5205017
  51.2369987  30.1565006  52.8755017  50.9549987  29.1035006  52.8515017
  52.3209987  30.2395006  52.9475017  50.5959987  30.8255006  54.0815017
  50.6829987  31.9055006  53.9635017  49.5419987  30.5475006  54.1105017
  51.2529987  30.4115006  55.3505017  52.2289987  30.6695006  55.3245017
  50.8039987  30.8735006  56.1285017  51.1719987  29.4105006  55.4605017
  52.2809987  30.3805006  48.0495017  51.7089987  29.8055006  47.1255017
  53.6049987  30.4565006  48.1625017  54.0029987  30.8325006  49.0115017
  54.5109987  30.0335006  47.1035017  53.9529987  29.8125006  46.1935017
  55.4989987  31.1475006  46.8085017  56.0669987  31.4215006  47.6975017
  56.1859987  30.8685006  46.0095017  54.6789987  32.6505006  46.2585017
  55.7889987  33.3655006  46.1025017  55.2789987  28.7875006  47.4835017
  55.8719987  28.7265006  48.5585017  55.2849987  27.8135006  46.5775017
  54.7909987  27.9515006  45.7075017  55.9339987  26.5305006  46.8065017
  55.8709987  26.2605006  47.8605017  55.2399987  25.4455006  45.9825017
  55.2429987  25.7595006  44.9385017  55.7899987  24.5095006  46.0815017
  53.8099987  25.2125006  46.4125017  53.4929987  25.2595006  47.5985017
  52.9379987  24.9425006  45.4485017  51.9689987  24.7785006  45.6805017
  53.2479987  24.9025006  44.4885017  57.4199987  26.5555006  46.4685017
  57.8519987  25.9335006  45.5025017  58.1989987  27.2695006  47.2775017
  57.7799987  27.7745006  48.0455017  59.6469987  27.3655006  47.0915017
  60.0579987  26.5025006  46.5675017  60.0289987  28.6405006  46.3165017
  59.6219987  29.5045006  46.8415017  61.5419987  28.7805006  46.2065017
  61.9499987  27.9175006  45.6805017  61.7839987  29.6885006  45.6545017
  61.9759987  28.8355006  47.2045017  59.3739987  28.6495006  44.9375017
  58.2899987  28.6165006  45.0495017  59.6569987  29.5585006  44.4065017
  59.7069987  27.7795006  44.3705017  60.3539987  27.3875006  48.4375017
  59.8909987  28.0285006  49.3755017  61.4729987  26.6805006  48.5255017
  61.7449987  26.0735006  47.7655017  62.3079987  26.7075006  49.7225017
  61.9049987  27.4355006  50.4265017  62.3519987  25.3355006  50.4075017
  62.5829987  24.5475006  49.6905017  63.1139987  25.3525006  51.1865017
  61.0639987  24.9455006  51.0745017  60.1959987  25.8665006  51.6285017
  59.1609987  25.2365006  52.1535017  58.3589987  25.7925006  52.6395017
  59.3259987  23.9395006  51.9645017  58.6909987  23.2125006  52.2605017
  60.5079987  23.7295006  51.2965017  60.8229987  22.7155006  51.0515017
  63.7039987  27.1625006  49.3505017  64.2369987  26.7865006  48.3095017
  64.2909987  27.9845006  50.2055017  63.8199987  28.2525006  51.0575017
  65.5839987  28.5655006  49.9255017  65.8079987  28.5075006  48.8605017
  65.5649987  30.0265006  50.3385017  65.4199987  30.0795006  51.4175017
  66.4819987  30.5505006  50.0695017  64.4409987  30.7875006  49.7195017
  64.5079987  31.3035006  48.4445017  63.3679987  31.9065006  48.1575017
  63.2259987  32.3905006  47.1915017  62.5599987  31.7895006  49.1945017
  61.6209987  32.1555006  49.2625017  63.2039987  31.0825006  50.1815017
  62.6929987  30.8675006  51.1195017  66.6589987  27.7825006  50.6575017
  66.9299987  28.0305006  51.8275017  67.2589987  26.8255006  49.9585017
  67.0299987  26.7055006  48.9825017  68.2449987  25.9325006  50.5505017
  68.0809987  25.9155006  51.6275017  68.0839987  24.9345006  50.1425017
  69.6749987  26.3525006  50.2765017  69.9529987  27.0765006  49.3215017
  70.5819987  25.8735006  51.1225017  70.2659987  25.3475006  51.9245017
  72.0099987  26.1585006  50.9995017  72.5319987  25.7815006  51.8785017
  72.6019987  25.4925006  49.7565017  72.1239987  25.8935006  48.8625017
  73.6689987  25.7155006  49.7285017  72.4219987  23.9895006  49.7675017
  73.3159987  23.2535006  50.1825017  71.2549987  23.5255006  49.3295017
  71.0839987  22.5305006  49.3165017  70.5449987  24.1705006  49.0125017
  72.3009987  27.6455006  51.0015017  73.0859987  28.1355006  50.1945017
  71.6519987  28.3555006  51.9195017  70.8889987  27.9405006  52.4355017
  71.9979987  29.7385006  52.1955017  72.2059987  30.2845006  51.2755017
  70.8769987  30.4665006  52.9565017  70.6489987  29.9115006  53.8665017
  71.3069987  31.8825006  53.3205017  71.5349987  32.4385006  52.4115017
  70.4999987  32.3805006  53.8585017  72.1939987  31.8425006  53.9525017
  69.6089987  30.4915006  52.1225017  69.2919987  29.4705006  51.9115017
  68.8229987  31.0095006  52.6715017  69.8009987  31.0125006  51.1845017
  73.2789987  29.7125006  53.0255017  73.2359987  29.5605006  54.2495017
  74.4189987  29.8295006  52.3485017  74.3999987  29.9145006  51.3425017
  75.7179987  29.7555006  53.0135017  75.7839987  28.8355006  53.5935017
  76.8509987  29.7655006  51.9795017  76.7199987  28.9335006  51.2875017
  76.8299987  30.7045006  51.4255017  78.1919987  29.6265006  52.6935017
  78.3239987  30.4585006  53.3855017  78.2139987  28.6875006  53.2465017
  79.3179987  29.6375006  51.6665017  79.1869987  28.8065006  50.9735017
  79.2969987  30.5765006  51.1135017  80.6359987  29.5035006  52.3235017
  80.6669987  29.4225006  53.3295017  81.7829987  29.4845006  51.6495017
  81.8229987  29.5855006  50.3245017  80.9639987  29.6795006  49.8025017
  82.7119987  29.5675006  49.8465017  82.9119987  29.3605006  52.3425017
  82.8769987  29.2845006  53.3495017  83.7979987  29.3425006  51.8585017
  75.9009987  30.8895006  54.0325017  76.4139987  30.6605006  55.1275017
  75.4589987  32.0975006  53.6815017  74.9979987  32.2185006  52.7915017
  75.6779987  33.2805006  54.5165017  76.5019987  33.1035006  55.2075017
  76.0269987  34.4815006  53.6375017  75.3129987  34.5135006  52.8145017
  75.9229987  35.3815006  54.2435017  77.4369987  34.4075006  53.0805017
  78.1199987  34.5695006  53.9145017  77.5889987  33.4065006  52.6755017
  77.7069987  35.4325006  52.0035017  76.9269987  35.4905006  51.0285017
  78.7049987  36.1725006  52.1235017  74.4709987  33.5925006  55.3865017
  73.7729987  34.5765006  55.1715017  74.2429987  32.7555006  56.3875017
  74.8799987  31.9925006  56.5655017  73.0539987  32.8735006  57.2245017
  72.1769987  33.0285006  56.5965017  72.8509987  31.5945006  58.0415017
  72.0199987  31.7425006  58.7305017  72.5479987  30.4245006  57.1295017
  73.3789987  30.2755006  56.4405017  72.4069987  29.5245006  57.7275017
  71.6399987  30.6305006  56.5635017  74.0459987  31.3115006  58.7765017
  73.9229987  30.5105006  59.2905017  73.0749987  34.0625006  58.1905017
  72.0249987  34.4725006  58.6765017  74.2519987  34.6175006  58.4765017
  75.0999987  34.2195006  58.0985017  74.3649987  35.7835006  59.3685017
  74.0299987  35.5075006  60.3685017  75.8159987  36.2825006  59.4565017
  75.8399987  37.0205006  60.2575017  76.4669987  35.4475006  59.7135017
  76.2949987  36.9185006  58.1705017  76.0039987  38.2465006  57.8825017
  75.4399987  38.8305006  58.6105017  76.4159987  38.8295006  56.6975017
  76.1869987  39.8745006  56.4885017  77.1279987  38.0795006  55.7775017
  77.5279987  38.6635006  54.6025017  77.2609987  39.5825006  54.5305017
  77.4299987  36.7575006  56.0325017  77.9929987  36.1665006  55.3095017
  77.0109987  36.1825006  57.2205017  77.2379987  35.1375006  57.4295017
  73.4769987  36.9425006  58.9115017  73.0339987  37.7345006  59.7375017
  73.2349987  37.0455006  57.6005017  73.6409987  36.3675006  56.9725017
  72.4389987  38.1415006  57.0245017  72.9339987  39.0905006  57.2275017
  72.2809987  37.9875006  55.5135017  71.6599987  37.1085006  55.3385017
  71.7649987  38.8755006  55.1475017  73.5989987  37.8295006  54.7795017
  74.3789987  38.3235006  55.3595017  73.8249987  36.7665006  54.6995017
  73.5379987  38.4365006  53.3985017  72.5589987  38.2115006  52.9755017
  73.6499987  39.5155006  53.5005017  74.5649987  37.9445006  52.4875017
  75.2069987  37.2455006  52.8335017  74.6959987  38.3605006  51.2305017
  73.8779987  39.2895006  50.7315017  73.1509987  39.6825006  51.3125017
  73.9899987  39.5955006  49.7755017  75.6509987  37.8545006  50.4645017
  76.2759987  37.1545006  50.8385017  75.7499987  38.1705006  49.5105017
  71.0649987  38.2325006  57.6575017  70.5239987  39.3255006  57.8115017
  70.5149987  37.0815006  58.0265017  70.9439987  36.2135006  57.7375017
  69.2639987  37.0195006  58.7695017  68.4749987  37.5295006  58.2175017
  68.8519987  35.5575006  58.9755017  69.6699987  35.0715006  59.5075017
  67.9599987  35.5555006  59.6015017  68.5669987  34.8025006  57.6855017
  67.5489987  35.2065006  56.8275017  66.9509987  36.0775006  57.0955017
  67.2889987  34.5235006  55.6505017  66.4949987  34.8625006  54.9855017
  68.0389987  33.4095006  55.3205017  67.7729987  32.7235006  54.1525017
  67.0499987  33.1055006  53.6495017  69.0509987  32.9855006  56.1565017
  69.6459987  32.1085006  55.9005017  69.3099987  33.6805006  57.3265017
  70.1099987  33.3525006  57.9895017  69.3599987  37.7625006  60.1175017
  68.3869987  38.3865006  60.5645017  70.5369987  37.7025006  60.7475017
  71.2599987  37.0945006  60.3905017  70.8009987  38.4465006  61.9845017
  69.9009987  38.4485006  62.5985017  71.9449987  37.8235006  62.7935017
  72.8079987  38.0475006  62.1665017  72.0149987  38.3885006  63.7225017
  71.9179987  36.3165006  63.1105017  72.3439987  35.7635006  62.2735017
  72.7349987  36.0405006  64.3705017  72.3099987  36.5935006  65.2085017
  72.7139987  34.9735006  64.5915017  73.7659987  36.3575006  64.2125017
  70.5069987  35.7555006  63.2715017  69.9479987  35.9055006  62.3475017
  70.5619987  34.6895006  63.4935017  70.0019987  36.2705006  64.0885017
  71.1219987  39.9085006  61.7075017  70.8439987  40.7605006  62.5375017
  71.7049987  40.2025006  60.5485017  71.9889987  39.4635006  59.9215017
  72.0069987  41.5845006  60.1745017  72.6159987  42.0315006  60.9605017
  72.7729987  41.6805006  58.8455017  72.0889987  41.4665006  58.0245017
  73.3519987  43.0685006  58.6705017  74.0359987  43.2835006  59.4915017
  73.8919987  43.1215006  57.7245017  72.5449987  43.8015006  58.6695017
  73.8439987  40.7355006  58.8335017  74.3179987  40.8005006  58.0015017
  70.7489987  42.4445006  60.0735017  70.7229987  43.5475006  60.6175017
  69.7179987  41.9705006  59.3725017  69.8489987  41.2685006  58.6585017
  68.4049987  42.6415006  59.4615017  68.5169987  43.5155006  60.1025017
  67.8339987  43.0995006  58.0945017  66.9619987  43.7125006  58.3225017
  68.5869987  43.7105006  57.5965017  67.4279987  41.9675006  57.1895017
  68.1079987  40.9235006  57.1975017  66.4339987  42.1465006  56.4485017
  67.4289987  41.8195006  60.3085017  66.4509987  41.2415006  59.8275017
  67.7369987  41.8125006  61.5985017  68.5799987  42.2845006  61.8935017
  66.9719987  41.0875006  62.5935017  66.8979987  40.0215006  62.3795017
  67.5899987  41.2905006  64.0005017  68.6649987  41.1245006  63.9365017
  67.3239987  42.6975006  64.5185017  66.2489987  42.8645006  64.5835017
  67.7689987  42.8115006  65.5075017  67.7639987  43.4255006  63.8365017
  67.0899987  40.2215006  64.9835017  67.2709987  40.5955006  65.9915017
  66.0169987  40.1105006  64.8255017  67.7679987  38.8755006  64.8155017
  68.8409987  38.9865006  64.9745017  67.3639987  38.1715006  65.5435017
  67.5869987  38.5005006  63.8085017  65.4829987  41.4645006  62.6055017
  64.6289987  40.6035006  62.8195017  65.1629987  42.7365006  62.3765017
  65.8669987  43.4335006  62.1795017  63.7689987  43.1705006  62.4845017
  63.3919987  42.9015006  63.4715017  63.6139987  44.6765006  62.2965017
  64.3719987  45.1945006  62.8835017  63.7119987  44.9575006  61.2475017
  62.2839987  45.1975006  62.7575017  62.0159987  45.3375006  64.1165017
  62.7879987  45.0695006  64.8375017  60.7909987  45.8095006  64.5575017
  60.5979987  45.9215006  65.6245017  59.8069987  46.1405006  63.6355017
  58.8409987  46.5105006  63.9785017  60.0539987  45.9995006  62.2755017
  59.2839987  46.2585006  61.5485017  61.2869987  45.5265006  61.8425017
  61.4819987  45.4095006  60.7765017  62.8889987  42.4315006  61.4885017
  61.7969987  41.9885006  61.8325017  63.3769987  42.2795006  60.2625017
  64.2229987  42.7565006  59.9845017  62.6399987  41.5365006  59.2525017
  61.6359987  41.9575006  59.1945017  63.2969987  41.6265006  57.8515017
  64.2269987  41.0575006  57.8615017  62.3759987  41.0685006  56.7905017
  61.4459987  41.6375006  56.7795017  62.8579987  41.1415006  55.8155017
  62.1589987  40.0235006  57.0105017  63.5629987  42.9935006  57.5145017
  63.9689987  43.0355006  56.6455017  62.4359987  40.0765006  59.7125017
  61.3079987  39.5945006  59.6635017  63.4819987  39.3875006  60.1905017
  64.4029987  39.7995006  60.2405017  63.3059987  37.9995006  60.6785017
  62.9489987  37.3785006  59.8575017  64.5809987  37.3555006  61.2665017
  64.2819987  36.4605006  61.8125017  65.5749987  36.9895006  60.2195017
  65.8739987  37.8845006  59.6735017  66.4499987  36.5415006  60.6895017
  65.1289987  36.2745006  59.5285017  65.1889987  38.2535006  62.1905017
  65.9809987  37.8505006  62.5545017  62.2779987  37.9205006  61.7975017
  61.4819987  36.9865006  61.8345017  62.3139987  38.8795006  62.7175017
  63.0039987  39.6145006  62.6605017  61.4099987  38.8675006  63.8615017
  61.5179987  37.9275006  64.4035017  61.7219987  40.0165006  64.8125017
  62.2869987  40.7265006  64.2085017  60.8009987  40.4865006  65.1585017
  62.5589987  39.5945006  66.0145017  63.2559987  38.8185006  65.6985017
  63.3379987  40.7765006  66.5845017  62.6409987  41.5525006  66.9005017
  63.9259987  40.4455006  67.4405017  64.0039987  41.1765006  65.8195017
  61.6499987  38.9575006  67.0625017  61.1589987  38.0835006  66.6355017
  62.2449987  38.6545006  67.9245017  60.8969987  39.6795006  67.3775017
  59.9519987  38.9365006  63.4415017  59.1649987  38.0635006  63.7865017
  59.5989987  39.9775006  62.6965017  60.2729987  40.6995006  62.4865017
  58.2149987  40.1635006  62.2435017  57.5009987  40.0155006  63.0535017
  57.9969987  41.5635006  61.6455017  56.9849987  41.6315006  61.2455017
  58.1869987  42.6155006  62.7195017  59.1989987  42.5485006  63.1195017
  58.0309987  43.6055006  62.2905017  57.4679987  42.4505006  63.5215017
  58.9269987  41.8185006  60.4675017  58.7399987  41.0785006  59.6895017
  58.7449987  42.8175006  60.0695017  59.9629987  41.7425006  60.7985017
  57.7449987  39.0995006  61.2415017  56.5389987  38.8745006  61.0845017
  58.6999987  38.4565006  60.5685017  59.6569987  38.7655006  60.6595017
  58.4109987  37.3495006  59.6525017  57.4979987  37.5635006  59.0965017
  59.5619987  37.1525006  58.6515017  60.4999987  37.2905006  59.1895017
  59.5009987  36.1275006  58.2855017  59.5059987  38.1225006  57.4655017
  58.8219987  39.1725006  57.5355017  60.1669987  37.8245006  56.4495017
  58.1489987  36.0275006  60.3775017  57.6579987  35.0845006  59.7615017
  58.4749987  35.9555006  61.6695017  58.9219987  36.7445006  62.1145017
  58.2719987  34.7295006  62.4605017  58.6949987  33.8765006  61.9305017
  58.9579987  34.8455006  63.8295017  58.8309987  35.8955006  64.0945017
  58.4059987  34.2235006  64.5345017  60.4379987  34.4835006  63.8835017
  60.9169987  34.8725006  62.9845017  61.1219987  35.0625006  65.1135017
  60.6439987  34.6735006  66.0125017  62.1749987  34.7795006  65.1115017
  61.0379987  36.1495006  65.0985017  60.5799987  32.9735006  63.8555017
  60.1399987  32.5835006  62.9375017  61.6359987  32.7065006  63.8935017
  60.0659987  32.5435006  64.7155017  56.7999987  34.3435006  62.6795017
  55.8819987  35.1435006  62.4955017  56.5909987  33.1025006  63.0935017
  57.3539987  32.4435006  63.1455017  55.2609987  32.6485006  63.4695017
  54.5419987  32.9765006  62.7185017  55.1979987  31.1195006  63.5735017
  55.5839987  30.8565006  64.5585017  54.1449987  30.8445006  63.5105017
  55.9839987  30.3695006  62.5025017  55.6579987  30.7295006  61.5265017
  57.0419987  30.5945006  62.6375017  55.7709987  28.8675006  62.5845017
  56.5579987  28.3805006  62.0075017  55.8509987  28.5695006  63.6305017
  54.4139987  28.4515006  62.0415017  53.6549987  28.6995006  62.7825017
  54.2229987  29.0105006  61.1255017  54.3659987  26.9915006  61.7515017
  54.5429987  26.4735006  62.6005017  53.4529987  26.7495006  61.3935017
  55.0689987  26.7615006  61.0645017  54.9489987  33.2885006  64.8135017
  55.8599987  33.5875006  65.5845017  53.6669987  33.4995006  65.0905017
  52.9649987  33.2475006  64.4085017  53.2339987  34.1955006  66.3135017
  53.6849987  35.1875006  66.3465017  51.7029987  34.3495006  66.3525017
  51.2439987  33.5375006  65.7885017  51.3149987  34.3485006  67.3715017
  51.2429987  35.6195006  65.7225017  50.6719987  35.7735006  64.4935017
  50.5149987  34.8705006  63.9045017  50.4089987  37.1015006  64.2605017
  49.9889987  37.4805006  63.4245017  50.8139987  37.8305006  65.3485017
  50.7569987  39.2035006  65.5855017  50.3279987  39.8485006  64.8185017
  51.2479987  39.6565006  66.7765017  51.2189987  40.7225006  67.0005017
  51.7919987  38.7775006  67.7245017  52.1829987  39.1515006  68.6705017
  51.8499987  37.4215006  67.4925017  52.2869987  36.7835006  68.2605017
  51.3499987  36.9265006  66.2855017  53.7319987  33.5505006  67.6035017
  54.1969987  34.2385006  68.5125017  53.6379987  32.2315006  67.6785017
  53.1569987  31.7035006  66.9645017  54.1639987  31.5165006  68.8265017
  53.5659987  31.7495006  69.7075017  54.1229987  29.9985006  68.5935017
  54.3839987  29.5325006  69.5435017  53.0919987  29.7525006  68.3395017
  55.0529987  29.4795006  67.5005017  54.7389987  29.9115006  66.5505017
  56.0669987  29.8065006  67.7305017  55.0199987  27.9615006  67.4025017
  55.9239987  27.6275006  66.8935017  54.9979987  27.5495006  68.4115017
  53.8589987  27.4635006  66.6685017  53.2079987  28.1535006  66.3225017
  53.6089987  26.1775006  66.4285017  54.4359987  25.2265006  66.8625017
  55.2649987  25.4805006  67.3805017  54.2299987  24.2565006  66.6705017
  52.5199987  25.8385006  65.7495017  51.8899987  26.5565006  65.4205017
  52.3259987  24.8645006  65.5655017  55.5899987  31.9715006  69.1445017
  55.9529987  32.1165006  70.3075017  56.3869987  32.2125006  68.1095017
  56.0499987  32.0775006  67.1675017  57.7889987  32.5545006  68.2985017
  58.1909987  32.0345006  69.1675017  58.5819987  32.1375006  67.0745017
  58.1479987  32.5595006  66.1675017  59.6169987  32.4665006  67.1685017
  58.6209987  30.6535006  66.8805017  59.2219987  29.8355006  67.8315017
  59.6649987  30.2905006  68.7175017  59.2629987  28.4655006  67.6655017
  59.7389987  27.8355006  68.4165017  58.6979987  27.8935006  66.5425017
  58.7279987  26.8125006  66.4085017  58.0939987  28.6935006  65.5865017
  57.6509987  28.2435006  64.6985017  58.0529987  30.0665006  65.7605017
  57.5709987  30.6965006  65.0125017  58.0309987  34.0205006  68.6445017
  58.9759987  34.3315006  69.3745017  57.1919987  34.9185006  68.1325017
  56.5459987  34.6645006  67.3995017  57.1969987  36.3035006  68.6025017
  58.2029987  36.7105006  68.4985017  56.2329987  37.1795006  67.8105017
  55.3569987  36.5855006  67.5505017  55.9289987  38.0245006  68.4285017
  56.8499987  37.7085006  66.5415017  57.1549987  36.9465006  65.6305017
  57.0439987  39.0195006  66.4755017  57.4549987  39.4255006  65.6465017
  56.7799987  39.6055006  67.2545017  56.8089987  36.3515006  70.0605017
  57.5269987  36.9105006  70.8785017  55.6759987  35.7425006  70.3875017
  55.1009987  35.3135006  69.6765017  55.1869987  35.7475006  71.7605017
  55.1039987  36.7735006  72.1185017  53.8109987  35.0885006  71.8435017
  53.9689987  34.1075006  71.3955017  53.5139987  34.9675006  72.8855017
  52.7069987  35.8265006  71.0805017  53.0679987  36.0615006  70.0795017
  51.4509987  34.9665006  70.9795017  51.0889987  34.7315006  71.9805017
  50.6799987  35.5105006  70.4335017  51.6849987  34.0415006  70.4515017
  52.4049987  37.1755006  71.7245017  53.3049987  37.7905006  71.7185017
  51.6179987  37.6785006  71.1635017  52.0769987  37.0225006  72.7525017
  56.1649987  35.0715006  72.7175017  56.2279987  35.4285006  73.8925017
  56.9299987  34.1075006  72.2135017  56.8139987  33.8205006  71.2525017
  57.9389987  33.4285006  73.0225017  57.5009987  33.1315006  73.9755017
  58.4649987  32.1785006  72.3155017  57.6059987  31.7415006  71.8075017
  59.2189987  32.4565006  71.5795017  59.0529987  31.1615006  73.2845017
  59.4129987  31.6565006  74.1865017  57.9439987  30.1885006  73.6495017
  57.5839987  29.6925006  72.7485017  58.3289987  29.4425006  74.3445017
  57.1229987  30.7315006  74.1175017  60.2559987  30.4345006  72.6985017
  61.0339987  31.1575006  72.4545017  60.6399987  29.7205006  73.4265017
  59.9559987  29.9045006  71.7945017  59.0959987  34.3745006  73.2885017
  59.4359987  34.6575006  74.4365017  59.6899987  34.8585006  72.2095017
  59.4339987  34.5055006  71.2985017  60.7669987  35.8265006  72.2935017
  61.6189987  35.4215006  72.8395017  61.2179987  36.2475006  70.8745017
  60.3299987  36.4565006  70.2785017  62.1059987  37.4855006  70.9135017
  62.9949987  37.2775006  71.5095017  62.4039987  37.7515006  69.8995017
  61.5559987  38.3135006  71.3595017  61.9569987  35.0825006  70.2015017
  62.9599987  35.0515006  70.6275017  61.4219987  34.1705006  70.4655017
  62.0529987  35.1925006  68.6965017  62.5879987  36.1045006  68.4315017
  62.5889987  34.3295006  68.3025017  61.0509987  35.2235006  68.2695017
  60.3209987  37.0265006  73.1395017  61.0449987  37.4775006  74.0265017
  59.1119987  37.5155006  72.8915017  58.5479987  37.1385006  72.1435017
  58.5909987  38.6465006  73.6465017  59.2129987  39.5215006  73.4595017
  57.1509987  38.9745006  73.2425017  57.0459987  38.8965006  72.1605017
  56.4559987  38.2875006  73.7255017  56.7129987  40.3625006  73.6175017
  56.2599987  40.6375006  74.9005017  56.2299987  39.8345006  75.6365017
  55.8479987  41.9165006  75.2515017  55.4959987  42.1185006  76.2635017
  55.8839987  42.9355006  74.3155017  55.5599987  43.9415006  74.5835017
  56.3339987  42.6715006  73.0335017  56.3649987  43.4715006  72.2945017
  56.7449987  41.3915006  72.6885017  57.0979987  41.1865006  71.6775017
  58.6759987  38.3495006  75.1375017  59.2299987  39.1435006  75.8935017
  58.1599987  37.1995006  75.5585017  57.6889987  36.5775006  74.9175017
  58.2279987  36.8195006  76.9705017  57.7739987  37.5775006  77.6095017
  57.5389987  35.4695006  77.2435017  57.8969987  34.7355006  76.5215017
  57.8529987  34.9875006  78.6555017  57.4949987  35.7205006  79.3785017
  57.3589987  34.0325006  78.8325017  58.9299987  34.8645006  78.7665017
  56.0339987  35.5765006  77.0315017  55.8319987  35.8715006  76.0015017
  55.5689987  34.6105006  77.2305017  55.6229987  36.3235006  77.7105017
  59.6689987  36.7255006  77.4615017  59.9849987  37.1825006  78.5595017
  60.5319987  36.1305006  76.6435017  60.2169987  35.7875006  75.7475017
  61.9219987  35.8945006  77.0255017  61.9579987  35.4395006  78.0155017
  62.6069987  34.9565006  76.0315017  62.4429987  35.3645006  75.0345017
  63.6729987  34.9665006  76.2575017  62.0919987  33.5275006  76.0845017
  61.5609987  33.3895006  77.0265017  61.4009987  33.3815006  75.2535017
  63.4199987  32.3145006  75.9705017  64.2729987  32.5785006  77.5305017
  63.5869987  32.3925006  78.3565017  65.1199987  31.8965006  77.6015017
  64.6299987  33.6075006  77.5805017  62.7299987  37.1755006  77.1445017
  63.4509987  37.3685006  78.1225017  62.6089987  38.0455006  76.1475017
  62.0059987  37.8395006  75.3635017  63.3759987  39.2905006  76.1245017
  64.4469987  39.0865006  76.1095017  63.0219987  40.1545006  74.8955017
  61.9389987  40.2625006  74.8415017  63.6619987  41.5275006  74.9995017
  64.7449987  41.4205006  75.0535017  63.3989987  42.1185006  74.1225017
  63.3019987  42.0295006  75.8975017  63.4729987  39.4705006  73.6165017
  62.9749987  38.5045006  73.5255017  63.2149987  40.0935006  72.7605017
  64.5519987  39.3215006  73.6445017  63.1289987  40.0795006  77.4055017
  64.0599987  40.6305006  77.9975017  61.8669987  40.1115006  77.8285017
  61.1399987  39.7155006  77.2505017  61.4779987  40.8055006  79.0475017
  61.9739987  41.7745006  79.0945017  59.9579987  41.0295006  79.0775017
  59.4909987  40.1315006  78.6735017  59.6619987  41.1555006  80.1185017
  59.5099987  42.2345006  78.2765017  59.1279987  42.1115006  76.9455017
  59.1509987  41.1235006  76.4865017  58.7229987  43.2125006  76.2035017
  58.4209987  43.0975006  75.1625017  58.6939987  44.4535006  76.7945017
  58.2989987  45.5455006  76.0665017  58.0669987  45.3285006  75.1605017
  59.0709987  44.6075006  78.1155017  59.0519987  45.5925006  78.5815017
  59.4739987  43.5015006  78.8485017  59.7689987  43.6165006  79.8915017
  61.9659987  40.0965006  80.3245017  62.5119987  40.7475006  81.2095017
  61.7929987  38.7795006  80.4215017  61.3319987  38.2625006  79.6865017
  62.2019987  38.0525006  81.6375017  61.8109987  38.5765006  82.5095017
  61.6799987  36.6045006  81.6585017  62.2259987  36.0455006  82.4185017
  60.1989987  36.5695006  81.9725017  59.6529987  37.1275006  81.2125017
  59.8529987  35.5355006  81.9815017  60.0239987  37.0195006  82.9495017
  61.8959987  36.0075006  80.3805017  61.5709987  35.1045006  80.3905017
  63.7169987  38.0175006  81.8545017  64.1719987  38.0685006  82.9975017
  64.4979987  37.9275006  80.7775017  64.1029987  37.7785006  79.8595017
  65.9629987  37.9445006  80.9125017  66.2989987  37.3645006  81.7715017
  66.7189987  37.4505006  79.6565017  67.7919987  37.5075006  79.8415017
  66.3349987  36.0125006  79.3375017  65.2629987  35.9555006  79.1515017
  66.8749987  35.6795006  78.4515017  66.5919987  35.3715006  80.1805017
  66.4949987  38.3745006  78.4655017  66.8519987  39.3755006  78.7095017
  67.0419987  37.9945006  77.6025017  65.4309987  38.4155006  78.2315017
  66.5069987  39.3155006  81.2935017  67.4749987  39.3925006  82.0365017
  65.9129987  40.3945006  80.7935017  65.1729987  40.3335006  80.1095017
  66.3749987  41.7165006  81.1955017  67.4569987  41.7685006  81.0705017
  65.7299987  42.8725006  80.3995017  65.9249987  43.8105006  80.9185017
  66.3029987  42.9415006  78.9995017  66.1079987  42.0035006  78.4795017
  65.8359987  43.7625006  78.4555017  67.3789987  43.1085006  79.0545017
  64.3129987  42.6935006  80.3255017  63.9249987  43.4175006  79.8285017
  66.0979987  41.8995006  82.6785017  66.9969987  42.2355006  83.4445017
  64.8599987  41.6495006  83.0835017  64.1439987  41.4135006  82.4105017
  64.4739987  41.7925006  84.4815017  64.6729987  42.8115006  84.8135017
  62.9799987  41.4985006  84.6695017  62.7479987  40.5395006  84.2055017
  62.7179987  41.4625006  85.7275017  62.0769987  42.5065006  84.0405017
  62.2919987  43.8505006  83.9405017  63.2259987  44.2315006  84.3545017
  61.2299987  44.4555006  83.3085017  61.1489987  45.4425006  83.1105017
  60.3009987  43.5055006  82.9945017  59.0689987  43.6365006  82.3565017
  58.7519987  44.6295006  82.0385017  58.3319987  42.5045006  82.1685017
  57.3639987  42.5665006  81.6715017  58.7939987  41.2545006  82.6035017
  58.1959987  40.3565006  82.4505017  60.0259987  41.1195006  83.2415017
  60.3439987  40.1245006  83.5545017  60.7979987  42.2625006  83.4445017
  65.3179987  40.9045006  85.4075017  65.6279987  41.3115006  86.5285017
  65.6829987  39.7055006  84.9525017  65.3349987  39.3645006  84.0675017
  66.5969987  38.8535006  85.7135017  66.2459987  38.7805006  86.7425017
  66.6789987  37.4455006  85.1245017  66.6589987  37.6365006  84.0515017
  67.6589987  37.0595006  85.4055017  65.6069987  36.4185006  85.4785017
  64.6209987  36.8235006  85.2525017  65.8369987  35.1575006  84.6575017
  66.8229987  34.7515006  84.8835017  65.0749987  34.4185006  84.9045017
  65.7779987  35.3985006  83.5965017  65.6109987  36.0945006  86.9665017
  65.4189987  37.0025006  87.5375017  64.8349987  35.3605006  87.1815017
  66.5829987  35.6885006  87.2475017  67.9859987  39.4535006  85.6935017
  68.6159987  39.6265006  86.7385017  68.4589987  39.7675006  84.4915017
  67.9039987  39.5885006  83.6665017  69.8029987  40.2965006  84.3175017
  70.5259987  39.5535006  84.6535017  70.0959987  40.6365006  82.8525017
  70.1629987  39.7015006  82.2965017  69.3349987  41.2735006  82.4005017
  71.4049987  41.3375006  82.6695017  72.5979987  40.6515006  82.8915017
  72.5629987  39.5975006  83.1675017  73.8139987  41.2925006  82.7655017
  74.7429987  40.7485006  82.9355017  73.8499987  42.6355006  82.4205017
  74.8089987  43.1415006  82.3125017  72.6669987  43.3365006  82.2125017
  72.6969987  44.3935006  81.9475017  71.4509987  42.6905006  82.3425017
  70.5229987  43.2405006  82.1885017  70.0549987  41.5255006  85.1915017
  71.1149987  41.6515006  85.7985017  69.0909987  42.4355006  85.2435017
  68.2719987  42.3615006  84.6565017  69.2229987  43.6085006  86.1015017
  70.2379987  43.9995006  86.0295017  68.2439987  44.7095006  85.6845017
  67.2999987  44.2705006  85.3615017  68.0619987  45.3875006  86.5185017
  68.7379987  45.5525006  84.5445017  69.6659987  46.5575006  84.7675017
  70.0339987  46.7275006  85.7795017  70.1249987  47.3405006  83.7235017
  70.8529987  48.1295006  83.9115017  69.6589987  47.1205006  82.4385017
  70.0219987  47.7325006  81.6125017  68.7329987  46.1235006  82.2035017
  68.3599987  45.9485006  81.1945017  68.2789987  45.3465006  83.2515017
  67.5489987  44.5575006  83.0685017  69.0129987  43.2245006  87.5585017
  69.6919987  43.7325006  88.4405017  68.0769987  42.3175006  87.7975017
  67.5439987  41.9365006  87.0285017  67.7839987  41.8445006  89.1395017
  67.3709987  42.6745006  89.7125017  67.0419987  41.0495006  89.0675017
  69.0079987  41.3135006  89.8535017  69.1579987  41.5165006  91.0605017
  69.8819987  40.6295006  89.1165017  69.6689987  40.3835006  88.1605017
  71.1179987  40.1195006  89.7035017  70.9059987  39.7255006  90.6975017
  71.7359987  38.9965006  88.8505017  72.6139987  38.6445006  89.3915017
  70.9939987  38.1995006  88.8035017  72.1379987  39.3975006  87.4395017
  71.2679987  39.2385006  86.8025017  72.3789987  40.4605006  87.4655017
  73.5449987  38.4855006  86.7635017  74.9009987  39.1225006  87.7525017
  74.7159987  38.9075006  88.8045017  75.8319987  38.6465006  87.4435017
  74.9799987  40.2005006  87.6105017  72.1059987  41.2675006  89.9395017
  72.8179987  41.2755006  90.9405017  72.1199987  42.2515006  89.0395017
  71.5339987  42.1985006  88.2185017  73.0029987  43.4115006  89.1885017
  74.0129987  43.0855006  89.4365017  73.0439987  44.2955006  87.9215017
  72.0379987  44.6605006  87.7125017  73.9819987  45.4805006  88.1235017
  74.9879987  45.1165006  88.3325017  73.9969987  46.0905006  87.2205017
  73.6319987  46.0825006  88.9625017  73.4709987  43.4835006  86.6875017
  72.8939987  42.5585006  86.7085017  73.1839987  44.0705006  85.8145017
  74.9469987  43.1555006  86.6115017  75.2349987  42.5685006  87.4835017
  75.1459987  42.5815006  85.7065017  75.5239987  44.0795006  86.5895017
  72.5459987  44.2585006  90.3725017  73.3719987  44.8295006  91.0695017
  71.2309987  44.3415006  90.5845017  70.5939987  43.9685006  89.8945017
  70.6639987  44.9935006  91.7785017  71.0979987  45.9875006  91.8855017
  69.1359987  45.1325006  91.6755017  68.7069987  44.2175006  91.2685017
  68.7089987  45.3275006  92.6595017  68.6869987  46.2495006  90.7845017
  68.0289987  46.1395006  89.5935017  67.7989987  45.1305006  89.2515017
  67.7919987  47.3825006  89.0665017  67.3229987  47.5735006  88.1925017
  68.2969987  48.3245006  89.9195017  68.2989987  49.7095006  89.8175017
  67.8379987  50.1685006  88.9425017  68.8849987  50.4145006  90.8315017
  68.9069987  51.5035006  90.7885017  69.4649987  49.7635006  91.9375017
  69.9309987  50.3345006  92.7405017  69.4619987  48.3875006  92.0385017
  69.9289987  47.9295006  92.9105017  68.8679987  47.6445006  91.0155017
  71.0029987  44.2135006  93.0435017  71.2649987  44.8005006  94.0925017
  70.9809987  42.8895006  92.9365017  70.6599987  42.4565006  92.0825017
  71.3799987  42.0275006  94.0385017  70.8499987  42.3165006  94.9455017
  71.0459987  40.5675006  93.7205017  69.9889987  40.4725006  93.4715017
  71.6489987  40.2055006  92.8875017  71.2989987  39.6435006  94.8635017
  70.4569987  39.3755006  95.8935017  69.4939987  39.8865006  95.8855017
  71.0309987  38.4805006  96.7535017  70.6059987  38.1195006  97.5955017
  72.2779987  38.1555006  96.2895017  73.2469987  37.2935006  96.8205017
  73.0239987  36.7725006  97.7515017  74.4249987  37.1595006  96.1285017
  75.2019987  36.4965006  96.5095017  74.6549987  37.8615006  94.9325017
  75.5919987  37.7495006  94.3875017  73.6939987  38.7195006  94.4095017
  73.9219987  39.2455006  93.4825017  72.4799987  38.8725006  95.0955017
  72.8719987  42.1635006  94.3125017  73.3189987  42.1135006  95.4625017
  73.6339987  42.3375006  93.2385017  73.2029987  42.4285006  92.3295017
  75.0819987  42.3405006  93.3155017  75.4229987  41.4985006  93.9185017
  75.6899987  42.2175006  91.9145017  74.9829987  41.5925006  91.3685017
  75.7169987  43.2115006  91.4675017  77.0759987  41.5935006  91.8455017
  77.7869987  42.2405006  92.3595017  77.0639987  40.2275006  92.5085017
  76.3529987  39.5795006  91.9945017  78.0599987  39.7885006  92.4545017
  76.7699987  40.3325006  93.5525017  77.5299987  41.4915006  90.3985017
  77.5629987  42.4875006  89.9565017  78.5229987  41.0435006  90.3595017
  76.8299987  40.8705006  89.8405017  75.5839987  43.5995006  94.0095017
  76.4719987  43.5235006  94.8585017  75.0059987  44.7485006  93.6555017
  74.3119987  44.7605006  92.9215017  75.3479987  46.0115006  94.3075017
  76.4119987  46.1985006  94.1645017  74.5359987  47.2165006  93.7695017
  73.4729987  47.0225006  93.9095017  74.9209987  48.4815006  94.5135017
  75.9839987  48.6765006  94.3735017  74.3439987  49.3215006  94.1265017
  74.7119987  48.3565006  95.5755017  74.7529987  47.4505006  92.2695017
  74.6589987  46.4815006  91.7795017  73.9519987  48.1075006  91.9305017
  76.0919987  48.0655006  91.9185017  76.8939987  47.4085006  92.2565017
  76.1609987  48.1955006  90.8385017  76.1869987  49.0345006  92.4075017
  75.0559987  45.8595006  95.7955017  75.8509987  46.2675006  96.6395017
  73.9119987  45.2575006  96.1065017  73.2789987  44.9725006  95.3725017
  73.5009987  45.0525006  97.4935017  73.5459987  46.0155006  98.0015017
  72.0689987  44.5375006  97.5525017  72.0099987  43.5695006  97.0555017
  71.7629987  44.4305006  98.5935017  71.4069987  45.2435006  97.0505017
  74.4309987  44.0995006  98.2325017  74.5799987  44.2085006  99.4415017
  75.0419987  43.1685006  97.5055017  74.8709987  43.1175006  96.5115017
  75.9349987  42.1805006  98.1055017  75.5399987  41.8615006  99.0705017
  76.0589987  40.9535006  97.1975017  75.0529987  40.5815006  97.0045017
  76.5049987  41.2975006  96.2635017  76.9059987  39.8385006  97.7815017
  76.5729987  39.2595006  99.0035017  75.6929987  39.6235006  99.5345017
  77.3359987  38.2405006  99.5455017  77.0649987  37.7975006 100.5035017
  78.4459987  37.7825006  98.8615017  79.1979987  36.7725006  99.4075017
  78.8609987  36.4695006 100.2535017  78.7989987  38.3355006  97.6435017
  79.6749987  37.9735006  97.1055017  78.0299987  39.3555006  97.1085017
  78.2989987  39.7945006  96.1475017  77.3179987  42.7545006  98.3615017
  77.8589987  42.6225006  99.4605017  77.8819987  43.3815006  97.3355017
  77.3709987  43.4555006  96.4675017  79.2349987  43.9345006  97.3925017
  79.9399987  43.2015006  97.7845017  79.6999987  44.3995006  95.9945017
  78.9369987  45.0525006  95.5705017  81.0219987  45.1535006  96.0815017
  81.7859987  44.5015006  96.5045017  81.3269987  45.4695006  95.0835017
  80.8999987  46.0295006  96.7185017  79.8269987  43.1905006  95.0545017
  80.7919987  42.7255006  95.2545017  79.0279987  42.4955006  95.3125017
  79.7329987  43.5435006  93.5865017  80.5319987  44.2385006  93.3275017
  79.8319987  42.6385006  92.9875017  78.7679987  44.0085006  93.3855017
  79.2949987  45.1015006  98.3725017  80.3069987  45.3075006  99.0415017
  78.2019987  45.8545006  98.4445017  77.4489987  45.6805006  97.7945017
  78.0589987  46.9585006  99.3905017  78.9139987  47.6305006  99.3225017
  76.7859987  47.7495006  99.0565017  76.8629987  48.0295006  98.0055017
  75.9509987  47.0615006  99.1885017  76.5549987  48.9905006  99.8935017
  76.3699987  48.6915006 100.9255017  77.4469987  49.6155006  99.8515017
  75.3659987  49.7725006  99.3735017  75.6429987  50.2865006  98.4535017
  74.5409987  49.0885006  99.1725017  74.9249987  50.7635006 100.3475017
  74.1259987  50.5215006 100.9165017  75.4999987  51.9505006 100.5305017
  76.5509987  52.3175006  99.8025017  76.9199987  51.6905006  99.1015017
  76.9749987  53.2215006  99.9535017  75.0209987  52.7805006 101.4515017
  74.2239987  52.5065006 102.0075017  75.4569987  53.6815006 101.5905017
  78.0099987  46.4745006 100.8435017  78.4249987  47.1955006 101.7465017
  77.4999987  45.2625006 101.0585017  77.2169987  44.7035006 100.2665017
  77.3299987  44.7005006 102.4005017  77.4969987  43.6255006 102.3365017
  78.0839987  45.1475006 103.0485017  75.9539987  44.9525006 102.9955017
  75.7489987  44.7345006 104.1875017  75.0109987  45.4135006 102.1675017
  75.2579987  45.6285006 101.2125017  73.6239987  45.6365006 102.5945017
  73.6079987  46.3885006 103.3835017  72.7449987  46.1245006 101.4345017
  72.8839987  45.4155006 100.6185017  71.7039987  46.1085006 101.7565017
  73.1059987  47.5215006 100.9575017  73.8619987  48.2325006 101.6455017
  72.6059987  47.9245006  99.8875017  73.0199987  44.3565006 103.1425017
  72.2799987  44.3735006 104.1295017  73.3519987  43.2475006 102.4905017
  73.9799987  43.3055006 101.7015017  72.8229987  41.9435006 102.8565017
  71.7349987  41.9515006 102.7845017  73.3669987  40.8645006 101.9175017
  74.4459987  40.8355006 102.0675017  72.9299987  39.9205006 102.2415017
  73.0649987  41.0825006 100.4345017  73.3459987  42.1095006 100.2005017
  73.7019987  40.3965006  99.8765017  71.3469987  40.8155006  99.9595017
  71.1799987  39.0565006 100.2805017  71.3779987  38.8585006 101.3335017
  70.1669987  38.7365006 100.0355017  71.8929987  38.5055006  99.6675017
  73.2069987  41.6185006 104.2895017  72.3729987  41.1805006 105.0695017
  74.4679987  41.8605006 104.6345017  75.1029987  42.2435006 103.9485017
  75.0049987  41.4885006 105.9495017  74.7459987  40.4535006 106.1745017
  76.5339987  41.6265006 105.9645017  76.7869987  42.6155006 105.5835017
  76.8669987  41.5405006 106.9985017  77.2249987  40.5645006 105.1195017
  77.1009987  40.5825006 103.8715017  77.9009987  39.7055006 105.7145017
  74.3819987  42.2675006 107.1155017  74.2159987  41.7195006 108.2065017
  74.0449987  43.5365006 106.8845017  74.2999987  43.9695006 106.0085017
  73.3519987  44.3515006 107.8865017  73.3189987  43.8125006 108.8335017
  74.0699987  45.6855006 108.1075017  73.8329987  46.3755006 107.2975017
  73.7619987  46.1225006 109.0575017  75.5569987  45.5735006 108.1515017
  76.3559987  45.9275006 107.0865017  77.6209987  45.7235006 107.4035017
  78.4139987  45.9415006 106.6885017  77.6709987  45.2535006 108.6365017
  78.5079987  45.0075006 109.1455017  76.3929987  45.1495006 109.1255017
  76.2249987  44.7765006 110.1355017  71.9019987  44.6105006 107.4725017
  71.6069987  45.5795006 106.7715017  71.0099987  43.7165006 107.8865017
  71.3359987  42.8355006 108.2575017  69.5649987  43.9335006 107.7805017
  69.3689987  44.8525006 107.2285017  68.8589987  42.7535006 107.0805017
  69.0159987  41.8495006 107.6685017  67.3629987  43.0215006 106.9505017
  67.2049987  43.9255006 106.3625017  66.8839987  42.1775006 106.4545017
  66.9289987  43.1535006 107.9415017  69.4699987  42.5165006 105.6955017
  69.1809987  43.3615006 105.0705017  70.5529987  42.5125006 105.8215017
  69.0339987  41.2265006 105.0335017  67.9509987  41.2305006 104.9075017
  69.5129987  41.1385006 104.0585017  69.3239987  40.3815006 105.6575017
  68.9639987  44.1495006 109.1685017  67.8839987  44.7155006 109.2985017
  69.6689987  43.6925006 110.2005017  70.4869987  43.1265006 110.0265017
  69.2739987  43.9295006 111.5855017  68.1869987  43.9135006 111.6695017
  69.8519987  42.8395006 112.4985017  69.5089987  41.8615006 112.1605017
  70.9409987  42.8745006 112.4625017  69.3879987  43.0725006 113.9165017
  69.7309987  44.0505006 114.2555017  68.2989987  43.0375006 113.9535017
  69.9629987  41.9895006 114.8245017  71.0829987  42.2185006 115.3575017
  69.2779987  40.9425006 114.9775017  69.7149987  45.3115006 112.0875017
  69.3369987  45.7105006 113.1915017  70.5109987  46.0325006 111.2935017
  70.8269987  45.6455006 110.4155017  70.9959987  47.3585006 111.6825017
  70.7399987  47.5535006 112.7235017  72.5129987  47.4425006 111.5295017
  72.7639987  47.1015006 110.5255017  72.8099987  48.4855006 111.6435017
  73.2459987  46.5945006 112.5485017  73.0569987  46.8295006 113.7625017
  74.0139987  45.6995006 112.1375017  70.3269987  48.4585006 110.8645017
  70.5039987  48.5235006 109.6445017  69.5559987  49.3325006 111.5395017
  69.3679987  49.3875006 113.0045017  70.3389987  49.5085006 113.4845017
  68.9109987  48.4575006 113.3405017  68.4679987  50.5775006 113.2115017
  69.0649987  51.4305006 113.5335017  67.7289987  50.3425006 113.9775017
  67.8089987  50.8375006 111.8955017  67.6119987  51.9065006 111.8185017
  66.8859987  50.2855006 111.7205017  68.8639987  50.4285006 110.8685017
  68.4519987  50.0545006 109.9315017  69.8079987  51.5955006 110.5785017
  69.5449987  52.4005006 109.6765017  70.8829987  51.6905006 111.3615017
  70.9509987  51.0895006 112.1705017  71.9489987  52.6565006 111.1275017
  71.5759987  53.6705006 111.2695017  73.0899987  52.4125006 112.1165017
  74.0199987  52.7765006 111.6805017  72.8829987  52.9585006 113.0375017
  73.2129987  51.0295006 112.4045017  73.9319987  50.8945006 113.0255017
  72.4419987  52.5415006 109.6895017  72.5479987  53.5385006 108.9695017
  72.7209987  51.3095006 109.2785017  72.7209987  50.5505006 109.9445017
  73.0319987  51.0095006 107.8935017  73.8849987  51.6045006 107.5655017
  73.3819987  49.5295006 107.7435017  74.2119987  49.2775006 108.4035017
  72.5209987  48.9085006 107.9905017  73.7979987  49.1515006 106.3775017
  72.9839987  48.9025006 105.3225017  71.9119987  48.9875006 105.4995017
  73.7239987  48.5845006 104.2185017  73.3549987  48.3695006 103.3035017
  75.0499987  48.6115006 104.5535017  76.1829987  48.3585006 103.7795017
  76.0499987  48.0875006 102.7325017  77.3989987  48.4675006 104.3915017
  78.3079987  48.2775006 103.8205017  77.5069987  48.8175006 105.7335017
  78.4829987  48.8995006 106.2125017  76.3869987  49.0705006 106.4975017
  76.5309987  49.3425006 107.5435017  75.1309987  48.9685006 105.9075017
  71.8149987  51.3395006 107.0425017  70.6829987  51.0435006 107.4305017
  72.0489987  51.9725006 105.8975017  72.9619987  52.3655006 105.7175017
  70.9909987  52.1945006 104.9105017  70.1039987  51.6065006 105.1475017
  70.5849987  53.6865006 104.8135017  69.5839987  53.7465006 104.3855017
  70.5919987  54.3645006 106.2035017  71.5929987  54.3055006 106.6315017
  70.3029987  55.4105006 106.0995017  69.8859987  53.8565006 106.8595017
  71.4619987  54.3835006 103.9185017  71.1999987  55.3055006 103.8675017
  71.4709987  51.6435006 103.5555017  72.6399987  51.7945006 103.2065017
  70.5799987  50.9815006 102.7985017  69.1459987  50.7625006 103.0525017
  68.5839987  51.6385006 102.7285017  68.9879987  50.6035006 104.1195017
  68.8289987  49.5375006 102.2365017  68.0869987  49.8085006 101.4855017
  68.4119987  48.7805006 102.9015017  70.0969987  49.0535006 101.6035017
  69.8979987  48.7355006 100.5805017  70.5719987  48.2385006 102.1505017
  71.0079987  50.2775006 101.5985017  72.0679987  50.0505006 101.7165017
  70.7989987  51.0695006 100.3145017  70.2619987  52.1795006 100.3615017
  71.2289987  50.4985006  99.1835017  71.7419987  49.6295006  99.2255017
  70.9619987  51.0865006  97.8655017  71.3569987  52.1025006  97.8505017
  71.6019987  50.2975006  96.7265017  71.6269987  49.2395006  96.9855017
  71.0179987  50.4345006  95.8165017  73.3079987  50.7475006  96.3705017
  69.4869987  51.0995006  97.6205017  68.9349987  52.1255006  97.2375017
  68.8669987  49.9385006  97.8165017  69.4149987  49.1235006  98.0535017
  67.4259987  49.7875006  97.6935017  66.9479987  50.7405006  97.4665017
  67.0479987  48.7715006  96.5945017  67.5879987  47.8425006  96.7765017
  65.5489987  48.4965006  96.5955017  65.0089987  49.4255006  96.4125017
  65.3099987  47.7775006  95.8115017  65.2539987  48.0895006  97.5625017
  67.4879987  49.2765006  95.2305017  68.5689987  49.4175006  95.2255017
  67.2139987  48.5485006  94.4675017  66.9969987  50.2265006  95.0185017
  66.8819987  49.3115006  99.0255017  67.2109987  48.2165006  99.4675017
  66.0629987  50.1495006  99.6585017  65.9029987  51.0685006  99.2705017
  65.3829987  49.7945006 100.8915017  66.1269987  49.6225006 101.6695017
  64.4249987  50.8985006 101.3635017  63.5229987  50.8715006 100.7525017
  64.0549987  50.6905006 102.8195017  64.9569987  50.7175006 103.4315017
  63.3759987  51.4805006 103.1385017  63.5659987  49.7235006 102.9365017
  65.0539987  52.1775006 101.2235017  64.4519987  52.8645006 101.5195017
  64.5869987  48.5365006 100.6475017  63.8709987  48.4365006  99.6635017
  64.7439987  47.5735006 101.5485017  65.4009987  47.7315006 102.2985017
  64.1309987  46.2525006 101.4305017  64.4599987  45.6175006 102.2535017
  62.6069987  46.3645006 101.4785017  62.2579987  46.9525006 100.6295017
  62.1869987  45.3605006 101.4215017  62.1219987  47.0205006 102.7545017
  62.4239987  46.5555006 103.8505017  61.3809987  48.1115006 102.6185017
  61.0319987  48.5875006 103.4385017  61.1679987  48.4625006 101.6955017
  64.6019987  45.4425006 100.2135017  63.9309987  45.3895006  99.1885017
  65.7819987  44.8405006 100.3485017  66.3949987  45.1505006 101.0885017
  66.2519987  43.7835006  99.4575017  65.4289987  43.4575006  98.8205017
  67.4019987  44.2675006  98.5635017  67.9729987  44.9435006  99.1995017
  68.0009987  43.3845006  98.3425017  67.0429987  44.9775006  97.2605017
  66.5439987  45.9185006  97.4895017  68.3009987  45.2545006  96.4595017
  68.8009987  44.3135006  96.2295017  68.0369987  45.7615006  95.5315017
  68.9709987  45.8885006  97.0415017  66.0949987  44.1435006  96.4265017
  65.1779987  43.9635006  96.9885017  65.8569987  44.6745006  95.5045017
  66.5649987  43.1905006  96.1845017  66.6979987  42.6035006 100.3185017
  67.8819987  42.2585006 100.3705017  65.7369987  41.9865006 100.9965017
  64.7829987  42.3095006 100.9255017  66.0339987  40.9045006 101.9295017
  66.7289987  41.2575006 102.6905017  64.7549987  40.4155006 102.6225017
  63.9699987  40.3115006 101.8735017  64.9519987  39.4455006 103.0785017
  64.2729987  41.3715006 103.7025017  64.4029987  42.5915006 103.5735017
  63.7129987  40.8175006 104.7765017  63.3749987  41.4045006 105.5255017
  63.6289987  39.8125006 104.8375017  66.7679987  39.7195006 101.2995017
  67.5229987  39.0325006 101.9875017  66.5499987  39.4815006 100.0075017
  65.9419987  40.0825006  99.4695017  67.1799987  38.3485006  99.3305017
  68.1939987  38.2655006  99.7225017  66.6119987  37.4585006  99.6015017
  67.2419987  38.4535006  97.8175017  67.1439987  39.5445006  97.2505017
  67.4099987  37.3035006  97.1715017  67.4949987  36.4485006  97.7015017
  67.5689987  37.2375006  95.7225017  68.1899987  38.0655006  95.3795017
  68.2449987  35.9165006  95.3195017  69.2049987  35.8285006  95.8285017
  67.6059987  35.0805006  95.6025017  68.5239987  35.7665006  93.8435017
  69.1359987  34.6045006  93.3605017  69.4109987  33.8075006  94.0505017
  69.3949987  34.4655006  91.9915017  69.8719987  33.5605006  91.6155017
  69.0409987  35.4895006  91.1055017  69.2419987  35.3805006  90.0395017
  68.4289987  36.6525006  91.5865017  68.1539987  37.4505006  90.8965017
  68.1699987  36.7905006  92.9555017  67.6919987  37.6955006  93.3315017
  66.2359987  37.4195006  94.9865017  66.2289987  37.7375006  93.8005017
  65.1189987  37.2385006  95.6895017  65.1849987  37.0145006  96.6725017
  63.7809987  37.3535006  95.0895017  63.7609987  37.0065006  94.0565017
  62.7159987  36.5725006  95.8935017  62.6459987  37.0005006  96.8935017
  61.3509987  36.6525006  95.2085017  61.4199987  36.2235006  94.2085017
  60.6179987  36.0955006  95.7925017  61.0409987  37.6945006  95.1355017
  63.1489987  35.1265006  96.0985017  64.0909987  35.1025006  96.6465017
  62.3849987  34.5955006  96.6665017  63.2809987  34.6455006  95.1295017
  63.3329987  38.8045006  95.0345017  62.8249987  39.2615006  94.0165017
  63.5029987  39.5105006  96.1495017  63.8359987  39.0465006  96.9825017
  63.1609987  40.9225006  96.2355017  62.0869987  41.0535006  96.1035017
  63.5579987  41.4795006  97.6055017  63.7459987  42.5485006  97.5065017
  62.7329987  41.3185006  98.2995017  64.7209987  40.8405006  98.0995017
  64.9479987  41.2075006  98.9575017  63.8199987  41.7295006  95.1165017
  63.2089987  42.6515006  94.5795017  65.0509987  41.3675006  94.7575017
  65.5229987  40.6395006  95.2755017  65.7859987  42.0435006  93.6785017
  65.8049987  43.1045006  93.9265017  67.2149987  41.5365006  93.6035017
  67.2119987  40.4775006  93.3465017  67.7589987  42.0935006  92.8405017
  67.7009987  41.6745006  94.5695017  65.1169987  41.8985006  92.3215017
  65.0409987  42.8605006  91.5615017  64.6469987  40.6955006  92.0175017
  64.8399987  39.9095006  92.6215017  63.8999987  40.4545006  90.7825017
  64.5159987  40.7125006  89.9215017  63.5039987  38.9775006  90.6765017
  64.3759987  38.3395006  90.8165017  62.7569987  38.7425006  91.4345017
  62.9039987  38.6015006  89.3495017  63.6429987  38.7275006  88.1885017
  64.6629987  39.1065006  88.2495017  63.1049987  38.3805006  86.9585017
  63.7049987  38.4835006  86.0545017  61.8109987  37.9045006  86.8785017
  61.3799987  37.6365006  85.9145017  61.0619987  37.7695006  88.0315017
  60.0409987  37.3915006  87.9765017  61.6089987  38.1145006  89.2595017
  61.0189987  38.0035006  90.1695017  62.6539987  41.3495006  90.6975017
  62.3679987  41.9155006  89.6455017  61.9329987  41.4765006  91.8145017
  62.2119987  40.9575006  92.6345017  60.7069987  42.2795006  91.8835017
  60.0489987  42.0205006  91.0545017  59.9659987  42.0135006  93.1985017
  60.7619987  41.8795006  93.9305017  59.3489987  42.8655006  93.4855017
  59.1019987  40.7535006  93.1485017  59.6389987  40.0075006  92.5615017
  58.7909987  40.1855006  94.5295017  58.2539987  40.9305006  95.1165017
  58.1749987  39.2925006  94.4255017  59.7219987  39.9275006  95.0345017
  57.8209987  41.0365006  92.3755017  58.0689987  41.3435006  91.3595017
  57.2089987  40.1355006  92.3425017  57.2659987  41.8335006  92.8695017
  60.9659987  43.7755006  91.7265017  60.2499987  44.4575006  90.9885017
  61.9779987  44.2815006  92.4285017  62.4529987  43.7135006  93.1155017
  62.4069987  45.6655006  92.2595017  61.5769987  46.3385006  92.4745017
  63.5559987  45.9875006  93.2115017  63.2399987  45.8635006  94.2475017
  64.3949987  45.3225006  93.0055017  64.0799987  47.3915006  93.0875017
  63.3499987  48.4655006  93.5715017  62.3829987  48.2775006  94.0385017
  63.8269987  49.7545006  93.4705017  63.2379987  50.5865006  93.8575017
  65.0479987  49.9915006  92.8805017  65.4279987  51.0095006  92.7985017
  65.7919987  48.9355006  92.3925017  66.7579987  49.1215006  91.9235017
  65.3109987  47.6405006  92.4985017  65.9009987  46.8075006  92.1175017
  62.8359987  45.8895006  90.8145017  62.4639987  46.8825006  90.1995017
  63.5989987  44.9475006  90.2685017  63.9349987  44.1785006  90.8305017
  64.0329987  45.0295006  88.8775017  64.6629987  45.9085006  88.7415017
  64.8349987  43.7865006  88.4835017  65.6909987  43.6955006  89.1525017
  64.1969987  42.9095006  88.5895017  65.2899987  43.8805006  87.1445017
  65.7889987  43.0915006  86.9205017  62.8709987  45.2205006  87.9055017
  63.0149987  45.9285006  86.9195017  61.7299987  44.5915006  88.1755017
  61.6489987  44.0135006  88.9995017  60.5609987  44.7345006  87.3135017
  60.8869987  44.8065006  86.2755017  59.5659987  43.5755006  87.4575017
  59.1969987  43.5445006  88.4825017  58.3949987  43.7725006  86.5025017
  58.7629987  43.8035006  85.4765017  57.6939987  42.9455006  86.6115017
  57.8899987  44.7095006  86.7355017  60.2349987  42.2295006  87.1825017
  60.2939987  42.1025006  86.1015017  61.2419987  42.2685006  87.5985017
  59.4839987  41.0615006  87.7875017  58.4769987  41.0215006  87.3715017
  60.0079987  40.1335006  87.5585017  59.4249987  41.1875006  88.8685017
  59.8279987  45.9995006  87.6925017  59.5079987  46.8115006  86.8305017
  59.5459987  46.1425006  88.9875017  59.7329987  45.3775006  89.6195017
  58.9379987  47.3525006  89.5285017  57.8829987  47.3845006  89.2575017
  59.0529987  47.3835006  91.0635017  60.0679987  47.0595006  91.2925017
  58.9319987  48.4285006  91.3495017  58.0559987  46.5235006  91.8425017
  57.0609987  46.9415006  91.6905017  58.0949987  45.5175006  91.4235017
  58.3619987  46.4635006  93.3505017  58.7519987  47.5035006  93.9455017
  58.2069987  45.3725006  93.9515017  59.6039987  48.6015006  88.9345017
  58.9449987  49.6085006  88.7115017  60.9049987  48.5365006  88.6755017
  61.4259987  47.6995006  88.8955017  61.6259987  49.6735006  88.1275017
  61.2169987  50.5945006  88.5425017  63.1159987  49.5945006  88.4855017
  63.5549987  48.7425006  87.9665017  63.8379987  50.8545006  88.0815017
  63.3999987  51.7075006  88.6005017  64.8919987  50.7715006  88.3465017
  63.7449987  50.9975006  87.0045017  63.2579987  49.4285006  89.8975017
  64.1899987  49.3795006  90.1215017  61.4859987  49.8005006  86.6075017
  61.1709987  50.8775006  86.1105017  61.7149987  48.7135006  85.8735017
  61.9109987  47.8305006  86.3225017  61.7929987  48.7825006  84.4065017
  62.2929987  49.7045006  84.1115017  62.5779987  47.5995006  83.8425017
  63.4599987  47.4715006  84.4695017  61.9399987  46.7205006  83.9305017
  63.0089987  47.7715006  82.3885017  62.2029987  48.2915006  81.8705017
  63.9079987  48.3885006  82.3725017  63.2889987  46.4505006  81.6915017
  64.3509987  45.8355006  81.9565017  62.4409987  46.0365006  80.8675017
  60.4289987  48.8775006  83.7305017  60.3019987  49.5515006  82.7135017
  59.4169987  48.2055006  84.2795017  59.5909987  47.5615006  85.0375017
  58.0219987  48.4335006  83.8625017  57.9349987  48.3225006  82.7815017
  57.0389987  47.4695006  84.5345017  56.0259987  47.8455006  84.3925017
  57.1499987  46.0805006  83.9375017  58.1629987  45.7035006  84.0795017
  56.4419987  45.4145006  84.4315017  56.9249987  46.1235006  82.8715017
  57.3109987  47.4255006  85.9385017  56.6969987  46.8225006  86.3645017
  57.5749987  49.8005006  84.2985017  56.6089987  50.3395006  83.7765017
  58.2799987  50.3305006  85.2905017  59.0029987  49.7535006  85.6965017
  57.9909987  51.6155006  85.9125017  58.7159987  51.8335006  86.6965017
  57.9699987  52.8095006  84.9065017  58.1399987  53.7285006  85.4665017
  59.0399987  52.6675006  83.8225017  58.8699987  51.7485006  83.2615017
  58.9879987  53.5205006  83.1455017  60.0259987  52.6325006  84.2865017
  56.6749987  52.9435006  84.2985017  56.6839987  53.6815006  83.6845017
  56.6979987  51.5255006  86.7265017  55.9319987  52.5005006  86.7955017
  56.4489987  50.3705006  87.3405017  56.9829987  49.5465006  87.1045017
  55.3509987  50.2345006  88.2945017  54.5259987  50.8545006  87.9455017
  54.8749987  48.7775006  88.4325017  55.7089987  48.1625006  88.7715017
  53.7389987  48.6835006  89.4325017  52.9049987  49.2985006  89.0945017
  53.4139987  47.6465006  89.5175017  54.0799987  49.0385006  90.4055017
  54.3779987  48.2635006  87.0815017  53.4219987  48.7495006  86.8875017
  55.1039987  48.5795006  86.3325017  54.2039987  46.7615006  87.0125017
  53.4779987  46.4445006  87.7605017  53.8489987  46.4815006  86.0205017
  55.1599987  46.2755006  87.2065017  55.8339987  50.8285006  89.6265017
  55.1619987  51.6795006  90.2155017  57.0199987  50.4225006  90.0635017
  57.4629987  49.6345006  89.6125017  57.7189987  51.0685006  91.1755017
  58.5879987  50.4585006  91.4215017  58.0489987  52.0495006  90.8355017
  56.8709987  51.2375006  92.4145017  56.7289987  52.3535006  92.9175017
  56.3039987  50.1305006  92.8995017  56.4419987  49.2585006  92.4085017
  55.4179987  50.1355006  94.0815017  54.4819987  50.6335006  93.8275017
  55.1009987  48.7045006  94.5565017  56.0609987  48.1925006  94.6165017
  54.6659987  48.7765006  95.5535017  54.1639987  47.9205006  93.6505017
  52.8569987  48.3465006  93.4245017  52.5079987  49.2605006  93.9045017
  52.0049987  47.6265006  92.6035017  50.9859987  47.9715006  92.4305017
  52.4549987  46.4535006  92.0015017  51.6219987  45.7215006  91.1785017
  50.7489987  46.1105006  91.0875017  53.7439987  46.0125006  92.2195017
  54.0999987  45.0965006  91.7475017  54.5849987  46.7375006  93.0405017
  55.6009987  46.3885006  93.2235017  55.9979987  50.9465006  95.2465017
  55.2519987  51.5535006  96.0115017  57.3199987  50.9825006  95.3595017
  57.9029987  50.3855006  94.7905017  57.9649987  51.8785006  96.3005017
  58.9809987  52.0555006  95.9475017  57.4109987  52.8175006  96.2985017
  58.0209987  51.3425006  97.7165017  58.2699987  52.1015006  98.6585017
  57.7709987  50.0465006  97.8875017  57.2999987  49.5065006  97.1755017
  58.1649987  49.3715006  99.1195017  57.9529987  50.0175006  99.9715017
  57.4039987  48.0655006  99.2975017  56.3529987  48.3235006  99.1645017
  57.7129987  47.3835006  98.5055017  57.5929987  47.3945006 100.6445017
  58.7389987  46.6555006 100.9255017  59.5109987  46.5785006 100.1595017
  58.9099987  46.0255006 102.1475017  59.8169987  45.4565006 102.3515017
  57.9269987  46.1195006 103.1045017  58.1039987  45.4925006 104.3135017
  58.9409987  45.0255006 104.3755017  56.7739987  46.8405006 102.8505017
  55.9949987  46.9165006 103.6095017  56.6109987  47.4675006 101.6245017
  55.7009987  48.0295006 101.4165017  59.6539987  49.1195006  98.9835017
  60.3989987  49.2215006  99.9545017  60.0749987  48.8015006  97.7605017
  59.3909987  48.5915006  97.0475017  61.4829987  48.7525006  97.4005017
  62.0759987  48.5745006  98.2975017  61.7739987  47.6355006  96.3915017
  61.1019987  47.8065006  95.5505017  62.8039987  47.7825006  96.0675017
  61.6009987  46.2175006  96.8965017  62.0279987  45.5325006  96.1645017
  62.1339987  46.1165006  97.8415017  60.1419987  45.8865006  97.1045017
  59.9299987  45.9055006  98.1735017  59.5379987  46.6415006  96.6015017
  59.7839987  44.5825006  96.5825017  60.4529987  44.1255006  95.9785017
  58.6359987  43.9625006  96.8425017  57.7169987  44.5055006  97.6385017
  57.8869987  45.4085006  98.0585017  56.8539987  44.0125006  97.8185017
  58.4109987  42.7775006  96.3025017  59.1079987  42.3585006  95.7025017
  57.5429987  42.2965006  96.4915017  61.8219987  50.0995006  96.7745017
  61.3619987  50.4005006  95.6705017  62.6109987  50.9075006  97.4785017
  63.0219987  50.5805006  98.3415017  62.9449987  52.2515006  97.0185017
  62.5919987  52.4225006  96.0015017  62.3519987  53.3315006  97.9305017
  62.9279987  53.3805006  98.8545017  62.4029987  54.6825006  97.2285017
  61.8269987  54.6345006  96.3045017  61.9809987  55.4475006  97.8805017
  63.4379987  54.9335006  96.9975017  60.9299987  52.9785006  98.3265017
  60.9259987  52.0275006  98.8585017  60.5279987  53.7585006  98.9735017
  60.3129987  52.8955006  97.4315017  64.4359987  52.4795006  97.0345017
  65.0989987  52.1425006  97.9975017  64.9509987  53.0905006  95.9805017
  64.3799987  53.2355006  95.1605017  66.3669987  53.4405006  95.9085017
  67.0429987  52.6965006  96.3305017  66.7659987  53.7255006  94.4325017
  66.6709987  52.7995006  93.8655017  65.8789987  54.7985006  93.8065017
  65.9739987  55.7255006  94.3725017  66.1879987  54.9705006  92.7755017
  64.8409987  54.4675006  93.8235017  68.2559987  54.0515006  94.3005017
  68.3869987  55.1055006  94.5475017  68.7939987  53.4395006  95.0255017
  68.8019987  53.7865006  92.9125017  68.2649987  54.3985006  92.1875017
  69.8619987  54.0375006  92.8845017  68.6719987  52.7325006  92.6655017
  66.6469987  54.6005006  96.8905017  65.7029987  55.1895006  97.4115017
  67.9159987  54.8905006  97.1975017  68.6619987  54.2885006  96.8795017
  68.2529987  56.0015006  98.1195017  67.4849987  56.7735006  98.0685017
  68.3869987  55.5275006  99.6035017  68.9529987  56.2755006 100.1595017
  67.0179987  55.3465006 100.2455017  66.4519987  54.5985006  99.6905017
  67.1409987  55.0165006 101.2775017  66.4799987  56.2945006 100.2295017
  69.1089987  54.2925006  99.6825017  69.1789987  54.0205006 100.6005017
  69.4979987  56.8125006  97.7095017  70.1369987  56.5135006  96.6975017
  69.7899987  57.8585006  98.4965017  69.1509987  58.0565006  99.2525017
  70.9939987  58.7035006  98.3575017  71.0049987  59.1565006  97.3655017
  71.0179987  59.8255006  99.4105017  71.2469987  59.3585006 100.3685017
  71.8159987  60.5185006  99.1445017  69.7159987  60.5765006  99.5165017
  69.0069987  60.6945006  98.4965017  69.4099987  61.0605006 100.6295017
  72.3029987  57.9475006  98.5705017  73.2939987  58.2185006  97.8995017
  72.2949987  57.0345006  99.5375017  71.4089987  56.8065006  99.9655017
  73.5059987  56.4355006 100.0925017  74.1229987  57.1955006 100.5725017
  73.1129987  55.3945006 101.1375017  72.4279987  55.8425006 101.8575017
  72.6239987  54.5525006 100.6465017  74.3619987  54.9045006 101.8625017
  75.0479987  54.4575006 101.1435017  74.8499987  55.7455006 102.3555017
  73.9699987  53.8635006 102.9045017  73.2839987  54.3105006 103.6245017
  73.4819987  53.0225006 102.4125017  75.2189987  53.3735006 103.6295017
  75.9049987  52.9255006 102.9105017  75.7069987  54.2145006 104.1215017
  74.8409987  52.3705006 104.6355017  74.3889987  51.5905006 104.1805017
  75.6689987  52.0465006 105.1155017  74.2059987  52.7855006 105.3025017
  74.5149987  55.8245006  99.0955017  75.7149987  55.8265006  99.3765017
  74.0629987  55.3015006  97.9545017  73.0729987  55.2015006  97.7835017
  75.0019987  54.8025006  96.9345017  76.0219987  55.0255006  97.2485017
  74.8719987  53.2945006  96.7315017  75.6579987  52.9485006  96.0605017
  74.9659987  52.7885006  97.6925017  73.2709987  52.7555006  96.0895017
  74.8219987  55.4895006  95.5875017  73.7079987  55.5755006  95.0735017
  75.9259987  55.9865006  95.0075017  77.2689987  56.1815006  95.5895017
  77.6109987  55.2445006  96.0295017  77.2189987  56.9485006  96.3625017
  78.1049987  56.6065006  94.4135017  78.6149987  55.7385006  93.9965017
  78.8439987  57.3395006  94.7375017  77.1579987  57.2045006  93.4325017
  77.5719987  57.0345006  92.4385017  76.9479987  58.2665006  93.5615017
  75.8729987  56.3945006  93.6065017  74.9619987  56.9695006  93.4385017
  75.8769987  55.1695006  92.6925017  75.4109987  55.2445006  91.5565017
  76.3949987  54.0525006  93.2045017  76.7949987  54.0775006  94.1315017
  76.4749987  52.8065006  92.4495017  77.0859987  52.9505006  91.5585017
  77.1139987  51.7025006  93.3105017  76.4949987  51.5875006  94.2005017
  77.0869987  50.7815006  92.7275017  78.5579987  51.9995006  93.7285017
  79.1129987  52.2665006  92.8295017  78.5119987  52.8605006  94.3955017
  79.2639987  50.8415006  94.4375017  78.8759987  49.6655006  94.2425017
  80.2309987  51.1095006  95.1885017  75.0889987  52.3925006  91.9525017
  74.9369987  51.9195006  90.8295017  74.0759987  52.6045006  92.7905017
  74.2579987  52.9985006  93.7025017  72.6929987  52.2845006  92.4375017
  72.6809987  51.2845006  92.0055017  72.1039987  52.2905006  93.3545017
  72.0769987  53.2575006  91.4485017  71.3689987  52.8495006  90.5225017
  72.3479987  54.5465006  91.6375017  72.9379987  54.8345006  92.4045017
  71.7529987  55.5825006  90.7925017  70.6669987  55.4905006  90.8135017
  72.1569987  57.0035006  91.2425017  73.2439987  57.0875006  91.2285017
  71.5549987  58.0445006  90.3045017  70.4679987  57.9615006  90.3185017
  71.8469987  59.0425006  90.6325017  71.9189987  57.8745006  89.2915017
  71.6919987  57.2625006  92.6795017  70.6039987  57.2005006  92.6795017
  72.1009987  56.4625006  93.2965017  72.1199987  58.6005006  93.2405017
  71.7109987  59.4015006  92.6245017  71.7499987  58.7025006  94.2605017
  73.2079987  58.6635006  93.2415017  72.1309987  55.3845006  89.3235017
  71.2769987  55.4685006  88.4405017  73.4099987  55.1195006  89.0715017
  74.0889987  55.1635006  89.8185017  73.8939987  54.8925006  87.7025017
  73.4759987  55.6405006  87.0285017  75.4469987  54.9075006  87.5945017
  75.7349987  54.5565006  86.6035017  75.9889987  56.3135006  87.8115017
  75.7019987  56.6655006  88.8025017  77.0759987  56.3005006  87.7315017
  75.5779987  56.9825006  87.0555017  76.1029987  53.9355006  88.5855017
  77.0979987  54.3265006  88.7975017  75.5019987  53.9595006  89.4945017
  76.2169987  52.5055006  88.0935017  76.8179987  52.4805006  87.1845017
  76.6919987  51.8935006  88.8605017  75.2219987  52.1135006  87.8815017
  73.3309987  53.6175006  87.0755017  73.3409987  53.4795006  85.8535017
  72.8419987  52.6925006  87.9015017  72.9649987  52.7775006  88.9005017
  72.1469987  51.5215006  87.3895017  72.6619987  51.1665006  86.4975017
  72.0999987  50.3915006  88.4055017  73.1439987  50.1395006  88.5895017
  71.6429987  50.7445006  89.3305017  71.3539987  49.1465006  87.9105017
  70.3039987  49.4105006  87.7815017  71.9109987  48.6225006  86.5915017
  72.9609987  48.3575006  86.7195017  71.3489987  47.7405006  86.2835017
  71.8219987  49.3945006  85.8265017  71.4129987  48.0745006  88.9835017
  70.9439987  48.4455006  89.8945017  70.8849987  47.1855006  88.6395017
  72.4529987  47.8215006  89.1885017  70.7369987  51.9015006  87.0035017
  70.3379987  51.6895006  85.8605017  69.9829987  52.4565006  87.9555017
  70.3309987  52.5385006  88.9005017  68.6349987  52.9555006  87.6655017
  67.9439987  52.1155006  87.5865017  68.1469987  53.8855006  88.7705017
  68.1349987  53.2635006  89.6655017  68.8689987  54.6915006  88.8985017
  66.7499987  54.4815006  88.5435017  66.6279987  54.6985006  87.4825017
  65.6729987  53.5105006  88.9885017  65.7949987  53.2935006  90.0495017
  64.6909987  53.9535006  88.8185017  65.7579987  52.5865006  88.4175017
  66.5949987  55.8045006  89.2695017  67.3389987  56.5115006  88.9015017
  65.5959987  56.2025006  89.0905017  66.7379987  55.6515006  90.3395017
  68.6519987  53.7165006  86.3505017  67.7369987  53.5985006  85.5315017
  69.7179987  54.4895006  86.1675017  70.3859987  54.5695006  86.9205017
  69.9399987  55.2715006  84.9625017  69.0939987  55.9335006  84.7775017
  71.2019987  56.1265006  85.1405017  71.2419987  56.3205006  86.2125017
  72.0389987  55.4885006  84.8565017  71.2889987  57.4465006  84.3815017
  71.4719987  57.2385006  83.3275017  69.9969987  58.2245006  84.5255017
  69.8129987  58.4325006  85.5795017  70.0749987  59.1635006  83.9785017
  69.1719987  57.6375006  84.1225017  72.4509987  58.2795006  84.9095017
  73.3829987  57.7295006  84.7775017  72.5039987  59.2195006  84.3605017
  72.2989987  58.4865006  85.9685017  70.0599987  54.3885006  83.7205017
  69.2569987  54.5015006  82.7885017  71.0479987  53.4985006  83.7265017
  71.6759987  53.4605006  84.5165017  71.2619987  52.5585006  82.6225017
  71.5419987  53.1155006  81.7285017  72.3619987  51.5335006  82.9545017
  72.1999987  51.1625006  83.9665017  72.3349987  50.3665006  81.9755017
  72.4969987  50.7365006  80.9635017  73.1219987  49.6575006  82.2325017
  71.3669987  49.8685006  82.0295017  73.7379987  52.1895006  82.9025017
  73.9909987  52.3395006  81.8525017  73.6599987  53.1565006  83.3985017
  74.8179987  51.3675006  83.5685017  74.8969987  50.4005006  83.0725017
  75.7709987  51.8915006  83.4955017  74.5659987  51.2175006  84.6185017
  69.9999987  51.7775006  82.3075017  69.6119987  51.6615006  81.1505017
  69.3909987  51.2235006  83.3505017  69.7859987  51.3435006  84.2725017
  68.1949987  50.4025006  83.2125017  68.4249987  49.5115006  82.6275017
  67.6819987  49.9665006  84.5845017  68.4769987  49.3905006  85.0575017
  67.4979987  50.8725006  85.1625017  66.4129987  49.1315006  84.5335017
  65.5649987  49.7835006  84.3245017  66.5129987  48.3985006  83.7325017
  66.1509987  48.3975006  85.8305017  66.0659987  47.1695006  85.8565017
  66.0289987  49.1465006  86.9195017  65.8529987  48.7085006  87.8125017
  66.1119987  50.1505006  86.8495017  67.1119987  51.1555006  82.4655017
  66.7209987  50.7495006  81.3775017  66.6559987  52.2635006  83.0405017
  67.0139987  52.5325006  83.9455017  65.5969987  53.0805006  82.4415017
  64.6439987  52.5545006  82.4905017  65.4669987  54.3985006  83.2045017
  66.3789987  54.9805006  83.0685017  64.6179987  54.9565006  82.8095017
  65.2669987  54.1495006  84.5875017  65.1869987  54.9845006  85.0545017
  65.8279987  53.3555006  80.9505017  64.8959987  53.2735006  80.1405017
  67.0779987  53.6565006  80.6025017  67.7779987  53.7475006  81.3245017
  67.4709987  53.9225006  79.2165017  66.8209987  54.6595006  78.7435017
  68.9329987  54.4325006  79.1435017  69.5679987  53.7475006  79.7045017
  69.4199987  54.5115006  77.7035017  68.7849987  55.1975006  77.1415017
  70.4479987  54.8725006  77.6865017  69.3749987  53.5215006  77.2495017
  69.0599987  55.7935006  79.8185017  68.7669987  55.7095006  80.8655017
  70.0929987  56.1355006  79.7575017  68.4099987  56.5105006  79.3165017
  67.3099987  52.6795006  78.3335017  66.6799987  52.7395006  77.2825017
  67.8929987  51.5635006  78.7645017  68.4579987  51.5925006  79.6005017
  67.7909987  50.2925006  78.0365017  67.9879987  50.4655006  76.9785017
  68.7969987  49.2665006  78.5595017  68.9389987  49.5485006  79.6025017
  68.3549987  48.2715006  78.5095017  70.1529987  49.2595006  77.8435017
  69.9969987  48.8505006  76.8455017  70.7799987  50.6455006  77.7325017
  70.9369987  51.0545006  78.7305017  71.7369987  50.5715006  77.2165017
  70.1149987  51.3015006  77.1715017  71.1049987  48.3085006  78.5545017
  70.6869987  47.3015006  78.5455017  72.0669987  48.3065006  78.0425017
  71.2429987  48.6355006  79.5855017  66.3909987  49.7235006  78.1275017
  65.9619987  48.9925006  77.2475017  65.6859987  50.0585006  79.2005017
  66.1309987  50.5735006  79.9475017  64.2819987  49.7095006  79.3445017
  64.1789987  48.6255006  79.2995017  63.9239987  50.0685006  80.3095017
  63.4439987  50.3295006  78.2475017  62.4769987  49.7315006  77.7995017
  63.8149987  51.5255006  77.8045017  64.8229987  52.6775006  78.3275017
  65.8099987  52.2295006  78.4415017  64.4649987  53.0185006  79.2985017
  64.7989987  53.7815006  77.2805017  65.5319987  53.5975006  76.4955017
  64.9859987  54.7565006  77.7305017  63.3799987  53.6945006  76.7455017
  63.2899987  54.1025006  75.7385017  62.6729987  54.1985006  77.4055017
  63.0959987  52.1945006  76.7255017  62.0269987  52.0705006  76.8985017
  63.4579987  51.6245006  75.3635017  62.5969987  51.4825006  74.5045017
  64.7289987  51.2985006  75.1685017  65.3989987  51.4255006  75.9135017
  65.2079987  50.7925006  73.8835017  64.8209987  51.3925006  73.0595017
  66.7499987  50.7775006  73.8275017  67.1249987  50.2195006  74.6855017
  67.2479987  50.1255006  72.5395017  66.8739987  50.6835006  71.6815017
  68.3379987  50.1295006  72.5275017  66.8879987  49.0975006  72.4895017
  67.2999987  52.2025006  73.9565017  67.2599987  52.6595006  72.9675017
  66.6429987  52.7465006  74.6345017  68.7189987  52.2555006  74.4795017
  69.3769987  51.7115006  73.8015017  69.0439987  53.2935006  74.5455017
  68.7599987  51.7995006  75.4685017  64.6839987  49.3815006  73.6145017
  64.3089987  49.0625006  72.4845017  64.6789987  48.5385006  74.6445017
  65.0729987  48.8165006  75.5315017  64.1759987  47.1715006  74.5065017
  64.5499987  46.7145006  73.5905017  64.5589987  46.2645006  75.7055017
  65.6409987  46.3075006  75.8315017  63.8799987  46.7025006  76.9985017
  62.7979987  46.6595006  76.8735017  64.1779987  46.0385006  77.8095017
  64.1769987  47.7235006  77.2375017  64.2059987  44.8205006  75.4065017
  64.7489987  44.4885006  74.5215017  64.4799987  44.1955006  76.2565017
  63.1339987  44.7375006  75.2265017  62.6679987  47.1905006  74.3265017
  62.1349987  46.4745006  73.4875017  61.9959987  48.0335006  75.1015017
  62.4989987  48.5975006  75.7725017  60.5499987  48.1385006  75.0615017
  60.0979987  47.1575006  75.2095017  60.0699987  49.0665006  76.1665017
  60.3419987  48.6565006  77.1395017  60.5589987  50.0315006  76.0295017
  58.5849987  49.2725006  76.1315017  58.1059987  50.3875006  75.9335017
  57.8439987  48.1925006  76.2985017  56.8369987  48.2675006  76.2845017
  58.2879987  47.2965006  76.4395017  60.0559987  48.6345006  73.7055017
  59.0549987  48.1435006  73.1895017  60.7669987  49.5985006  73.1295017
  61.4929987  50.0685006  73.6515017  60.4959987  50.0455006  71.7605017
  59.4719987  50.4155006  71.7025017  61.4419987  51.1685006  71.3615017
  62.4709987  50.8105006  71.4055017  61.2139987  51.4925006  70.3465017
  61.3199987  52.0075006  72.0465017  60.6199987  48.8825006  70.7835017
  59.6309987  48.4555006  70.1895017  61.8349987  48.3655006  70.6415017
  62.6159987  48.8305006  71.0825017  62.1079987  47.1955006  69.7935017
  62.1869987  47.4915006  68.7475017  63.4459987  46.5615006  70.2295017
  64.1959987  47.3275006  70.4285017  63.2619987  45.9895006  71.1385017
  64.0619987  45.5995006  69.2275017  63.5209987  45.3755006  67.9565017
  62.6129987  45.9005006  67.6605017  64.1329987  44.4915006  67.0735017
  63.6889987  44.3175006  66.0935017  65.2969987  43.8355006  67.4315017
  65.7759987  43.1465006  66.7365017  65.8509987  44.0575006  68.6755017
  66.7679987  43.5425006  68.9635017  65.2419987  44.9355006  69.5595017
  65.6859987  45.1185006  70.5385017  60.9709987  46.1495006  69.8005017
  60.4829987  45.7565006  68.7375017  60.5269987  45.7345006  70.9875017
  60.9219987  46.1235006  71.8315017  59.5379987  44.6525006  71.1145017
  59.7199987  43.8955006  70.3515017  59.6369987  43.9905006  72.4935017
  59.4399987  44.7685006  73.2305017  58.8489987  43.2395006  72.5395017
  60.9829987  43.3345006  72.7935017  61.7349987  44.1185006  72.7095017
  60.9349987  42.9865006  73.8255017  61.4439987  41.9505006  71.7195017
  62.5339987  42.7535006  70.5435017  63.3819987  43.1885006  71.0715017
  62.8939987  42.0205006  69.8215017  61.9899987  43.5405006  70.0215017
  58.0939987  45.0855006  70.8545017  57.3829987  44.4255006  70.0985017
  57.6479987  46.1655006  71.4865017  58.2089987  46.6215006  72.1915017
  56.3039987  46.6925006  71.2185017  55.5419987  45.9255006  71.3595017
  55.9639987  47.8955006  72.1175017  56.8699987  48.4845006  72.2635017
  54.8809987  48.7735006  71.4935017  53.9749987  48.1855006  71.3485017
  54.6669987  49.6125006  72.1555017  55.2279987  49.1495006  70.5315017
  55.5299987  47.4075006  73.4905017  56.3389987  46.8355006  73.9455017
  55.2909987  48.2635006  74.1215017  54.6489987  46.7735006  73.3895017
  56.1699987  47.0945006  69.7515017  55.1679987  46.7825006  69.1005017
  57.1759987  47.7965006  69.2395017  57.9209987  48.1195006  69.8405017
  57.2429987  48.1215006  67.8195017  56.4609987  48.8395006  67.5725017
  58.2169987  48.5525006  67.5895017  57.0469987  46.8745006  66.9845017
  56.1649987  46.8275006  66.1295017  57.8489987  45.8495006  67.2625017
  58.5679987  45.9575006  67.9635017  57.7659987  44.5785006  66.5445017
  58.0209987  44.7295006  65.4955017  58.7379987  43.5635006  67.1415017
  59.6639987  44.0525006  67.4435017  58.2919987  43.0675006  68.0035017
  59.2149987  42.2495006  65.9995017  60.0179987  41.6125006  66.8475017
  56.3529987  44.0025006  66.5545017  55.8929987  43.4775006  65.5455017
  55.6669987  44.1105006  67.6875017  56.1129987  44.4865006  68.5125017
  54.2709987  43.6685006  67.7915017  54.1859987  42.6375006  67.4495017
  53.7849987  43.7445006  69.2385017  53.9849987  44.7565006  69.5915017
  52.7089987  43.5705006  69.2255017  54.4469987  42.7445006  70.1675017
  55.5249987  42.8165006  70.0205017  54.2009987  43.0265006  71.1915017
  53.9219987  41.0465006  69.8795017  52.1539987  41.2255006  70.0945017
  51.7689987  41.9375006  69.3645017  51.6699987  40.2595006  69.9495017
  51.9449987  41.5885006  71.1005017  53.3449987  44.5065006  66.9225017
  52.5749987  43.9685006  66.1275017  53.4209987  45.8215006  67.0805017
  54.0459987  46.2215006  67.7655017  52.5659987  46.7165006  66.3245017
  51.5249987  46.5455006  66.5985017  52.9129987  48.1765006  66.6115017
  52.6629987  48.4165006  67.6445017  53.9739987  48.3625006  66.4425017
  52.1619987  49.1525006  65.7495017  50.8229987  49.4235006  65.9905017
  50.3189987  48.9245006  66.8185017  50.1259987  50.3185006  65.1915017
  49.0749987  50.5255006  65.3935017  50.7659987  50.9495006  64.1375017
  50.2219987  51.6545006  63.5085017  52.1019987  50.6825006  63.8835017
  52.6099987  51.1735006  63.0535017  52.7929987  49.7885006  64.6875017
  53.8439987  49.5775006  64.4895017  52.6599987  46.4405006  64.8275017
  51.6359987  46.3015006  64.1515017  53.8879987  46.3495006  64.3195017
  54.6879987  46.4515006  64.9265017  54.1239987  46.1295006  62.8905017
  53.7099987  46.9445006  62.2965017  55.6289987  46.0065006  62.5775017
  56.0649987  45.2625006  63.2445017  55.8529987  45.5855006  61.1315017
  55.4169987  46.3295006  60.4645017  56.9229987  45.5065006  60.9375017
  55.3799987  44.6195006  60.9565017  56.3369987  47.3205006  62.8465017
  56.2149987  47.5915006  63.8955017  57.3979987  47.2155006  62.6205017
  55.9079987  48.1005006  62.2175017  53.4129987  44.8585006  62.4385017
  52.6719987  44.8645006  61.4475017  53.6359987  43.7875006  63.1945017
  54.2149987  43.8825006  64.0165017  53.1249987  42.4635006  62.8585017
  53.4319987  42.1835006  61.8505017  53.6879987  41.4365006  63.8445017
  54.7209987  41.7205006  64.0455017  53.1039987  41.5205006  64.7605017
  53.6449987  40.0005006  63.3465017  52.6139987  39.6505006  63.3895017
  53.9909987  39.9825006  62.3135017  54.5239987  39.0915006  64.1905017
  55.5669987  39.3065006  63.9555017  54.3359987  39.3105006  65.2415017
  54.2359987  37.6265006  63.9195017  54.9989987  37.0305006  64.4205017
  53.2569987  37.3875006  64.3365017  54.2429987  37.3195006  62.4635017
  55.1499987  37.5405006  62.0775017  54.0479987  36.3385006  62.3255017
  53.5359987  37.8715006  61.9995017  51.5969987  42.4075006  62.8605017
  50.9889987  41.7135006  62.0415017  50.9749987  43.1245006  63.7895017
  51.4989987  43.6025006  64.5085017  49.5169987  43.1835006  63.8405017
  49.1109987  42.1775006  63.7375017  49.0209987  43.8065006  65.1675017
  49.5269987  44.7605006  65.3155017  47.5159987  44.0295006  65.1395017
  47.0099987  43.0755006  64.9915017  47.1959987  44.4685006  66.0845017
  47.2629987  44.7045006  64.3215017  49.3699987  42.8935006  66.3415017
  48.7879987  41.9795006  66.2225017  50.4319987  42.6605006  66.2635017
  49.0849987  43.5005006  67.7005017  48.0229987  43.7335006  67.7795017
  49.3599987  42.7905006  68.4805017  49.6669987  44.4145006  67.8205017
  48.9809987  43.9715006  62.6355017  48.0329987  43.5325006  61.9775017
  49.6069987  45.1125006  62.3365017  50.4239987  45.3765006  62.8695017
  49.1109987  46.0435006  61.3145017  48.0219987  46.0255006  61.2845017
  49.5689987  47.4705006  61.6505017  49.0419987  48.1655006  60.9965017
  49.3089987  47.6805006  62.6885017  50.9709987  47.6245006  61.4725017
  51.2239987  48.5245006  61.6905017  49.5149987  45.7115006  59.8645017
  49.0159987  46.3425006  58.9305017  50.4089987  44.7395006  59.6735017
  50.7899987  44.2435006  60.4665017  50.9349987  44.4245006  58.3355017
  51.4719987  45.2905006  57.9485017  51.8949987  43.2275006  58.3695017
  52.2439987  43.0815006  57.3475017  52.7339987  43.5205006  59.0015017
  51.2969987  41.9285006  58.8915017  50.8749987  42.1105006  59.8805017
  50.5079987  41.5995006  58.2155017  52.3299987  40.8265006  59.0015017
  53.1739987  40.6735006  58.1195017  52.2659987  40.0495006  60.0795017
  52.9329987  39.3005006  60.1985017  51.5509987  40.2125006  60.7735017
  49.8389987  44.1725006  57.3035017  48.8359987  43.5355006  57.6035017
  50.0439987  44.6595006  56.0755017  51.2929987  45.2755006  55.5995017
  52.1189987  44.5815006  55.7525017  51.4799987  46.1915006  56.1595017
  51.0229987  45.5375006  54.1495017  51.3839987  44.6995006  53.5525017
  51.5339987  46.4495006  53.8415017  49.5489987  45.6905006  54.0345017
  49.1709987  45.4505006  53.0405017  49.2479987  46.7035006  54.3025017
  48.9969987  44.6955006  55.0535017  48.1049987  45.0775006  55.5505017
  48.6689987  43.3665006  54.3705017  47.5369987  43.1825006  53.9345017
  49.6269987  42.4485006  54.2635017  50.5729987  42.6435006  54.5595017
  49.3459987  41.1465006  53.6405017  49.2079987  41.2865006  52.5685017
  50.4889987  40.1495006  53.8615017  50.1889987  39.2135006  53.3905017
  51.3629987  40.5505006  53.3475017  50.8309987  39.8955006  55.3195017
  51.1489987  40.8405006  55.7605017  49.9289987  39.5465006  55.8215017
  51.9349987  38.8615006  55.4845017  52.5329987  38.8585006  54.5735017
  52.5579987  39.1635006  56.3265017  51.3869987  37.4655006  55.7355017
  50.5759987  37.5285006  56.4615017  51.0039987  37.0615006  54.7985017
  52.4539987  36.5725006  56.2605017  52.8089987  36.9465006  57.1295017
  52.0729987  35.6515006  56.4215017  53.2049987  36.5135006  55.5875017
  48.0399987  40.5575006  54.1545017  47.3459987  39.8735006  53.4165017
  47.7129987  40.8415006  55.4135017  48.3659987  41.3675006  55.9765017
  46.4839987  40.3595006  56.0455017  46.4779987  39.2695006  56.0685017
  46.3959987  40.8795006  57.4835017  46.5289987  41.9605006  57.4375017
  45.3919987  40.6525006  57.8415017  47.4169987  40.2845006  58.4335017
  48.3959987  40.3195006  57.9555017  47.4359987  40.8855006  59.3425017
  47.0759987  38.8465006  58.7845017  46.2419987  38.8405006  59.4865017
  46.7889987  38.3175006  57.8755017  48.2729987  38.1555006  59.4155017
  49.1429987  38.3355006  58.7835017  48.4409987  38.5945006  60.3985017
  48.0589987  36.6915006  59.5575017  47.9039987  36.2845006  58.6465017
  48.8749987  36.2715006  59.9795017  47.2529987  36.5245006  60.1435017
  45.2039987  40.7265006  55.2855017  44.2739987  39.9325006  55.2205017
  45.1639987  41.9255006  54.7185017  45.9279987  42.5685006  54.8675017
  44.0359987  42.3665006  53.8965017  43.1489987  42.4745006  54.5205017
  44.3359987  43.7135006  53.2365017  44.6279987  44.3965006  54.0345017
  45.1819987  43.5545006  52.5675017  43.1769987  44.3145006  52.4545017
  43.5369987  45.1895006  51.9135017  42.8129987  43.5725006  51.7435017
  42.0469987  44.7225006  53.3815017  41.4739987  43.8395006  53.6655017
  42.4619987  45.1885006  54.2755017  41.1499987  45.6725006  52.7325017
  41.3119987  46.6475006  52.9395017  40.1509987  45.3555006  51.9165017
  39.8789987  44.0895006  51.6145017  40.4389987  43.3475006  52.0095017
  39.1139987  43.8755006  50.9915017  39.4209987  46.3255006  51.3865017
  39.6299987  47.2885006  51.6065017  38.6589987  46.0975006  50.7645017
  43.7229987  41.3535006  52.8165017  42.5609987  41.1035006  52.5215017
  44.7609987  40.7685006  52.2305017  45.7009987  41.0735006  52.4395017
  44.5769987  39.7385006  51.2085017  44.2699987  40.2535006  50.2985017
  45.8849987  39.0105006  50.9375017  46.2009987  38.4825006  51.8375017
  45.7419987  38.2945006  50.1275017  46.6509987  39.7325006  50.6525017
  43.4759987  38.7325006  51.5635017  42.8209987  38.2015006  50.6705017
  43.2799987  38.4795006  52.8585017  43.9279987  38.8585006  53.5345017
  42.1979987  37.6085006  53.3425017  42.3079987  36.6125006  52.9135017
  42.2389987  37.4905006  54.8745017  42.2449987  38.5055006  55.2705017
  41.3209987  36.9875006  55.1785017  43.4379987  36.7275006  55.4175017
  44.3209987  37.1125006  54.9075017  43.5169987  36.9345006  56.4845017
  43.3409987  35.2235006  55.1985017  42.3109987  34.6135006  55.5845017
  44.3069987  34.6445006  54.6475017  40.7949987  38.0575006  52.9115017
  39.9139987  37.2315006  52.7145017  40.5759987  39.3575006  52.7735017
  41.2669987  40.0335006  53.0645017  39.2839987  39.8475006  52.3025017
  38.5669987  39.0275006  52.2715017  38.7399987  40.9395006  53.2335017
  37.8289987  41.3585006  52.8065017  38.4329987  40.3445006  54.5925017
  39.3439987  39.9255006  55.0205017  38.0469987  41.1225006  55.2515017
  37.6869987  39.5565006  54.4845017  39.7109987  41.9795006  53.3775017
  39.3669987  42.6605006  53.9605017  39.3479987  40.3345006  50.8475017
  38.5459987  41.1755006  50.4275017  40.3079987  39.7935006  50.0925017
  41.0099987  39.2275006  50.5475017  40.3879987  39.9625006  48.6465017
  39.5809987  40.6105006  48.3045017  41.7199987  40.5955006  48.2585017
  42.4659987  39.9535006  48.7265017  41.8479987  40.5705006  47.1765017
  41.8949987  42.0295006  48.7595017  41.7099987  42.0385006  49.8335017
  43.2939987  42.5695006  48.4805017  43.4799987  42.5605006  47.4065017
  43.3709987  43.5905006  48.8535017  44.0319987  41.9435006  48.9815017
  40.8249987  42.9135006  48.1325017  39.8379987  42.5455006  48.4145017
  40.9449987  43.9375006  48.4865017  40.9239987  42.8905006  47.0475017
  40.2829987  38.5825006  48.0365017  41.0749987  37.7115006  48.3625017
  39.3099987  38.3715006  47.1605017  38.6839987  39.1165006  46.8915017
  39.1059987  37.0495006  46.5725017  39.7789987  36.3105006  47.0075017
  37.6609987  36.5535006  46.7365017  37.4749987  35.7565006  46.0165017
  37.4369987  36.0265006  48.1445017  37.6219987  36.8235006  48.8645017
  36.4089987  35.6795006  48.2435017  38.1199987  35.1985006  48.3355017
  36.6649987  37.6565006  46.4075017  36.8079987  37.9805006  45.3765017
  35.6499987  37.2795006  46.5315017  36.8229987  38.5015006  47.0785017
  39.4229987  37.0485006  45.0975017  39.1659987  38.0215006  44.3965017
  39.9869987  35.9455006  44.6305017  40.3459987  35.2435006  45.2615017
  40.1099987  35.7155006  43.2045017  39.8679987  36.6325006  42.6665017
  41.5229987  35.2945006  42.8365017  41.8549987  34.4745006  43.4735017
  41.5569987  34.9805006  41.7935017  42.5249987  36.3825006  42.9865017
  42.5689987  37.4165006  42.0745017  41.8669987  37.4245006  41.2405017
  43.4919987  38.4365006  42.2105017  43.5149987  39.2515006  41.4875017
  44.3879987  38.4225006  43.2665017  45.1199987  39.2225006  43.3755017
  44.3509987  37.3895006  44.1835017  45.0529987  37.3705006  45.0165017
  43.4189987  36.3785006  44.0415017  43.3829987  35.5655006  44.7665017
  39.1379987  34.6215006  42.8345017  38.8709987  33.7325006  43.6405017
  38.6039987  34.6885006  41.6175017  38.7889987  35.4805006  41.0185017
  37.7079987  33.6585006  41.1355017  36.8939987  33.5275006  41.8485017
  37.1149987  34.0235006  39.7805017  36.3319987  33.3045006  39.5375017
  36.6829987  35.0215006  39.8475017  38.0999987  34.0045006  38.7705017
  37.6999987  34.2375006  37.9295017  38.4779987  32.3575006  41.0535017
  39.6999987  32.3495006  40.8955017  37.7459987  31.2615006  41.1625017
  36.7389987  31.3385006  41.1745017  38.3379987  29.9445006  41.3155017
  39.1899987  29.9895006  41.9935017  37.3139987  28.9405006  41.8775017
  36.8499987  29.3825006  42.7595017  36.2269987  28.5925006  40.8475017
  36.6899987  28.1495006  39.9655017  35.5259987  27.8815006  41.2845017
  35.6939987  29.4985006  40.5605017  37.9909987  27.7455006  42.2635017
  37.3559987  27.1175006  42.6145017  38.8799987  29.4405006  39.9805017
  39.8139987  28.6415006  39.9355017  38.2759987  29.9195006  38.8975017
  37.5099987  30.5685006  39.0095017  38.6849987  29.5655006  37.5545017
  39.5789987  28.9415006  37.5835017  37.5719987  28.7875006  36.8735017
  36.6369987  29.3405006  36.9645017  37.7989987  28.6285006  35.8195017
  37.3299987  27.4405006  37.4655017  36.0769987  27.0175006  37.8535017
  36.1599987  25.7875006  38.3255017  35.2699987  25.2705006  38.6845017
  37.4199987  25.3995006  38.2595017  37.7819987  24.5035006  38.5545017
  38.1719987  26.4135006  37.7225017  39.2449987  26.2815006  37.5835017
  38.9639987  30.7985006  36.7155017  38.4449987  31.8775006  36.9795017
  39.7829987  30.6205006  35.6955017  40.3809987  29.8075006  35.6555017
  39.8519987  31.5735006  34.6145017  39.4099987  32.5425006  34.8455017
  41.2929987  31.7865006  34.1935017  41.7469987  30.8255006  33.9505017
  41.3239987  32.4345006  33.3175017  41.8449987  32.2525006  35.0095017
  39.0339987  30.9665006  33.4815017  39.0139987  29.7475006  33.3215017
  38.3529987  31.8055006  32.7045017  38.3459987  32.7945006  32.9095017
  37.5559987  31.3245006  31.5735017  37.7059987  30.2575006  31.4075017
  36.0459987  31.5875006  31.7635017  35.5079987  31.2085006  30.8945017
  35.5389987  30.8925006  33.0165017  36.0769987  31.2715006  33.8855017
  34.4729987  31.0885006  33.1355017  35.7029987  29.8185006  32.9285017
  35.7429987  33.0785006  31.8235017  36.0609987  33.5525006  30.8945017
  34.6719987  33.2265006  31.9575017  36.2789987  33.5255006  32.6605017
  38.0139987  31.9665006  30.2775017  38.5349987  33.0785006  30.2825017
  37.8259987  31.2525006  29.1705017  37.5149987  30.2945006  29.2465017
  38.1079987  31.7875006  27.8375017  38.4089987  32.8315006  27.9225017
  39.2229987  30.9855006  27.1235017  39.0239987  29.9225006  27.2595017
  39.2769987  31.3065006  25.6315017  39.4759987  32.3695006  25.4945017
  40.0709987  30.7255006  25.1625017  38.3219987  31.0545006  25.1705017
  40.5719987  31.3085006  27.7615017  40.7619987  32.3705006  27.6025017
  40.4819987  31.1115006  28.8295017  41.7159987  30.5035006  27.1965017
  41.8059987  30.6995006  26.1285017  42.6419987  30.7865006  27.6975017
  41.5269987  29.4415006  27.3555017  36.8249987  31.7765006  27.0095017
  36.2059987  30.7285006  26.8365017  36.4269987  32.9445006  26.5135017
  36.8939987  33.7965006  26.7905017  35.2699987  33.0455006  25.6265017
  35.2659987  32.2035006  24.9345017  33.9629987  33.0275006  26.4265017
  33.1349987  33.1445006  25.7275017  33.8829987  32.0615006  26.9255017
  33.9139987  34.0635006  27.3935017  33.0819987  34.0165006  27.8705017
  35.3519987  34.2915006  24.7615017  36.2119987  35.1455006  24.9705017
  34.4529987  34.3835006  23.7875017  33.7559987  33.6615006  23.6765017
  34.4799987  35.4745006  22.8185017  35.5109987  35.7625006  22.6115017
  33.8209987  35.0345006  21.5055017  32.8719987  34.5655006  21.7635017
  33.6329987  35.9355006  20.9215017  34.6599987  34.0645006  20.6855017
  35.0109987  33.2715006  21.3465017  34.0269987  33.6355006  19.9085017
  36.0789987  34.8675006  19.9165017  35.2389987  35.8525006  18.6795017
  34.5499987  36.5415006  19.1685017  35.9719987  36.4195006  18.1065017
  34.6819987  35.1975006  18.0095017  33.8009987  36.7355006  23.3485017
  32.7209987  36.6705006  23.9375017  34.4439987  37.8785006  23.1225017
  35.3279987  37.8545006  22.6335017  33.9369987  39.1685006  23.5705017
  32.8769987  39.0845006  23.8105017  34.6869987  39.6365006  24.8215017
  35.6889987  39.2105006  24.7675017  34.7509987  40.7235006  24.7645017
  34.0359987  39.2355006  26.1365017  32.9729987  39.4665006  26.0755017
  34.1669987  38.1615006  26.2685017  34.6479987  39.9715006  27.3225017
  35.5879987  39.4905006  27.5935017  34.8379987  41.0065006  27.0395017
  33.7629987  39.9595006  28.4875017  32.8549987  39.5345006  28.3615017
  34.0669987  40.4675006  29.6815017  35.2479987  41.0455006  29.9005017
  35.9259987  41.1015006  29.1535017  35.4599987  41.4245006  30.8125017
  33.1829987  40.3925006  30.6705017  32.2879987  39.9515006  30.5115017
  33.4099987  40.7765006  31.5765017  34.0949987  40.2065006  22.4715017
  35.2079987  40.6335006  22.1825017  32.9789987  40.6115006  21.8685017
  32.1009987  40.1855006  22.1295017  32.9799987  41.5855006  20.7715017
  32.0019987  41.6005006  20.2905017  33.2889987  43.0005006  21.3035017
  33.9169987  42.8685006  22.1845017  33.8419987  43.5515006  20.5425017
  32.0349987  43.7815006  21.6865017  31.0329987  43.7435006  20.9335017
  32.0629987  44.4635006  22.7345017  33.9569987  41.1885006  19.6545017
  34.6969987  42.0245006  19.1355017  33.9589987  39.9035006  19.3015017
  33.3559987  39.2545006  19.7865017  34.8109987  39.3895006  18.2265017
  34.3059987  38.5095006  17.8275017  34.8439987  40.1665006  17.4625017
  36.2349987  39.0115006  18.6115017  36.9679987  38.4705006  17.7905017
  36.6329987  39.2855006  19.8505017  36.0149987  39.7715006  20.4845017
  37.9609987  38.9175006  20.3265017  38.5819987  38.6065006  19.4865017
  38.6279987  40.1035006  21.0125017  37.9919987  40.3805006  21.8535017
  39.5899987  39.7525006  21.3855017  38.8409987  41.3105006  20.1215017
  37.8659987  41.7175006  19.8525017  39.4049987  42.0575006  20.6805017
  39.6029987  40.9425006  18.8565017  40.1569987  40.0245006  19.0515017
  38.8759987  40.7665006  18.0635017  40.5699987  42.0355006  18.4235017
  41.4459987  41.9695006  19.0695017  40.8609987  41.8235006  17.3945017
  39.9949987  43.4085006  18.5045017  39.7259987  43.6045006  19.4575017
  40.6859987  44.0815006  18.2045017  39.1839987  43.4695006  17.9055017
  37.8819987  37.7635006  21.3055017  36.9839987  37.7085006  22.1395017
  38.8369987  36.8495006  21.2055017  39.5169987  36.9125006  20.4615017
  38.9379987  35.7395006  22.1385017  37.9449987  35.3775006  22.4035017
  39.7169987  34.5955006  21.4905017  39.3079987  34.5495006  20.4815017
  40.7619987  34.9015006  21.4445017  39.6189987  33.2195006  22.1425017
  39.6999987  33.3375006  23.2235017  38.2949987  32.5485006  21.8035017
  38.2129987  32.4295006  20.7235017  38.2509987  31.5695006  22.2805017
  37.4719987  33.1655006  22.1635017  40.7899987  32.3695006  21.6855017
  41.7239987  32.8485006  21.9795017  40.7269987  31.3845006  22.1475017
  40.7619987  32.2645006  20.6005017  39.6609987  36.2355006  23.3865017
  40.7629987  36.7615006  23.2875017  39.0549987  36.0705006  24.5585017
  38.1719987  35.5835006  24.6175017  39.6209987  36.6295006  25.7845017
  40.6189987  37.0245006  25.5955017  38.7359987  37.7615006  26.2785017
  37.7249987  37.4155006  26.4955017  39.1539987  38.2405006  27.1645017
  38.5649987  39.0565006  25.0455017  37.7729987  39.8385006  25.7735017
  39.7979987  35.6195006  26.9075017  38.9559987  34.7425006  27.0925017
  40.8979987  35.7625006  27.6515017  41.6199987  36.3945006  27.3365017
  41.1059987  35.0425006  28.9055017  40.5189987  34.1245006  28.9025017
  42.5759987  34.6805006  29.0845017  42.8539987  34.2395006  28.1275017
  43.1579987  35.5875006  29.2485017  42.8619987  33.6795006  30.2095017
  41.9789987  33.0615006  30.3705017  44.0379987  32.7935006  29.8385017
  44.9219987  33.4105006  29.6775017  44.2299987  32.0875006  30.6465017
  43.8069987  32.2455006  28.9245017  43.1129987  34.3585006  31.5485017
  42.2349987  34.9385006  31.8325017  43.3099987  33.6025006  32.3085017
  43.9739987  35.0215006  31.4645017  40.6589987  35.9505006  30.0395017
  41.1419987  37.0725006  30.1585017  39.7349987  35.4625006  30.8635017
  39.4429987  34.5015006  30.7615017  39.1219987  36.2645006  31.9205017
  39.6379987  37.2205006  32.0075017  37.6539987  36.5295006  31.5995017
  37.1989987  35.5655006  31.3705017  37.1999987  36.9405006  32.5015017
  37.4279987  37.4815006  30.4425017  37.6569987  38.4945006  30.7745017
  38.0979987  37.2055006  29.6285017  35.7279987  37.4225006  29.8545017
  35.7259987  35.8585006  28.9875017  35.9749987  35.0565006  29.6825017
  34.7379987  35.6785006  28.5645017  36.4639987  35.8855006  28.1855017
  39.1829987  35.5655006  33.2635017  38.9099987  34.3675006  33.3655017
  39.5459987  36.3235006  34.2905017  40.0169987  37.2015006  34.1255017
  39.3329987  35.9025006  35.6665017  38.6539987  35.0495006  35.6745017
  40.6419987  35.4945006  36.3565017  40.4249987  35.1375006  37.3635017
  41.1389987  34.7065006  35.7915017  41.6349987  36.6105006  36.5015017
  42.5639987  36.8605006  35.5015017  42.5669987  36.2365006  34.6075017
  43.4799987  37.8885006  35.6295017  44.2029987  38.0785006  34.8365017
  43.4769987  38.6785006  36.7695017  44.1969987  39.4905006  36.8705017
  42.5579987  38.4355006  37.7815017  42.5519987  39.0535006  38.6795017
  41.6479987  37.4035006  37.6465017  40.9299987  37.2025006  38.4415017
  38.6669987  37.0545006  36.3825017  38.7229987  38.1915006  35.9185017
  38.0219987  36.7485006  37.4985017  38.0359987  35.7975006  37.8385017
  37.2539987  37.7315006  38.2385017  37.2509987  38.6835006  37.7065017
  35.8089987  37.2525006  38.3915017  35.3759987  37.2445006  37.3915017
  35.8579987  36.2325006  38.7745017  34.9399987  38.1005006  39.3145017
  35.4799987  38.2565006  40.2485017  34.7629987  39.0625006  38.8325017
  33.6099987  37.4275006  39.6055017  33.7439987  36.3485006  39.5225017
  33.3119987  37.6785006  40.6235017  32.5499987  37.8385006  38.6935017
  32.7429987  38.6055006  38.0655017  31.3519987  37.2665006  38.6455017
  31.0609987  36.2535006  39.4525017  31.7539987  35.9165006  40.1055017
  30.1479987  35.8245006  39.4095017  30.4409987  37.7045006  37.7865017
  30.6609987  38.4735006  37.1695017  29.5309987  37.2665006  37.7535017
  37.8959987  37.9535006  39.5945017  38.4109987  37.0225006  40.2025017
  37.8509987  39.1935006  40.0615017  37.4059987  39.9145006  39.5115017
  38.4359987  39.5645006  41.3395017  38.7469987  38.6955006  41.9185017
  39.6559987  40.4725006  41.1225017  40.3059987  40.0105006  40.3795017
  39.2359987  41.8535006  40.6395017  38.5859987  42.3165006  41.3825017
  40.1209987  42.4735006  40.4945017  38.6999987  41.7615006  39.6955017
  40.4669987  40.5845006  42.3985017  40.8109987  39.5945006  42.6985017
  41.3269987  41.2315006  42.2275017  39.8459987  41.0085006  43.1885017
  37.3939987  40.2915006  42.1745017  36.4849987  40.8975006  41.6275017
  37.5249987  40.2295006  43.4935017  38.2939987  39.7215006  43.9055017
  36.5709987  40.8875006  44.3865017  36.1569987  41.7445006  43.8545017
  35.7749987  40.1745006  44.6015017  37.1729987  41.3625006  45.6925017
  38.2709987  40.9615006  46.0725017  36.4399987  42.2275006  46.3795017
  35.5539987  42.5385006  46.0085017  36.8829987  42.7695006  47.6535017
  37.6979987  42.1665006  48.0535017  37.3839987  44.2065006  47.4645017
  38.3169987  44.1665006  46.9025017  36.6319987  44.7385006  46.8815017
  37.6159987  44.9385006  48.7835017  38.1049987  44.3135006  49.7505017
  37.3119987  46.1525006  48.8445017  35.7119987  42.7285006  48.6145017
  34.7159987  43.4085006  48.3935017  35.8439987  41.9445006  49.6825017
  36.7189987  41.4655006  49.8375017  34.7469987  41.7105006  50.6255017
  33.8199987  41.5255006  50.0825017  35.0549987  40.4935006  51.4935017
  35.9749987  40.7625006  52.0125017  34.2499987  40.3765006  52.2195017
  35.2579987  39.1845006  50.7475017  36.0469987  39.3045006  50.0055017
  35.6539987  38.1015006  51.7355017  34.8649987  37.9805006  52.4775017
  35.8009987  37.1605006  51.2045017  36.5809987  38.3855006  52.2345017
  33.9959987  38.8055006  49.9875017  33.7549987  39.5895006  49.2695017
  34.1579987  37.8665006  49.4585017  33.1699987  38.6895006  50.6895017
  34.4279987  42.8805006  51.5555017  33.3749987  42.8845006  52.1975017
  35.3269987  43.8555006  51.6405017  36.1569987  43.8385006  51.0645017
  35.1539987  44.9625006  52.5685017  34.5119987  44.6555006  53.3945017
  36.4999987  45.3975006  53.1335017  37.1829987  45.5065006  52.2915017
  36.3519987  46.3675006  53.6085017  37.0859987  44.4305006  54.1345017
  36.2769987  43.8285006  54.5495017  37.7919987  43.7815006  53.6165017
  37.7979987  45.1595006  55.2545017  38.8119987  45.4115006  54.9435017
  37.2569987  46.0725006  55.5015017  37.8689987  44.3215006  56.4465017
  37.2199987  44.5295006  57.1925017  38.7169987  43.3105006  56.6075017
  39.5919987  42.9905006  55.6575017  39.6169987  43.5205006  54.7985017
  40.2279987  42.2185006  55.7995017  38.6969987  42.6165006  57.7305017
  38.0389987  42.8575006  58.4575017  39.3399987  41.8475006  57.8565017
  34.5109987  46.1625006  51.9155017  34.6069987  46.3455006  50.6985017
  33.8729987  46.9875006  52.7455017  33.6789987  46.6915006  53.6915017
  33.3819987  48.2955006  52.3135017  32.8969987  48.1965006  51.3425017
  32.3719987  48.8695006  53.3075017  32.6519987  48.5915006  54.3235017
  32.3889987  49.9555006  53.2115017  30.9699987  48.3845006  53.0445017
  30.2019987  49.0345006  52.3375017  30.6339987  47.2235006  53.5905017
  29.7059987  46.8505006  53.4465017  31.3069987  46.7175006  54.1475017
  34.5059987  49.2945006  52.1105017  34.3679987  50.2035006  51.2975017
  35.6059987  49.1395006  52.8515017  35.6219987  48.4555006  53.5945017
  36.7819987  49.9965006  52.6705017  36.4579987  51.0315006  52.5605017
  37.7379987  49.9065006  53.8665017  38.4239987  50.7515006  53.8165017
  37.1459987  49.9735006  54.7795017  38.4789987  48.6955006  53.8705017
  39.0629987  48.6805006  54.6325017  37.5029987  49.6405006  51.3735017
  37.1729987  48.6515006  50.7135017  38.4959987  50.4435006  51.0165017
  38.8529987  51.1365006  51.6585017  39.0559987  50.3935006  49.6735017
  38.4859987  49.7055006  49.0495017  38.9929987  51.7815006  49.0515017
  39.4839987  52.5015006  49.7055017  39.4739987  51.7925006  48.0735017
  37.6009987  52.2715006  48.8475017  36.6769987  51.5735006  48.1025017
  35.5349987  52.2335006  48.0965017  34.6709987  51.8435006  47.5575017
  35.6859987  53.3335006  48.8115017  34.9789987  54.0345006  48.9795017
  36.9689987  53.3775006  49.2965017  37.2879987  54.2125006  49.9195017
  40.4769987  49.8845006  49.5835017  41.2049987  49.8265006  50.5785017
  40.8399987  49.5025006  48.3625017  40.1279987  49.3545006  47.6615017
  42.2189987  49.2665006  47.9985017  42.8489987  49.2605006  48.8875017
  42.3949987  47.9435006  47.2385017  41.8019987  47.9755006  46.3245017
  43.8579987  47.7295006  46.8855017  44.4519987  47.6965006  47.7995017
  43.9679987  46.7885006  46.3475017  44.2039987  48.5495006  46.2565017
  41.8639987  46.7665006  48.0675017  40.8179987  46.9845006  48.2845017
  41.9259987  45.8835006  47.4305017  42.6069987  46.5065006  49.3665017
  42.5449987  47.3885006  50.0035017  42.1569987  45.6565006  49.8795017
  43.6529987  46.2875006  49.1505017  42.6409987  50.4455006  47.1325017
  42.1749987  50.6035006  46.0055017  43.5149987  51.2785006  47.6835017
  43.9009987  51.0485006  48.5885017  43.9139987  52.5305006  47.0615017
  43.1409987  52.9345006  46.4085017  44.2479987  53.5795006  48.1345017
  44.9379987  53.1365006  48.8525017  44.8849987  54.8125006  47.5145017
  44.1949987  55.2565006  46.7965017  45.1109987  55.5375006  48.2965017
  45.8059987  54.5295006  47.0055017  42.9879987  53.9445006  48.9045017
  42.5839987  53.0535006  49.3845017  43.2279987  54.6885006  49.6645017
  42.2469987  54.3535006  48.2175017  45.1149987  52.3085006  46.1555017
  46.0219987  51.5535006  46.5005017  45.1189987  52.9945006  45.0125017
  44.3679987  53.6495006  44.8455017  46.0969987  52.7755006  43.9495017
  45.7829987  53.3155006  43.0565017  47.4979987  53.2685006  44.3565017
  47.6969987  52.8785006  45.3545017  48.2069987  52.8365006  43.6505017
  47.6499987  54.7855006  44.3645017  47.1869987  55.1645006  43.4535017
  47.1119987  55.1685006  45.2315017  49.1059987  55.2465006  44.4245017
  49.3479987  56.4265006  44.7795017  50.0139987  54.4405006  44.1155017
  46.0949987  51.2945006  43.5595017  47.1469987  50.6745006  43.3465017
  44.8899987  50.7355006  43.4725017  44.0629987  51.2775006  43.6765017
  44.7259987  49.3385006  43.1115017  45.3059987  48.6935006  43.7715017
  43.2669987  48.9345006  43.1995017  42.6739987  49.5655006  42.5365017
  43.1589987  47.8915006  42.9005017  42.9169987  49.0555006  44.2245017
  45.2419987  49.1305006  41.7015017  45.1219987  50.0255006  40.8615017
  45.8289987  47.9585006  41.4545017  45.9709987  47.3065006  42.2135017
  46.3139987  47.5895006  40.1225017  45.5869987  47.9085006  39.3755017
  47.6639987  48.2495006  39.8055017  47.6659987  48.5425006  38.7555017
  47.7689987  49.1365006  40.4305017  48.7499987  47.3655006  40.0525017
  49.5759987  47.8075006  39.8445017  46.4609987  46.0825006  39.9995017
  46.8339987  45.4005006  40.9515017  46.2079987  45.5765006  38.8055017
  45.9249987  46.1845006  38.0505017  46.2619987  44.1505006  38.5555017
  46.6079987  43.5895006  39.4235017  44.8759987  43.6215006  38.1185017
  44.1509987  43.8885006  38.8875017  44.4369987  44.2075006  36.7805017
  45.1609987  43.9405006  36.0115017  43.4589987  43.8085006  36.5125017
  44.3769987  45.2925006  36.8605017  44.8629987  42.0885006  38.0715017
  44.0119987  41.7955006  37.4575017  45.7869987  41.7765006  37.5835017
  44.7589987  41.4225006  39.4305017  43.8349987  41.7335006  39.9185017
  44.7559987  40.3395006  39.3055017  45.6099987  41.7145006  40.0455017
  47.3209987  43.8645006  37.5035017  47.3259987  44.4825006  36.4415017
  48.2419987  42.9575006  37.8145017  48.3499987  42.6595006  38.7735017
  49.1869987  42.4365006  36.8105017  48.8389987  42.7165006  35.8165017
  50.6079987  42.9945006  37.0105017  51.1909987  42.6635006  36.1515017
  50.5159987  44.0805006  36.9905017  51.3099987  42.5675006  38.2955017
  50.5729987  42.5015006  39.0955017  51.7659987  41.5895006  38.1405017
  52.3839987  43.5725006  38.6785017  53.0469987  43.7075006  37.8235017
  51.8979987  44.5195006  38.9135017  53.1839987  43.1565006  39.8315017
  52.8339987  43.4325006  40.7375017  54.3239987  42.4615006  39.7735017
  54.8369987  42.0575006  38.6115017  54.3599987  42.2775006  37.7485017
  55.6999987  41.5335006  38.5995017  54.9619987  42.1535006  40.8985017
  54.5819987  42.4465006  41.7875017  55.8239987  41.6285006  40.8595017
  49.1899987  40.9115006  36.8215017  48.8329987  40.2825006  37.8215017
  49.5829987  40.3235006  35.7015017  49.8939987  40.8715006  34.9125017
  49.5159987  38.8815006  35.5545017  49.5349987  38.4215006  36.5425017
  48.2239987  38.4885006  34.8615017  48.1939987  38.9335006  33.8675017
  48.1729987  37.4035006  34.7745017  47.3749987  38.8455006  35.4445017
  50.7179987  38.3555006  34.7895017  51.1219987  38.9295006  33.7865017
  51.2759987  37.2565006  35.2835017  50.8319987  36.8055006  36.0715017
  52.4999987  36.6685006  34.7495017  52.8599987  37.2505006  33.9015017
  53.5869987  36.6635006  35.8385017  53.1289987  36.2195006  36.7225017
  54.3789987  36.0105006  35.4735017  54.1779987  38.0275006  36.2015017
  53.4389987  38.7975006  35.9775017  54.3999987  38.0375006  37.2685017
  55.4539987  38.3045006  35.4145017  56.0659987  37.4035006  35.4565017
  55.1659987  38.4995006  34.3815017  56.2529987  39.4865006  35.9505017
  56.1439987  39.4975006  37.0355017  57.2999987  39.3255006  35.6925017
  55.7999987  40.7895006  35.3935017  54.8299987  40.9395006  35.6325017
  56.3609987  41.5345006  35.7805017  55.9009987  40.7795006  34.3885017
  52.2119987  35.2335006  34.2985017  51.5729987  34.4665006  35.0135017
  52.6719987  34.8755006  33.1095017  53.1179987  35.5535006  32.5085017
  52.5499987  33.5035006  32.6315017  51.6979987  33.0255006  33.1155017
  52.3389987  33.4595006  31.1185017  51.2939987  33.7435006  30.9915017
  52.9789987  34.2235006  30.6765017  52.5909987  32.1195006  30.4245017
  53.6299987  31.8315006  30.5855017  51.6759987  31.0415006  30.9775017
  50.6369987  31.3285006  30.8165017  51.8749987  30.0985006  30.4675017
  51.8579987  30.9225006  32.0455017  52.3899987  32.2675006  28.9295017
  53.0859987  33.0105006  28.5405017  52.5709987  31.3095006  28.4415017
  51.3679987  32.5885006  28.7295017  53.8259987  32.7805006  32.9835017
  54.9139987  33.2345006  32.6295017  53.6849987  31.6445006  33.6545017
  52.7579987  31.3185006  33.8895017  54.8269987  30.8755006  34.1265017
  55.7699987  31.3385006  33.8345017  54.7839987  30.7205006  35.6525017
  53.8609987  30.2135006  35.9335017  55.9779987  29.9055006  36.1335017
  56.9009987  30.4125006  35.8525017  55.9349987  29.8025006  37.2175017
  55.9529987  28.9175006  35.6745017  54.7409987  32.1115006  36.2845017
  55.6279987  32.6425006  35.9405017  53.8499987  32.6065006  35.8995017
  54.7059987  32.1155006  37.7885017  55.5969987  31.6205006  38.1745017
  54.6769987  33.1435006  38.1495017  53.8189987  31.5845006  38.1335017
  54.8909987  29.5035006  33.4575017  54.0639987  28.6215006  33.7145017
  55.8809987  29.3425006  32.5865017  56.4589987  30.1335006  32.3395017
  56.1339987  28.0745006  31.9295017  56.0009987  27.2635006  32.6455017
  55.1739987  27.8545006  30.7555017  55.1079987  26.7755006  30.6135017
  54.2059987  28.2385006  31.0765017  55.5719987  28.5165006  29.4415017
  55.4979987  29.5975006  29.5595017  56.6029987  28.2455006  29.2135017
  54.6689987  28.0695006  28.3075017  53.6329987  28.1125006  28.6445017
  54.8039987  28.7445006  27.4625017  55.0039987  26.6495006  27.8795017
  56.0179987  26.6485006  27.4785017  54.9629987  26.0125006  28.7635017
  54.0639987  26.1305006  26.8505017  54.1019987  26.7205006  26.0315017
  54.3269987  25.1885006  26.5995017  53.1249987  26.1305006  27.2215017
  57.5779987  28.0355006  31.4565017  58.1349987  29.0545006  31.0445017
  58.1669987  26.8455006  31.5145017  57.6439987  26.0495006  31.8495017
  59.5559987  26.6475006  31.1355017  60.1849987  27.3955006  31.6185017
  60.0249987  25.2635006  31.5695017  59.6409987  24.5215006  30.8695017
  61.1149987  25.2385006  31.5635017  59.5539987  24.9705006  32.8715017
  59.8559987  24.0975006  33.1325017  59.7319987  26.7925006  29.6355017
  58.7629987  26.7255006  28.8685017  60.9779987  26.9985006  29.2265017
  61.7249987  27.1095006  29.8965017  61.2899987  27.1485006  27.8185017
  60.7019987  26.4435006  27.2315017  60.9629987  28.5675006  27.3495017
  61.1079987  28.5805006  26.2695017  59.9099987  28.7365006  27.5765017
  61.8029987  29.6675006  27.9875017  61.4029987  29.8725006  28.9805017
  62.8279987  29.3085006  28.0765017  61.7829987  30.9435006  27.1605017
  60.7539987  31.2965006  27.0955017  62.3919987  31.6925006  27.6665017
  62.3279987  30.7095006  25.7585017  63.0829987  29.9255006  25.8125017
  61.5059987  30.3785006  25.1235017  62.9309987  31.9375006  25.1855017
  63.6929987  32.2445006  25.7735017  63.2789987  31.7405006  24.2585017
  62.2309987  32.6645006  25.1345017  62.7399987  26.8085006  27.5165017
  63.5519987  26.6165006  28.4185017  63.0389987  26.7445006  26.2255017
  62.3179987  26.9635006  25.5535017  64.3489987  26.3705006  25.7305017
  65.0899987  26.4265006  26.5275017  64.2919987  24.9285006  25.2145017
  63.3839987  24.4885006  25.6275017  64.2029987  24.9925006  24.1305017
  65.4889987  24.0555006  25.5755017  66.2369987  24.1715006  24.7915017
  65.9059987  24.3875006  26.5265017  65.1269987  22.5745006  25.6905017
  64.1759987  22.2045006  26.3935017  65.8949987  21.7175006  25.0165017
  65.6989987  20.7275006  25.0585017  66.6689987  22.0625006  24.4675017
  64.7119987  27.3355006  24.6055017  63.9159987  27.5665006  23.6995017
  65.8979987  27.9205006  24.6645017  66.5049987  27.8045006  25.4625017
  66.3249987  28.8105006  23.5975017  65.4729987  29.3805006  23.2275017
  67.4199987  29.8025006  24.0635017  67.6389987  30.4905006  23.2475017
  66.9589987  30.5905006  25.2815017  66.7399987  29.9025006  26.0985017
  67.7459987  31.2795006  25.5885017  66.0599987  31.1545006  25.0315017
  68.6279987  29.1055006  24.3875017  69.2939987  29.7355006  24.6735017
  66.8179987  27.9775006  22.4155017  67.2289987  26.8265006  22.5905017
  66.7609987  28.5615006  21.2175017  66.2899987  29.4515006  21.1315017
  67.3509987  27.9655006  20.0095017  66.7149987  27.1575006  19.6485017
  67.4849987  29.0165006  18.8995017  68.3409987  29.6505006  19.1285017
  67.6589987  28.4995006  17.9565017  66.3219987  29.8155006  18.7915017
  66.4399987  30.4595006  18.0895017  68.7349987  27.3975006  20.2945017
  69.0769987  26.3125006  19.8325017  69.5099987  28.1485006  21.0755017
  69.1099987  28.9845006  21.4765017  70.9179987  27.8655006  21.3295017
  71.3979987  27.5165006  20.4155017  71.6379987  29.1375006  21.8075017
  71.1409987  29.4525006  22.7245017  72.6649987  28.8495006  22.0325017
  71.6399987  30.2955006  20.8045017  72.4549987  30.9625006  21.0855017
  71.8419987  29.8695006  19.8215017  70.3319987  31.0815006  20.7585017
  69.5109987  30.9365006  21.6875017  70.1199987  31.8475006  19.7935017
  71.1309987  26.7435006  22.3435017  72.2119987  26.1555006  22.3875017
  70.1199987  26.4605006  23.1635017  69.2839987  27.0265006  23.1445017
  70.1789987  25.3405006  24.1055017  69.5469987  24.5555006  23.6905017
  71.2149987  25.0025006  24.1185017  69.7359987  25.6315006  25.5295017
  69.3679987  24.7155006  26.2585017  69.7559987  26.8955006  25.9355017
  70.0109987  27.6335006  25.2955017  69.4899987  27.2485006  27.3325017
  70.1399987  26.6685006  27.9885017  69.7549987  28.7405006  27.5735017
  70.7059987  28.9825006  27.0985017  68.9539987  29.2955006  27.0845017
  69.8119987  29.1245006  29.0515017  68.8529987  28.8425006  29.4865017
  70.6079987  28.5475006  29.5225017  70.0559987  30.6045006  29.2835017
  70.4199987  30.9735006  30.4235017  69.8679987  31.3995006  28.3345017
  68.0689987  26.8965006  27.7865017  67.0919987  27.3815006  27.2285017
  67.9729987  26.0505006  28.8065017  68.7929987  25.5515006  29.1225017
  66.7049987  25.7935006  29.4805017  65.8849987  25.8585006  28.7655017
  66.7059987  24.3905006  30.0995017  66.7179987  23.6265006  29.3215017
  67.5859987  24.2785006  30.7325017  65.5079987  24.1005006  30.9705017
  64.3049987  23.6835006  30.4075017  64.2319987  23.5715006  29.3255017
  63.2069987  23.4115006  31.2075017  62.2689987  23.0895006  30.7555017
  63.3019987  23.5495006  32.5815017  62.4369987  23.3395006  33.2105017
  64.4949987  23.9545006  33.1575017  64.5719987  24.0595006  34.2395017
  65.5899987  24.2265006  32.3565017  66.5299987  24.5435006  32.8075017
  66.4859987  26.8445006  30.5675017  67.3809987  27.0995006  31.3755017
  65.2919987  27.4415006  30.5845017  64.6149987  27.1995006  29.8745017
  64.9249987  28.4575006  31.5785017  65.7509987  28.6365006  32.2665017
  64.5269987  29.7815006  30.8995017  63.6729987  29.6025006  30.2465017
  64.1559987  30.8265006  31.9465017  65.0099987  31.0065006  32.5995017
  63.8769987  31.7555006  31.4505017  63.3149987  30.4655006  32.5385017
  65.6739987  30.2915006  30.0135017  66.4559987  30.6515006  30.6815017
  66.0449987  29.4365006  29.4485017  65.2799987  31.3985006  29.0535017
  64.9099987  32.2545006  29.6175017  66.1489987  31.6985006  28.4675017
  64.4979987  31.0385006  28.3845017  63.7569987  27.9465006  32.4265017
  62.6269987  27.9255006  31.9565017  64.0269987  27.5325006  33.6765017
  65.3559987  27.6445006  34.3065017  65.6089987  28.6985006  34.4205017
  66.0949987  27.1605006  33.6685017  65.1919987  26.9415006  35.6325017
  65.7629987  27.4685006  36.3965017  65.5559987  25.9175006  35.5495017
  63.7409987  26.9645006  35.9295017  63.3649987  27.8645006  36.4165017
  63.5109987  26.0955006  36.5455017  63.0969987  26.8125006  34.5515017
  63.1579987  25.7755006  34.2225017  61.6219987  27.2505006  34.5935017
  60.7489987  26.4625006  34.2385017  61.3219987  28.4545006  35.0535017
  62.0329987  29.1095006  35.3445017  59.9279987  28.8215006  35.2425017
  59.2869987  28.1795006  34.6375017  59.5379987  28.6565006  36.7115017
  60.3249987  29.1655006  37.2675017  58.5859987  29.1575006  36.8895017
  59.4429987  27.1965006  37.1805017  60.3489987  26.6675006  36.8835017
  59.2939987  27.1345006  38.6895017  58.3879987  27.6625006  38.9875017
  59.2279987  26.0935006  39.0065017  60.1589987  27.6025006  39.1605017
  58.2909987  26.4475006  36.5175017  58.4329987  26.4455006  35.4365017
  58.2669987  25.4205006  36.8825017  57.3489987  26.9405006  36.7595017
  59.7149987  30.2275006  34.7285017  59.4029987  31.1575006  35.4765017
  59.8689987  30.3455006  33.4145017  59.9109987  29.5085006  32.8505017
  60.0419987  31.6315006  32.7555017  60.8419987  32.1925006  33.2385017
  60.4079987  31.4255006  31.2895017  61.1149987  30.5985006  31.2205017
  59.5079987  31.1805006  30.7255017  61.0389987  32.6505006  30.6805017
  61.9529987  33.2375006  31.2595017  60.5539987  33.0525006  29.5125017
  60.9419987  33.8685006  29.0615017  59.7989987  32.5405006  29.0795017
  58.8199987  32.5295006  32.8445017  57.7389987  32.1635006  32.3835017
  59.0039987  33.7125006  33.4235017  59.9119987  33.9565006  33.7915017
  57.9149987  34.6605006  33.5925017  56.9629987  34.1315006  33.6455017
  58.1069987  35.4475006  34.8825017  59.1479987  35.7695006  34.9135017
  57.4579987  36.3215006  34.8285017  57.7859987  34.6575006  36.1325017
  56.7059987  34.5175006  36.1885017  58.2759987  33.6855006  36.0805017
  58.2479987  35.3655006  37.3905017  58.2659987  36.5985006  37.4505017
  58.6339987  34.5885006  38.4025017  58.9509987  35.0085006  39.2645017
  58.6069987  33.5835006  38.3025017  57.8059987  35.6225006  32.4105017
  58.7479987  36.3515006  32.1015017  56.6509987  35.6115006  31.7515017
  55.9649987  34.9005006  31.9625017  56.3429987  36.5795006  30.7105017
  57.1659987  37.2875006  30.6165017  56.1359987  35.8825006  29.3535017
  56.1829987  36.6285006  28.5605017  57.2099987  34.8335006  29.1255017
  57.1629987  34.0865006  29.9175017  57.0479987  34.3505006  28.1615017
  58.1909987  35.3095006  29.1335017  54.8579987  35.2425006  29.3215017
  54.7369987  34.8105006  28.4725017  55.0769987  37.3325006  31.1185017
  54.0329987  36.7175006  31.3305017  55.1709987  38.6545006  31.2475017
  56.0599987  39.1165006  31.1185017  54.0219987  39.4635006  31.6515017
  53.6489987  39.1155006  32.6145017  54.4169987  40.9465006  31.7835017
  55.4089987  41.0095006  32.2305017  54.4509987  41.3415006  30.7685017
  53.4209987  41.7725006  32.6235017  53.0139987  41.3475006  33.7315017
  53.0659987  42.8845006  32.1785017  52.8659987  39.2805006  30.6505017
  53.0759987  39.3165006  29.4355017  51.6689987  39.0315006  31.1875017
  51.6239987  38.8655006  32.1825017  50.4199987  39.0065006  30.4225017
  50.6219987  38.7445006  29.3835017  49.4069987  38.0065006  31.0165017
  49.2039987  38.2815006  32.0515017  48.1089987  38.0255006  30.2235017
  48.3109987  37.7505006  29.1885017  47.4069987  37.3135006  30.6575017
  47.6779987  39.0265006  30.2555017  49.9819987  36.5935006  31.0355017
  50.0129987  36.2385006  30.0055017  50.9969987  36.6575006  31.4285017
  49.1749987  35.6265006  31.8785017  48.1599987  35.5615006  31.4865017
  49.6399987  34.6415006  31.8475017  49.1439987  35.9805006  32.9085017
  49.7829987  40.4005006  30.4645017  49.6419987  41.0105006  31.5285017
  49.3859987  40.8995006  29.3045017  49.5019987  40.3745006  28.4495017
  48.7959987  42.2145006  29.2255017  49.4099987  42.9325006  29.7685017
  48.7009987  42.6575006  27.7685017  49.6679987  42.5055006  27.2895017
  47.9479987  42.0505006  27.2655017  48.3179987  44.1145006  27.6315017
  47.9049987  44.7535006  28.5965017  48.4539987  44.6505006  26.4295017
  48.2129987  45.6205006  26.2825017  48.7989987  44.0875006  25.6645017
  47.4129987  42.1975006  29.8475017  46.5889987  41.3685006  29.4755017
  47.1609987  43.0955006  30.7985017  47.9159987  43.6345006  31.1975017
  45.8179987  43.2485006  31.3705017  45.0499987  42.9235006  30.6685017
  45.6569987  42.4495006  32.6835017  44.7069987  42.7185006  33.1465017
  45.6809987  40.9555006  32.4075017  46.6309987  40.6865006  31.9455017
  45.5659987  40.4105006  33.3445017  44.8629987  40.6965006  31.7345017
  46.7449987  42.8195006  33.6775017  46.6839987  43.8835006  33.9045017
  46.6109987  42.2445006  34.5935017  47.7219987  42.5955006  33.2485017
  45.4369987  44.7185006  31.5835017  44.7199987  45.0565006  32.5255017
  45.9069987  45.5795006  30.6835017  46.5729987  45.2525006  29.9975017
  45.4999987  46.9885006  30.6415017  44.9069987  47.1145006  29.7355017
  44.8699987  47.1575006  31.5145017  46.6269987  48.0085006  30.6405017
  46.3629987  49.2045006  30.7685017  47.8669987  47.5475006  30.4665017
  47.9859987  46.5895006  30.1685017  49.0709987  48.3475006  30.7435017
  49.0729987  48.6845006  31.7805017  50.3169987  47.4865006  30.5055017
  50.1419987  46.5075006  30.9505017  50.3579987  47.3895006  29.4205017
  51.6359987  48.0455006  31.0145017  51.7679987  48.5305006  32.3195017
  50.8939987  48.5215006  32.9715017  52.9839987  49.0185006  32.7915017
  53.0629987  49.4085006  33.8065017  54.0989987  49.0075006  31.9625017
  55.3099987  49.4865006  32.4255017  55.2669987  49.8015006  33.3315017
  53.9919987  48.5145006  30.6705017  54.8649987  48.5045006  30.0175017
  52.7719987  48.0335006  30.2085017  52.6909987  47.6365006  29.1965017
  49.1679987  49.6225006  29.9135017  49.5829987  50.6655006  30.4185017
  48.7739987  49.5435006  28.6485017  48.4119987  48.6755006  28.2815017
  48.9509987  50.6645006  27.7285017  49.8259987  51.2495006  28.0115017
  49.1539987  50.1365006  26.3065017  48.2239987  49.6945006  25.9485017
  49.4099987  50.9955006  25.6865017  50.2579987  49.1145006  26.2285017
  51.5869987  49.4915006  26.3455017  51.8259987  50.5465006  26.4825017
  52.6029987  48.5535006  26.2905017  53.6429987  48.8685006  26.3745017
  52.2959987  47.2125006  26.1285017  53.2939987  46.2615006  26.0765017
  54.1739987  46.6355006  26.1625017  50.9799987  46.8155006  26.0165017
  50.7309987  45.7625006  25.8855017  49.9709987  47.7645006  26.0715017
  48.9279987  47.4565006  25.9915017  47.8059987  51.6855006  27.7825017
  47.9349987  52.8025006  27.2965017  46.6859987  51.3065006  28.3765017
  46.5909987  50.3675006  28.7355017  45.5599987  52.2135006  28.5155017
  45.7359987  53.1085006  27.9185017  44.2779987  51.5405006  28.0215017
  43.4609987  52.2615006  28.0545017  44.4579987  51.0465006  26.5985017
  45.2739987  50.3255006  26.5645017  43.5379987  50.5695006  26.2595017
  44.6909987  51.8895006  25.9475017  43.9819987  50.4245006  28.8635017
  43.1779987  49.9975006  28.5585017  45.3489987  52.6495006  29.9615017
  44.5359987  53.5315006  30.2295017  46.0789987  52.0385006  30.8915017
  46.7929987  51.3785006  30.6195017  45.8789987  52.2945006  32.3135017
  46.7159987  51.8665006  32.8655017  45.8519987  53.3725006  32.4725017
  44.5859987  51.6865006  32.8275017  44.0559987  52.1165006  33.8525017
  44.0779987  50.6855006  32.1145017  44.4759987  50.4535006  31.2155017
  42.9049987  49.9485006  32.5605017  42.2739987  50.5985006  33.1665017
  42.0859987  49.4465006  31.3635017  42.7919987  49.0935006  30.6125017
  41.4629987  48.6155006  31.6945017  41.2029987  50.5355006  30.7595017
  40.2199987  50.9305006  31.4235017  41.4759987  50.9875006  29.6235017
  43.3279987  48.7935006  33.4615017  42.4919987  48.0325006  33.9415017
  44.6299987  48.6615006  33.6845017  45.2989987  49.1325006  33.0925017
  45.1329987  47.7725006  34.7215017  44.4839987  46.9005006  34.7955017
  46.5569987  47.2985006  34.4095017  46.8479987  46.6365006  35.2255017
  46.5389987  46.7365006  33.4755017  47.5589987  48.4345006  34.2975017
  47.1459987  49.5985006  34.0925017  48.7719987  48.1345006  34.3935017
  45.0729987  48.4355006  36.0935017  45.2249987  47.7695006  37.1125017
  44.8559987  49.7455006  36.1175017  44.8909987  50.2815006  35.2625017
  44.5999987  50.4515006  37.3655017  45.1719987  49.9905006  38.1705017
  45.0089987  51.9165006  37.2545017  44.3699987  52.3755006  36.5005017
  44.8189987  52.3805006  38.2225017  46.4699987  52.1185006  36.8725017
  47.0849987  51.7625006  37.6985017  46.6709987  51.5185006  35.9855017
  46.8019987  53.5755006  36.5845017  46.7289987  54.1445006  37.5115017
  47.8209987  53.6365006  36.2015017  45.8959987  54.1645006  35.6015017
  45.2039987  53.5535006  35.1925017  45.9209987  55.4385006  35.2215017
  46.8239987  56.2835006  35.7105017  47.5049987  55.9575006  36.3815017
  46.8249987  57.2475006  35.4085017  45.0329987  55.8675006  34.3355017
  44.3489987  55.2265006  33.9595017  45.0439987  56.8335006  34.0405017
  43.1149987  50.3265006  37.6845017  42.2639987  50.8655006  36.9795017
  42.8119987  49.5965006  38.7505017  43.5509987  49.2425006  39.3415017
  41.4429987  49.2565006  39.0835017  40.8259987  49.2555006  38.1855017
  41.3979987  47.8665006  39.7065017  42.0059987  47.9585006  40.6065017
  40.3659987  47.6545006  39.9855017  41.9339987  46.7305006  38.8465017
  42.9789987  46.9195006  38.6015017  41.8229987  45.4235006  39.6145017
  40.7779987  45.2335006  39.8595017  42.2059987  44.6075006  39.0015017
  42.4049987  45.4905006  40.5335017  41.1839987  46.6485006  37.5265017
  41.3019987  47.5855006  36.9825017  41.5859987  45.8295006  36.9305017
  40.1259987  46.4725006  37.7195017  40.7889987  50.2435006  40.0475017
  41.4399987  50.7805006  40.9525017  39.4959987  50.4815006  39.8125017
  39.1359987  50.2535006  38.8965017  38.5759987  51.0435006  40.7975017
  39.1379987  51.4235006  41.6505017  37.7719987  52.1935006  40.1905017
  38.4119987  53.0495006  39.9775017  37.3119987  51.8455006  39.2655017
  36.6519987  52.6995006  41.0655017  36.9159987  53.2245006  42.3245017
  37.9449987  53.2555006  42.6815017  35.8919987  53.7045006  43.1225017
  36.1119987  54.1075006  44.1105017  34.5869987  53.6715006  42.6635017
  33.7789987  54.0505006  43.2895017  34.3079987  53.1565006  41.4085017
  33.2799987  53.1265006  41.0455017  35.3359987  52.6795006  40.6145017
  35.1189987  52.2825006  39.6225017  37.6689987  49.8875006  41.1835017
  36.7279987  49.5575006  40.4665017  37.9819987  49.2555006  42.3045017
  38.6399987  49.6725006  42.9475017  37.4209987  47.9555006  42.6385017
  36.8759987  47.5435006  41.7895017  38.5599987  47.0035006  42.9955017
  39.1419987  46.9495006  42.0755017  39.1519987  47.4905006  43.7705017
  38.1929987  45.5985006  43.4465017  37.5099987  45.6605006  44.2935017
  37.5249987  44.8485006  42.3125017  38.2079987  44.7865006  41.4655017
  37.2649987  43.8435006  42.6445017  36.6199987  45.3755006  42.0105017
  39.4319987  44.8635006  43.9235017  39.8759987  45.4035006  44.7605017
  39.1579987  43.8585006  44.2445017  40.1539987  44.8005006  43.1095017
  36.4579987  48.0665006  43.8025017  36.8739987  48.0195006  44.9635017
  35.1729987  48.2205006  43.5015017  34.8889987  48.4415006  42.5575017
  34.1469987  48.1785006  44.5425017  34.6049987  48.1575006  45.5315017
  33.1919987  49.3845006  44.4685017  32.7149987  49.4015006  43.4885017
  32.1259987  49.2815006  45.5505017  32.6029987  49.2655006  46.5305017
  31.4579987  50.1405006  45.4865017  31.5529987  48.3655006  45.4105017
  33.9769987  50.6765006  44.6175017  34.7119987  50.7505006  43.8155017
  33.2949987  51.5245006  44.5645017  34.4889987  50.6825006  45.5795017
  33.4009987  46.8505006  44.4495017  33.6499987  45.9285006  45.2395017
  32.5019987  46.7485006  43.4725017  32.2259987  47.5655006  42.9465017
  31.8679987  45.4805006  43.1575017  31.6419987  44.9535006  44.0845017
  30.5609987  45.6755006  42.3715017  29.9339987  44.7975006  42.5285017
  30.0549987  46.5575006  42.7645017  30.7969987  45.8455006  40.9845017
  29.9599987  45.9635006  40.5295017  32.8789987  44.6735006  42.3505017
  33.7909987  45.2495006  41.7585017  32.7239987  43.3435006  42.3265017
  31.6989987  42.5805006  43.0635017  30.7179987  42.7815006  42.6325017
  31.7039987  42.8845006  44.1105017  32.1259987  41.1615006  42.8805017
  31.2529987  40.5085006  42.8545017  32.7799987  40.8595006  43.6985017
  32.8549987  41.1455006  41.5835017  32.1599987  41.1185006  40.7445017
  33.5539987  40.3125006  41.5025017  33.6169987  42.4665006  41.5825017
  34.5559987  42.4265006  42.1355017  33.8919987  42.9105006  40.1415017
  32.9869987  43.4215006  39.4785017  35.1349987  42.7185006  39.6845017
  35.8219987  42.3355006  40.3175017  35.5479987  43.0225006  38.3125017
  34.7059987  43.4425006  37.7625017  36.6909987  44.0315006  38.2975017
  37.4549987  43.5425006  38.9015017  37.0389987  44.1105006  37.2675017
  36.4199987  45.4315006  38.8535017  36.0599987  45.3495006  39.8785017
  37.7019987  46.2495006  38.8305017  38.0629987  46.3315006  37.8055017
  37.5049987  47.2455006  39.2275017  38.4579987  45.7585006  39.4425017
  35.3199987  46.1505006  38.0835017  34.3959987  45.5755006  38.1465017
  35.1619987  47.1395006  38.5135017  35.6139987  46.2515006  37.0385017
  36.0329987  41.7685006  37.6065017  36.7109987  40.9405006  38.2085017
  35.6879987  41.6485006  36.3235017  35.0449987  42.3185006  35.9265017
  36.2209987  40.5995006  35.4545017  36.5449987  39.7555006  36.0645017
  35.1879987  40.1175006  34.4185017  34.7689987  40.9825006  33.9045017
  35.8469987  39.1935006  33.4025017  36.2649987  38.3275006  33.9155017
  35.1039987  38.8615006  32.6775017  36.6439987  39.7295006  32.8865017
  34.0299987  39.3845006  35.1045017  34.3989987  38.3995006  35.3885017
  33.7799987  39.9505006  36.0015017  32.7899987  39.2305006  34.2405017
  33.0399987  38.6635006  33.3435017  32.0189987  38.7015006  34.8015017
  32.4199987  40.2155006  33.9565017  37.4079987  41.1755006  34.6985017
  37.2259987  41.9965006  33.8065017  38.6149987  40.7385006  35.0445017
  38.7129987  40.0675006  35.7935017  39.8259987  41.2105006  34.3745017
  39.7439987  42.2675006  34.1215017  41.1029987  40.9795006  35.2205017
  41.2889987  39.9075006  35.2915017  42.3069987  41.6625006  34.5805017
  42.1219987  42.7345006  34.5095017  43.1919987  41.4865006  35.1915017
  42.4679987  41.2555006  33.5825017  40.9079987  41.4585006  36.6705017
  40.2829987  40.7145006  37.1635017  41.8949987  41.4665006  37.1325017
  40.2719987  42.8275006  36.8145017  39.2839987  42.8205006  36.3535017
  40.1769987  43.0755006  37.8715017  40.8969987  43.5725006  36.3215017
  39.9489987  40.4545006  33.0645017  39.8909987  39.2215006  33.0495017
  40.1169987  41.2005006  31.9755017  40.1779987  42.2045006  32.0695017
  40.1539987  40.6245006  30.6275017  39.9669987  39.5515006  30.6795017
  39.0799987  41.2675006  29.7365017  38.1079987  41.1245006  30.2095017
  39.2909987  42.3335006  29.6565017  39.0649987  40.6905006  28.4415017
  38.3849987  41.1125006  27.9105017  41.5279987  40.7735006  29.9725017
  42.0759987  41.8685006  29.8665017  42.0829987  39.6505006  29.5465017
  41.6719987  38.7615006  29.7925017  43.2779987  39.6515006  28.7355017
  43.7309987  40.6425006  28.7565017  44.2979987  38.6375006  29.2555017
  44.8579987  39.0485006  30.0955017  43.7819987  37.7305006  29.5715017
  45.3059987  38.2215006  28.2325017  46.2789987  39.0755006  27.7575017
  47.0179987  38.4425006  26.8655017  47.8469987  38.9495006  26.3715017
  46.5589987  37.2105006  26.7435017  46.9309987  36.4965006  26.1335017
  45.4839987  37.0475006  27.5835017  44.9609987  36.0915006  27.6205017
  42.8369987  39.2905006  27.3325017  42.4089987  38.1635006  27.0825017
  42.9229987  40.2575006  26.4275017  43.1899987  41.1895006  26.7095017
  42.6079987  40.0245006  25.0295017  41.6739987  39.4685006  24.9445017
  42.4499987  41.3585006  24.2985017  41.6899987  41.9245006  24.8355017
  43.4069987  41.8745006  24.3725017  42.0519987  41.2375006  22.8355017
  42.8039987  40.6235006  22.3395017  41.0849987  40.7365006  22.7875017
  41.9599987  42.5825006  22.1405017  41.2089987  43.4605006  22.6305017
  42.6369987  42.7525006  21.0995017  43.7249987  39.1925006  24.4055017
  44.8879987  39.5995006  24.4225017  43.3609987  38.0295006  23.8665017
  42.3919987  37.7475006  23.9115017  44.3189987  37.1185006  23.2485017
  45.2839987  37.2165006  23.7455017  43.8579987  35.6515006  23.3085017
  42.9429987  35.5395006  22.7265017  44.9369987  34.7395006  22.7375017
  45.8519987  34.8505006  23.3185017  44.5999987  33.7035006  22.7845017
  45.1309987  35.0105006  21.6995017  43.5369987  35.2435006  24.7485017
  44.4589987  35.3325006  25.3225017  42.8019987  35.9525006  25.1295017
  42.9939987  33.8345006  24.8805017  43.7279987  33.1245006  24.5005017
  42.7909987  33.6195006  25.9295017  42.0719987  33.7445006  24.3065017
  44.5499987  37.5175006  21.7965017  43.9029987  37.0015006  20.8845017
  45.4919987  38.4385006  21.6115017  45.9679987  38.7955006  22.4275017
  45.8469987  38.9875006  20.3075017  45.0969987  38.7205006  19.5625017
  45.9109987  40.5135006  20.4115017  46.1729987  40.9145006  19.4325017
  44.9319987  40.8895006  20.7075017  46.9399987  40.9905006  21.4225017
  47.8369987  40.2475006  21.8285017  46.8089987  42.2375006  21.8395017
  47.4619987  42.6135006  22.5115017  46.0559987  42.8095006  21.4835017
  47.1829987  38.4355006  19.8115017  47.7809987  37.5805006  20.4615017
  47.6539987  38.9325006  18.6685017  47.0709987  39.5575006  18.1305017
  48.9569987  38.5445006  18.1135017  48.9099987  37.5255006  17.7285017
  49.3419987  39.4855006  16.9635017  48.4939987  39.5265006  16.2805017
  49.5089987  40.4725006  17.3945017  50.5859987  39.0475006  16.2025017
  51.4379987  39.1395006  16.8755017  50.4699987  38.0055006  15.9045017
  50.8559987  39.8795006  14.9625017  49.9309987  40.3395006  14.2895017
  52.1369987  40.0655006  14.6445017  52.3779987  40.6115006  13.8295017
  52.8609987  39.6605006  15.2205017  50.0819987  38.5045006  19.1635017
  50.9229987  37.6085006  19.1515017  50.0739987  39.4675006  20.0795017
  49.3399987  40.1615006  20.0595017  51.1229987  39.5985006  21.0845017
  52.0829987  39.2985006  20.6635017  51.2259987  41.0575006  21.5505017
  50.2079987  41.4055006  21.7235017  51.7719987  41.0495006  22.4945017
  51.9239987  41.9945006  20.5675017  52.0659987  42.9605006  21.0525017
  52.8959987  41.5635006  20.3255017  51.1499987  42.2095006  19.2705017
  49.9389987  42.4395006  19.2785017  51.8549987  42.1415006  18.1455017
  51.3949987  42.2755006  17.2565017  52.8469987  41.9555006  18.1855017
  50.8999987  38.6895006  22.2875017  51.7369987  38.6375006  23.1775017
  49.7809987  37.9785006  22.3285017  49.1089987  38.0445006  21.5775017
  49.4659987  37.1135006  23.4685017  49.6999987  37.6255006  24.4015017
  47.9729987  36.7625006  23.4635017  47.4039987  37.6915006  23.4785017
  47.7539987  36.2175006  22.5455017  47.6109987  35.9685006  24.5825017
  46.6719987  35.7705006  24.5435017  50.2899987  35.8185006  23.4575017
  50.6399987  35.3185006  22.3855017  50.6049987  35.2735006  24.6525017
  50.6749987  35.9755006  25.9455017  49.7099987  35.9155006  26.4485017
  50.9339987  37.0215006  25.7815017  51.7469987  35.2305006  26.6705017
  51.5739987  35.2925006  27.7445017  52.7189987  35.6635006  26.4335017
  51.6599987  33.8285006  26.1875017  50.9479987  33.2705006  26.7955017
  52.6289987  33.3295006  26.2135017  51.1559987  33.9155006  24.7455017
  51.9559987  33.8415006  24.0095017  50.1289987  32.8065006  24.4955017
  50.4929987  31.6375006  24.4645017  48.8589987  33.1625006  24.3415017
  48.5829987  34.1195006  24.5065017  47.8239987  32.1935006  23.9995017
  48.1999987  31.1785006  24.1285017  46.6159987  32.3885006  24.9195017
  46.1489987  33.3645006  24.7865017  45.8879987  31.6055006  24.7065017
  46.9569987  32.2715006  26.3685017  46.9179987  31.0445006  27.0025017
  46.6149987  30.1625006  26.4375017  47.2569987  30.9275006  28.3355017
  47.2119987  29.9565006  28.8285017  47.6539987  32.0465006  29.0455017
  47.9259987  31.9595006  30.0975017  47.7049987  33.2765006  28.4175017
  48.0139987  34.1625006  28.9725017  47.3629987  33.3815006  27.0845017
  47.4109987  34.3485006  26.5835017  47.4179987  32.3165006  22.5285017
  46.3899987  31.7765006  22.1075017  48.2409987  33.0065006  21.7445017
  49.0839987  33.4135006  22.1235017  47.9259987  33.2505006  20.3465017
  46.9669987  33.7615006  20.2645017  49.0009987  34.1275006  19.7115017
  49.1009987  35.0545006  20.2765017  49.9549987  33.5995006  19.7095017
  48.7229987  34.5185006  18.2895017  49.5069987  34.2585006  17.2025017
  50.4289987  33.7065006  17.3845017  48.9339987  34.7735006  16.0685017
  49.3219987  34.7215006  15.1375017  47.7519987  35.3785006  16.4045017
  46.8199987  36.0425006  15.6015017  47.0149987  36.1165006  14.5315017
  45.7099987  36.5625006  16.2165017  44.9619987  37.0865006  15.6215017
  45.5129987  36.4365006  17.6005017  44.6279987  36.8525006  18.0815017
  46.4419987  35.7765006  18.3995017  46.2409987  35.7005006  19.4685017
  47.5859987  35.2385006  17.7995017  47.7779987  31.9455006  19.5705017
  46.8319987  31.7905006  18.7945017  48.6939987  31.0055006  19.8015017
  49.4509987  31.1925006  20.4435017  48.6859987  29.7215006  19.0895017
  48.0329987  29.7795006  18.2185017  50.1029987  29.3795006  18.6175017
  50.7469987  29.3895006  19.4975017  50.0699987  28.3715006  18.2035017
  50.6569987  30.3395006  17.5725017  49.8169987  30.8215006  17.0725017
  51.2359987  31.0885006  18.1125017  51.5439987  29.6625006  16.5355017
  51.3079987  28.4785006  16.1965017  52.4749987  30.3285006  16.0405017
  48.1189987  28.5465006  19.9015017  48.4589987  27.3945006  19.6355017
  47.2489987  28.8275006  20.8695017  47.0139987  29.7875006  21.0765017
  46.6629987  27.7755006  21.6995017  47.0969987  26.8105006  21.4375017
  46.8809987  28.0455006  23.2015017  46.5349987  29.0525006  23.4335017
  46.1079987  27.0345006  24.0465017  46.4539987  26.0265006  23.8155017
  46.2739987  27.2415006  25.1035017  45.0439987  27.1125006  23.8245017
  48.3739987  27.9805006  23.5285017  48.7199987  26.9875006  23.2425017
  48.8689987  28.7285006  22.9095017  48.7059987  28.2305006  24.9835017
  48.2119987  27.4825006  25.6035017  49.7849987  28.1655006  25.1265017
  48.3609987  29.2235006  25.2695017  45.1739987  27.6205006  21.4095017
  44.3849987  28.5425006  21.6265017  44.8059987  26.4425006  20.9195017
  45.5159987  25.7535006  20.7175017  43.4149987  26.0995006  20.6535017
  42.8369987  27.0025006  20.4555017  43.3309987  25.1875006  19.4305017
  42.2829987  24.9575006  19.2375017  43.7509987  25.7135006  18.5735017
  44.0479987  23.9815006  19.6435017  43.9799987  23.4265006  18.8625017
  42.8199987  25.3835006  21.8565017  43.5509987  24.9485006  22.7455017
  41.4929987  25.2525006  21.8705017  40.9359987  25.7185006  21.1685017
  40.8019987  24.4565006  22.8915017  40.8729987  24.9565006  23.8575017
  39.3229987  24.2885006  22.5345017  38.9159987  25.2835006  22.3575017
  39.2739987  23.7075006  21.6135017  38.5079987  23.5915006  23.6175017
  38.9339987  22.6015006  23.7815017  38.5869987  24.1765006  24.5335017
  37.0459987  23.4545006  23.2295017  36.7099987  24.3875006  22.7775017
  36.9449987  22.6445006  22.5065017  36.1979987  23.1505006  24.4505017
  36.6049987  22.2695006  24.9475017  36.2439987  24.0035006  25.1285017
  34.7839987  22.8955006  24.0715017  34.7409987  22.1055006  23.4445017
  34.2439987  22.6965006  24.9015017  34.4059987  23.7115006  23.6115017
  41.4319987  23.0715006  23.0265017  41.5929987  22.5525006  24.1375017
  41.7719987  22.4865006  21.8795017  41.5519987  22.9585006  21.0145017
  42.3979987  21.1715006  21.8095017  41.7299987  20.4445006  22.2725017
  42.6079987  20.7805006  20.3545017  43.2819987  21.4935006  19.8795017
  43.0429987  19.7825006  20.3055017  41.6499987  20.7855006  19.8345017
  43.7239987  21.1215006  22.5565017  43.9359987  20.2335006  23.3785017
  44.6019987  22.0795006  22.2675017  44.3439987  22.8025006  21.6105017
  45.9669987  22.0895006  22.8155017  46.3929987  21.0875006  22.7685017
  46.8569987  23.0375006  22.0085017  46.3149987  23.9765006  21.8995017
  47.7619987  23.2065006  22.5915017  47.2309987  22.5075006  20.6355017
  47.9829987  21.7295006  20.7635017  46.3449987  22.0815006  20.1635017
  47.7959987  23.5825006  19.7255017  47.2289987  24.6705006  19.6045017
  48.9119987  23.2805006  19.0705017  49.3299987  23.9605006  18.4515017
  49.3369987  22.3725006  19.1945017  46.0509987  22.4675006  24.2955017
  46.9799987  22.0455006  24.9855017  45.0859987  23.2475006  24.7795017
  44.3089987  23.5015006  24.1865017  45.1689987  23.8505006  26.1105017
  45.9689987  24.5915006  26.1255017  43.8489987  24.5445006  26.4855017
  43.7319987  25.3065006  25.7145017  43.0419987  23.8175006  26.4015017
  43.7999987  25.2045006  27.8675017  43.8779987  24.4285006  28.6295017
  44.9399987  26.1965006  28.0365017  44.8629987  26.9725006  27.2755017
  44.8829987  26.6515006  29.0255017  45.8929987  25.6775006  27.9305017
  42.4599987  25.8865006  28.0885017  41.6609987  25.1485006  28.0215017
  42.4449987  26.3485006  29.0755017  42.3109987  26.6515006  27.3265017
  45.5899987  22.8725006  27.2085017  46.5809987  23.1095006  27.8965017
  44.8569987  21.7585006  27.3635017  43.8719987  21.1615006  26.4485017
  44.3829987  20.6075006  25.6615017  43.2579987  21.9435006  26.0015017
  43.0889987  20.2735006  27.3595017  42.6829987  19.4375006  26.7895017
  42.2709987  20.8415006  27.8035017  44.0459987  19.8045006  28.4095017
  44.4759987  18.8505006  28.1035017  43.5649987  19.6905006  29.3805017
  45.1479987  20.8705006  28.4925017  45.0899987  21.4675006  29.4025017
  46.5189987  20.2105006  28.4045017  47.0849987  19.8545006  29.4405017
  47.0309987  20.0555006  27.1785017  46.4589987  20.3075006  26.3855017
  48.3499987  19.4585006  26.9245017  48.5639987  18.6975006  27.6755017
  48.3789987  18.8005006  25.5365017  47.5759987  18.0665006  25.4645017
  48.2439987  19.5625006  24.7695017  49.7209987  18.1065006  25.3315017
  50.5249987  18.8395006  25.4025017  49.8569987  17.3435006  26.0975017
  49.7499987  17.4535006  23.9535017  48.9479987  16.7195006  23.8815017
  49.6139987  18.2155006  23.1865017  51.0919987  16.7605006  23.7485017
  51.8949987  17.4945006  23.8185017  51.2289987  15.9985006  24.5155017
  51.1199987  16.1295006  22.4205017  50.9939987  16.8355006  21.7095017
  52.0089987  15.6705006  22.2845017  50.3759987  15.4495006  22.3555017
  49.5099987  20.4665006  27.0595017  50.6809987  20.0935006  26.9205017
  49.1849987  21.7315006  27.3235017  48.2169987  22.0185006  27.3025017
  50.1999987  22.7375006  27.6345017  51.0909987  22.5515006  27.0355017
  49.6899987  24.1505006  27.3285017  48.8019987  24.0445006  26.7055017
  49.4139987  24.6065006  28.2795017  50.7029987  25.0315006  26.6205017
  50.3369987  26.0575006  26.6515017  51.6399987  24.9635006  27.1735017
  50.9379987  24.6195006  25.1715017  49.9579987  24.3345006  24.4475017
  52.1119987  24.5855006  24.7495017  50.5369987  22.6125006  29.1125017
  49.6739987  22.2635006  29.9185017  51.7869987  22.8915006  29.4625017
  52.4649987  23.1335006  28.7545017  52.2339987  22.8075006  30.8485017
  51.4409987  22.3905006  31.4695017  53.4699987  21.9005006  30.9555017
  53.2159987  20.8985006  30.6105017  54.2719987  22.3045006  30.3375017
  53.9259987  21.8365006  32.3935017  54.1799987  22.8385006  32.7385017
  53.1239987  21.4325006  33.0115017  55.1529987  20.9355006  32.4995017
  56.2819987  21.4805006  32.3675017  54.9509987  19.7095006  32.7115017
  52.5339987  24.2155006  31.3685017  53.6959987  24.6095006  31.4745017
  51.4769987  24.9625006  31.6885017  50.5509987  24.5645006  31.6165017
  51.6009987  26.3735006  32.0855017  52.6269987  26.5865006  32.3865017
  51.2359987  27.2855006  30.9145017  51.3449987  28.2855006  31.3345017
  51.9949987  27.1295006  30.1475017  49.8429987  27.1435006  30.2905017
  49.7019987  26.0935006  30.0325017  48.7249987  27.5925006  31.2185017
  48.8659987  28.6425006  31.4765017  47.7649987  27.4675006  30.7185017
  48.7419987  26.9905006  32.1265017  49.7899987  27.9465006  29.0005017
  50.5419987  27.5705006  28.3065017  48.8009987  27.8495006  28.5515017
  49.9889987  28.9965006  29.2165017  50.7539987  26.7565006  33.2925017
  49.8409987  26.0315006  33.6905017  51.0539987  27.9295006  33.8375017
  51.7629987  28.4995006  33.3995017  50.4179987  28.4285006  35.0485017
  49.3979987  28.0525006  35.1275017  51.2129987  27.9455006  36.2655017
  51.2249987  26.8565006  36.2115017  52.2269987  28.3265006  36.1405017
  50.6709987  28.3805006  37.6225017  50.6849987  29.4705006  37.6505017
  49.6419987  28.0285006  37.7025017  51.4859987  27.8335006  38.7855017
  52.3069987  26.9085006  38.5755017  51.3039987  28.3265006  39.9185017
  50.3799987  29.9575006  35.0145017  51.3979987  30.6035006  34.7735017
  49.2079987  30.5315006  35.2545017  48.4009987  29.9625006  35.4655017
  49.0479987  31.9795006  35.2405017  49.8659987  32.4695006  34.7125017
  47.7149987  32.3745006  34.5945017  46.9199987  31.7645006  35.0245017
  47.4129987  33.8495006  34.8395017  48.2069987  34.4595006  34.4095017
  46.4629987  34.1085006  34.3725017  47.3529987  34.0355006  35.9115017
  47.7539987  32.0475006  33.1015017  48.4879987  32.7095006  32.6425017
  48.0859987  31.0145006  33.0035017  46.4219987  32.2155006  32.4075017
  46.0889987  33.2485006  32.5045017  46.5279987  31.9655006  31.3515017
  45.6869987  31.5535006  32.8655017  49.0549987  32.5055006  36.6575017
  48.1889987  32.1425006  37.4405017  50.0139987  33.3665006  36.9865017
  50.7709987  33.5605006  36.3465017  50.0479987  33.9875006  38.3065017
  49.4049987  33.4365006  38.9925017  51.4609987  34.0445006  38.8975017
  52.1439987  34.4205006  38.1355017  51.5069987  34.9595006  40.1175017
  50.8249987  34.5835006  40.8795017  52.5209987  34.9825006  40.5175017
  51.2089987  35.9675006  39.8285017  51.8929987  32.6395006  39.2785017
  51.8899987  32.0055006  38.3925017  52.8979987  32.6695006  39.7005017
  51.2019987  32.2335006  40.0175017  49.4469987  35.3725006  38.2615017
  49.8509987  36.2175006  37.4675017  48.4979987  35.5895006  39.1615017
  48.3069987  34.8625006  39.8365017  47.6729987  36.7805006  39.1825017
  47.9119987  37.4925006  38.3925017  46.1879987  36.3825006  39.0545017
  46.0839987  35.3545006  39.4005017  45.2749987  37.2835006  39.8645017
  45.3779987  38.3115006  39.5185017  44.2409987  36.9605006  39.7395017
  45.5489987  37.2265006  40.9185017  45.7989987  36.3735006  37.5845017
  46.4179987  35.6545006  37.0485017  44.7499987  36.0925006  37.4875017
  45.9489987  37.3675006  37.1625017  47.9759987  37.5405006  40.4635017
  47.9819987  36.9535006  41.5455017  48.2499987  38.8355006  40.3275017
  48.1319987  39.2835006  39.4305017  48.7409987  39.6365006  41.4405017
  48.5899987  39.1085006  42.3815017  50.2309987  39.9765006  41.2775017
  50.3419987  40.7215006  40.4895017  50.7929987  40.5285006  42.5815017
  50.6819987  39.7835006  43.3695017  51.8489987  40.7645006  42.4515017
  50.2499987  41.4325006  42.8575017  51.0199987  38.7395006  40.8395017
  50.8789987  37.9795006  41.6085017  50.5809987  38.3945006  39.9035017
  52.5009987  38.9875006  40.6415017  52.9399987  39.3325006  41.5775017
  52.9869987  38.0625006  40.3325017  52.6429987  39.7465006  39.8725017
  47.9649987  40.9335006  41.5595017  47.9079987  41.7255006  40.6185017
  47.3799987  41.1425006  42.7315017  47.4459987  40.4395006  43.4535017
  46.6329987  42.3535006  43.0175017  46.5539987  42.9605006  42.1155017
  45.2289987  42.0125006  43.4985017  44.8269987  41.3755006  42.7115017
  45.3109987  41.4395006  44.4225017  44.2969987  43.1995006  43.7175017
  44.8119987  43.9535006  44.3135017  43.8909987  43.8005006  42.3815017
  43.3759987  43.0475006  41.7855017  43.2259987  44.6475006  42.5505017
  44.7799987  44.1385006  41.8495017  43.0719987  42.7775006  44.5155017
  43.3849987  42.3905006  45.4855017  42.4189987  43.6375006  44.6615017
  42.5329987  42.0015006  43.9715017  47.3809987  43.1165006  44.0925017
  47.6269987  42.5855006  45.1765017  47.7439987  44.3575006  43.7775017
  47.4289987  44.7515006  42.9025017  48.5789987  45.1765006  44.6415017
  48.6619987  44.7075006  45.6215017  49.9859987  45.3325006  44.0525017
  49.8529987  45.6945006  43.0335017  50.4839987  46.0985006  44.6475017
  50.8349987  44.0725006  44.0355017  51.0569987  43.8165006  45.0715017
  50.2519987  43.2715006  43.5805017  52.1369987  44.2505006  43.2675017
  52.1439987  44.8805006  42.1895017  53.1689987  43.7465006  43.7355017
  47.9779987  46.5605006  44.8075017  47.8369987  47.3165006  43.8425017
  47.6379987  46.8985006  46.0405017  47.6589987  46.2185006  46.7875017
  47.2259987  48.2535006  46.3555017  47.8529987  48.9565006  45.8075017
  46.1849987  48.3905006  46.0625017  47.3589987  48.5245006  47.8315017
  47.8339987  47.6765006  48.5805017  46.9219987  49.7065006  48.2455017
  46.4859987  50.3425006  47.5925017  47.0939987  50.1405006  49.6155017
  47.8669987  49.5475006  50.1035017  47.5109987  51.5955006  49.6435017
  46.7909987  52.1665006  49.0575017  47.4879987  51.9355006  50.6785017
  48.8959987  51.8005006  49.0775017  49.6279987  51.5625006  49.8495017
  49.0299987  51.1275006  48.2305017  49.1419987  53.4895006  48.5335017
  50.4309987  53.2125006  47.3155017  50.0609987  52.5405006  46.5415017
  50.7159987  54.1635006  46.8645017  51.2989987  52.7655006  47.7995017
  45.8289987  49.9515006  50.4255017  44.7509987  50.3425006  50.0105017
  45.9889987  49.3345006  51.5865017  46.8829987  48.9145006  51.7955017
  44.9359987  49.2345006  52.5755017  44.0369987  48.7315006  52.2175017
  45.4579987  48.4855006  53.8195017  46.3049987  49.0355006  54.2305017
  44.3649987  48.3655006  54.8805017  43.5179987  47.8155006  54.4695017
  44.7569987  47.8335006  55.7475017  44.0389987  49.3615006  55.1815017
  46.0259987  47.1185006  53.4205017  46.8479987  47.2565006  52.7185017
  46.3899987  46.6025006  54.3085017  45.2439987  46.5225006  52.9495017
  44.5179987  50.6565006  52.9505017  45.3609987  51.4885006  53.2645017
  43.2279987  50.9555006  52.9105017  42.5209987  50.2605006  52.7195017
  42.8139987  52.3515006  53.0215017  43.3019987  52.9335006  52.2405017
  41.2939987  52.5055006  52.8705017  40.9649987  51.7765006  52.1295017
  40.8449987  52.2695006  53.8355017  40.8609987  53.9025006  52.4365017
  41.2299987  54.6005006  53.1885017  41.3449987  54.1085006  51.4815017
  39.3519987  54.0675006  52.2875017  38.6089987  53.0805006  52.4975017
  38.9029987  55.1945006  51.9555017  43.3039987  53.0175006  54.3165017
  43.7179987  54.1745006  54.2855017  43.2859987  52.2895006  55.4355017
  43.0379987  51.3115006  55.3925017  43.5329987  52.8935006  56.7635017
  43.1019987  53.8935006  56.7275017  42.8309987  52.1005006  57.8535017
  43.2579987  51.0995006  57.9075017  42.9629987  52.6035006  58.8115017
  41.7679987  52.0295006  57.6245017  45.0109987  53.0385006  57.1015017
  45.4479987  54.0905006  57.5495017  45.7679987  51.9645006  56.9355017
  45.3439987  51.0625006  56.7695017  47.2179987  52.0445006  56.9925017
  47.5189987  52.8585006  57.6525017  47.8679987  50.7285006  57.4995017
  48.9259987  50.9075006  57.6915017  47.1929987  50.2575006  58.7795017
  46.1349987  50.0785006  58.5885017  47.6619987  49.3345006  59.1195017
  47.2979987  51.0225006  59.5485017  47.7799987  49.6875006  56.5115017
  48.1889987  48.8885006  56.8515017  47.6359987  52.3375006  55.5675017
  47.1649987  51.6845006  54.6465017  48.5169987  53.3045006  55.3595017
  48.9009987  53.8425006  56.1235017  48.9589987  53.6175006  53.9985017
  48.0779987  53.9055006  53.4255017  49.6429987  54.4635006  54.0625017
  49.6589987  52.4675006  53.2865017  50.0479987  52.6135006  52.1275017
  49.7729987  51.3225006  53.9715017  49.2379987  51.2355006  54.8235017
  50.6519987  50.2165006  53.5885017  51.6219987  50.5995006  53.2705017
  50.8629987  49.2845006  54.7875017  49.8809987  48.9115006  55.0775017
  51.4789987  48.4545006  54.4405017  51.5289987  49.9435006  55.9875017
  52.5289987  50.2575006  55.6865017  50.9399987  50.8195006  56.2595017
  51.6559987  48.8455006  57.4185017  52.8959987  49.6885006  58.4045017
  52.5419987  50.6875006  58.6575017  53.0779987  49.1255006  59.3195017
  53.8229987  49.7655006  57.8355017  50.1259987  49.4005006  52.4145017
  48.9319987  49.1505006  52.3185017  51.0449987  48.9665006  51.5495017
  52.0209987  49.1195006  51.7615017  50.7059987  48.2765006  50.3055017
  49.7589987  48.6535006  49.9195017  51.7879987  48.4705006  49.2275017
  52.7229987  48.0385006  49.5845017  51.3779987  47.7895006  47.9195017
  50.4439987  48.2215006  47.5615017  52.1569987  47.9395006  47.1715017
  51.2409987  46.7225006  48.0925017  51.9939987  49.8705006  48.9915017
  52.6689987  49.9855006  48.3185017  50.5569987  46.7865006  50.5275017
  51.4099987  46.1605006  51.1525017  49.4759987  46.2305006  49.9815017
  48.8509987  46.8225006  49.4525017  49.1469987  44.8095006  50.1065017
  49.7899987  44.3445006  50.8545017  47.6919987  44.6375006  50.5385017
  47.5749987  44.8685006  51.5975017  47.0379987  45.2825006  49.9515017
  47.0659987  42.9565006  50.3205017  45.8429987  43.2025006  50.7815017
  49.3469987  44.1175006  48.7745017  49.2019987  44.7375006  47.7205017
  49.6769987  42.8345006  48.8215017  49.8409987  42.3865006  49.7115017
  49.8449987  42.0445006  47.6105017  49.4619987  42.6005006  46.7545017
  51.3289987  41.7275006  47.3665017  51.8369987  42.6785006  47.2095017
  51.7089987  41.2595006  48.2745017  51.5869987  40.8115006  46.1765017
  51.1709987  39.8275006  46.3915017  51.0769987  41.2405006  45.3135017
  53.0599987  40.6525006  45.8405017  53.6599987  39.5965006  46.0655017
  53.6469987  41.6965006  45.2835017  54.6259987  41.6505006  45.0375017
  53.1149987  42.5365006  45.1065017  49.0439987  40.7665006  47.7625017
  49.4209987  39.8925006  48.5445017  47.9369987  40.6655006  47.0335017
  47.5879987  41.4625006  46.5205017  47.1649987  39.4265006  46.9965017
  47.4499987  38.7925006  47.8355017  45.6769987  39.7115006  47.0865017
  45.3749987  40.3385006  46.2475017  45.1239987  38.7725006  47.0555017
  45.4609987  40.2285006  48.0215017  47.4909987  38.6605006  45.7195017
  47.5699987  39.2505006  44.6395017  47.6849987  37.3495006  45.8615017
  47.5069987  36.9185006  46.7575017  48.1309987  36.5025006  44.7655017
  48.1309987  37.0695006  43.8345017  49.5439987  35.9995006  45.0285017
  49.5259987  35.5085006  46.0015017  49.7639987  35.2635006  44.2545017
  50.6149987  37.0715006  45.0245017  50.7009987  37.4845006  44.0195017
  50.3299987  37.8625006  45.7185017  51.9519987  36.4845006  45.4475017
  52.2349987  35.6945006  44.7525017  52.7099987  37.2675006  45.4345017
  51.8839987  35.9215006  46.7935017  51.6659987  34.9375006  46.8555017
  52.0849987  36.6005006  47.9225017  52.3829987  37.8945006  47.9075017
  52.4609987  38.3815006  47.0265017  52.5309987  38.3855006  48.7775017
  51.9869987  35.9775006  49.0885017  51.7609987  34.9935006  49.1145017
  52.1389987  36.4895006  49.9455017  47.2379987  35.2915006  44.6095017
  46.6039987  34.8515006  45.5605017  47.2029987  34.7505006  43.3985017
  47.5939987  35.2595006  42.6185017  46.5809987  33.4545006  43.1375017
  46.8579987  32.7585006  43.9295017  45.0559987  33.5575006  43.0885017
  44.6989987  33.9155006  44.0545017  44.7789987  34.2705006  42.3125017
  44.4679987  32.2965006  42.8045017  43.5129987  32.3875006  42.7795017
  47.1089987  32.9065006  41.8215017  47.8469987  33.5795006  41.0985017
  46.7219987  31.6815006  41.5145017  46.0619987  31.1925006  42.1015017
  47.2589987  30.9925006  40.3685017  47.6999987  31.7025006  39.6695017
  48.3439987  30.0235006  40.8285017  49.2569987  30.5925006  41.0055017
  48.0169987  29.5625006  41.7605017  48.5949987  29.0155006  39.8675017
  49.2809987  28.4275006  40.1925017  46.1529987  30.2595006  39.6335017
  45.1569987  29.8575006  40.2295017  46.3289987  30.1145006  38.3295017
  47.0999987  30.5815006  37.8745017  45.4469987  29.2985006  37.5215017
  44.7559987  28.7565006  38.1665017  44.6389987  30.1635006  36.5595017
  45.3409987  30.7145006  35.9335017  44.0439987  29.4955006  35.9365017
  43.7289987  31.1335006  37.2665017  42.5709987  30.6955006  37.8895017
  42.3229987  29.6345006  37.8535017  41.7359987  31.5785006  38.5485017
  40.8309987  31.2195006  39.0385017  42.0539987  32.9155006  38.5865017
  41.2259987  33.7885006  39.2405017  40.4609987  33.3595006  39.6305017
  43.1939987  33.3745006  37.9695017  43.4419987  34.4355006  37.9935017
  44.0269987  32.4835006  37.3165017  44.9349987  32.8415006  36.8305017
  46.3269987  28.3465006  36.7515017  47.0839987  28.7795006  35.8845017
  46.2639987  27.0615006  37.0985017  45.7819987  26.7765006  37.9385017
  46.9689987  26.0425006  36.3245017  47.8439987  26.4895006  35.8535017
  47.4019987  24.8105006  37.1505017  47.7439987  24.0265006  36.4745017
  48.5289987  25.1915006  38.0965017  48.1869987  25.9755006  38.7725017
  48.8289987  24.3185006  38.6755017  49.3799987  25.5545006  37.5205017
  46.2359987  24.2085006  37.9365017  46.0809987  24.8285006  38.8195017
  45.3519987  24.2565006  37.3005017  46.4739987  22.7755006  38.3615017
  47.3569987  22.7265006  38.9985017  45.6079987  22.4115006  38.9145017
  46.6279987  22.1555006  37.4785017  46.0939987  25.6285006  35.1555017
  44.8859987  25.8855006  35.1505017  46.7229987  24.9945006  34.1705017
  47.7009987  24.7735006  34.2885017  46.1019987  24.7275006  32.8685017
  45.8669987  25.6515006  32.3395017  47.0439987  23.8775006  31.9835017
  47.9749987  24.4275006  31.8465017  47.3439987  22.5155006  32.6205017
  46.4129987  21.9655006  32.7575017  48.0089987  21.9475006  31.9695017
  47.8239987  22.6645006  33.5875017  46.4549987  23.6945006  30.6925017
  47.0409987  23.1665006  30.1455017  44.6919987  24.1035006  32.9495017
  43.8209987  24.4215006  32.1315017  44.4729987  23.2495006  33.9525017
  45.2359987  23.0325006  34.5775017  43.1859987  22.5695006  34.1605017
  42.7829987  22.2225006  33.2085017  43.3909987  21.3595006  35.0745017
  42.4669987  20.7815006  35.1015017  44.1919987  20.7445006  34.6645017
  43.7329987  21.7655006  36.3895017  43.8559987  20.9905006  36.9415017
  42.0739987  23.4465006  34.7575017  40.9089987  23.0435006  34.7695017
  42.4329987  24.6245006  35.2615017  43.4069987  24.8925006  35.2395017
  41.4769987  25.5335006  35.8955017  40.5749987  24.9925006  36.1825017
  42.1049987  26.1425006  37.1545017  43.0369987  26.6225006  36.8545017
  41.4139987  26.8965006  37.5315017  42.3899987  25.1175006  38.2535017
  41.4399987  24.9515006  38.7615017  42.7129987  24.1915006  37.7775017
  43.4389987  25.5595006  39.2685017  44.2489987  26.4645006  38.9695017
  43.4689987  24.9735006  40.3735017  41.0409987  26.6345006  34.9295017
  40.3039987  27.5375006  35.3025017  41.4999987  26.5425006  33.6865017
  42.1179987  25.7775006  33.4585017  41.1839987  27.5085006  32.6435017
  40.7929987  28.4395006  33.0535017  42.4429987  27.8075006  31.7985017
  42.7539987  26.8885006  31.3015017  42.1659987  28.8815006  30.7525017
  41.8549987  29.8015006  31.2485017  43.0709987  29.0685006  30.1745017
  41.3729987  28.5435006  30.0855017  43.6049987  28.2175006  32.7165017
  43.2589987  29.0635006  33.3095017  43.8049987  27.3715006  33.3735017
  44.8739987  28.5995006  31.9865017  44.6749987  29.4455006  31.3295017
  45.6409987  28.8745006  32.7105017  45.2209987  27.7535006  31.3935017
  40.0579987  26.9405006  31.7625017  40.3119987  26.1645006  30.8355017
  38.8179987  27.3295006  32.0505017  38.6559987  28.0025006  32.7855017
  37.6559987  26.7655006  31.3555017  37.8039987  25.6975006  31.1955017
  36.3849987  26.9645006  32.1865017  36.1919987  28.0335006  32.1015017
  35.5869987  26.4115006  31.6925017  36.4379987  26.5725006  33.6605017
  36.9879987  27.3345006  34.2125017  35.0299987  26.4545006  34.2245017
  34.4799987  25.6925006  33.6725017  35.0819987  26.1745006  35.2765017
  34.5179987  27.4125006  34.1285017  37.1909987  25.2685006  33.8565017
  38.2119987  25.3795006  33.4905017  37.2119987  25.0165006  34.9165017
  36.6909987  24.4735006  33.3035017  37.4539987  27.3805006  29.9695017
  37.1399987  28.5655006  29.8515017  37.6179987  26.5815006  28.9185017
  37.8979987  25.6175006  29.0305017  37.4139987  27.0895006  27.5665017
  37.7509987  28.1245006  27.5135017  38.1919987  26.2725006  26.5475017
  39.2389987  26.2255006  26.8465017  37.7929987  25.2615006  26.4625017
  38.1649987  26.8635006  25.1645017  37.0769987  26.9875006  24.3355017
  36.1209987  26.6295006  24.7185017  37.4529987  27.5645006  23.1465017
  36.8399987  27.7645006  22.3695017  38.7989987  27.8205006  23.1845017
  39.6299987  28.3895006  22.2225017  39.1949987  28.7015006  21.2735017
  40.9549987  28.5205006  22.5365017  41.6359987  28.9615006  21.8085017
  41.4639987  28.1005006  23.7775017  42.5219987  28.2105006  24.0155017
  40.6409987  27.5375006  24.7305017  41.0829987  27.2295006  25.6785017
  39.2809987  27.3885006  24.4405017  35.9429987  27.0485006  27.2035017
  35.3049987  26.0075006  27.3175017  35.4229987  28.1775006  26.7365017
  35.9949987  29.0095006  26.7055017  34.0449987  28.2675006  26.2615017
  33.9869987  29.0745006  25.5305017  33.7859987  27.3235006  25.7815017
  33.0569987  28.5405006  27.3765017  31.9399987  28.0285006  27.3525017
  33.4659987  29.3735006  28.3355017  34.3729987  29.8075006  28.2455017
  32.6749987  29.6635006  29.5265017  31.6569987  29.2935006  29.4055017
  33.3049987  28.9715006  30.7305017  34.3869987  29.0645006  30.6335017
  32.9719987  29.5105006  31.6175017  32.9359987  27.5155006  30.8605017
  33.5439987  26.5535006  30.0685017  34.2929987  26.8645006  29.3405017
  33.2119987  25.2135006  30.1925017  33.6989987  24.4665006  29.5655017
  32.2569987  24.8245006  31.1195017  31.9139987  23.4965006  31.2525017
  32.3969987  22.9225006  30.6535017  31.6389987  25.7665006  31.9175017
  30.8869987  25.4655006  32.6475017  31.9799987  27.1005006  31.7855017
  31.4979987  27.8505006  32.4125017  32.5589987  31.1555006  29.8205017
  33.3809987  31.9525006  29.3805017  31.5289987  31.5095006  30.5855017
  30.8929987  30.7875006  30.8925017  31.2799987  32.8855006  31.0205017
  32.1479987  33.5065006  30.7995017  30.0689987  33.4625006  30.2915017
  29.4009987  32.6225006  30.0995017  29.5939987  34.1515006  30.9895017
  30.3619987  34.1845006  28.9875017  31.1089987  34.9605006  29.1545017
  30.7349987  33.4755006  28.2485017  29.0779987  34.8185006  28.4775017
  28.2369987  34.2145006  28.8185017  28.9989987  35.8215006  28.8975017
  29.0249987  34.9155006  27.0245017  29.8959987  34.7975006  26.5265017
  27.9169987  35.1475006  26.3225017  26.7439987  35.3145006  26.9245017
  26.6849987  35.2655006  27.9315017  25.9169987  35.4895006  26.3725017
  27.9809987  35.2125006  24.9995017  28.8679987  35.0855006  24.5335017
  27.1429987  35.3885006  24.4645017  30.9859987  32.9425006  32.5145017
  30.3389987  32.0415006  33.0585017  31.4269987  34.0175006  33.1645017
  32.0119987  34.6935006  32.6935017  31.1309987  34.2245006  34.5775017
  31.3219987  33.3025006  35.1265017  32.0009987  35.3375006  35.1715017
  32.1139987  36.1415006  34.4445017  31.5479987  35.7315006  36.0815017
  33.3849987  34.8945006  35.5385017  33.6039987  34.1595006  36.6935017
  32.7569987  33.9055006  37.3305017  34.8829987  33.7475006  37.0425017
  35.0379987  33.1665006  37.9515017  35.9579987  34.0735006  36.2395017
  36.9639987  33.7545006  36.5105017  35.7529987  34.8095006  35.0855017
  36.5989987  35.0675006  34.4485017  34.4729987  35.2185006  34.7395017
  34.3139987  35.8005006  33.8315017  29.6549987  34.5565006  34.7765017
  29.0599987  35.3005006  33.9965017  29.0739987  33.9935006  35.8295017
  29.6059987  33.3635006  36.4125017  27.6859987  34.2555006  36.1835017
  27.0629987  34.2845006  35.2895017  27.1459987  33.1655006  37.1225017
  27.5449987  33.3335006  38.1225017  25.6249987  33.1985006  37.1715017
  25.2249987  33.0295006  36.1715017  25.2659987  32.4185006  37.8425017
  25.2939987  34.1705006  37.5355017  27.5839987  31.8795006  36.6675017
  27.2459987  31.1995006  37.2555017  27.5739987  35.6035006  36.8965017
  28.3309987  35.8695006  37.8235017  26.6289987  36.4595006  36.4685017
  25.7989987  36.3195006  35.2545017  25.1319987  35.4665006  35.3775017
  26.4509987  36.1495006  34.3975017  25.0559987  37.6255006  35.1605017
  24.0269987  37.4245006  34.8605017  25.5369987  38.2515006  34.4085017
  25.1159987  38.2655006  36.5015017  24.2569987  37.9655006  37.1025017
  25.1479987  39.3525006  36.4315017  26.4089987  37.7435006  37.1425017
  27.2739987  38.3705006  36.9255017  26.2249987  37.6355006  38.6585017
  25.7489987  36.6155006  39.1625017  26.6119987  38.6995006  39.3585017
  27.0119987  39.4815006  38.8595017  26.5119987  38.7855006  40.8215017
  25.9309987  37.9605006  41.2335017  27.9089987  38.7855006  41.4845017
  27.7889987  38.9325006  42.5575017  28.6279987  37.4695006  41.2305017
  28.7489987  37.3225006  40.1575017  29.6079987  37.4925006  41.7065017
  28.0429987  36.6495006  41.6455017  28.7539987  39.9495006  40.9855017
  28.2559987  40.8895006  41.2235017  29.7309987  39.9235006  41.4685017
  28.8809987  39.8705006  39.9055017  25.7749987  40.0405006  41.2985017
  25.3029987  40.0825006  42.4365017  25.6879987  41.0515006  40.4305017
  26.0379987  40.9225006  39.4925017  25.1369987  42.3615006  40.7935017
  25.3039987  42.5445006  41.8545017  25.8049987  43.4835006  39.9915017
  26.3169987  42.9615006  39.1825017  25.0159987  44.1105006  39.5765017
  26.8019987  44.3545006  40.7445017  27.6359987  43.7435006  41.0895017
  27.3189987  45.4365006  39.8115017  26.4849987  46.0475006  39.4665017
  28.0339987  46.0645006  40.3435017  27.8089987  44.9745006  38.9545017
  26.1659987  44.9665006  41.9845017  25.8259987  44.1725006  42.6485017
  26.8999987  45.5835006  42.5035017  25.3159987  45.5825006  41.6915017
  23.6369987  42.4575006  40.5785017  23.1229987  42.0605006  39.5335017
  22.9479987  42.9995006  41.5755017  23.4269987  43.2495006  42.4285017
  21.5209987  43.2585006  41.4845017  21.2179987  43.3135006  40.4395017
  20.6779987  42.1765006  42.1855017  19.6879987  42.1615006  41.7295017
  21.3199987  40.7915006  42.0565017  22.3099987  40.8055006  42.5125017
  20.6979987  40.0535006  42.5625017  21.4099987  40.5285006  41.0025017
  20.5239987  42.5065006  43.5705017  19.9979987  41.8305006  44.0045017
  21.2369987  44.5875006  42.1535017  21.9929987  45.0325006  43.0175017
  20.1309987  45.2035006  41.7645017  19.5379987  44.7735006  41.0685017
  19.7579987  46.5095006  42.2745017  20.6329987  47.0295006  42.6645017
  19.1609987  47.3405006  41.1415017  19.9109987  47.2305006  40.3585017
  18.2409987  46.8435006  40.8345017  18.8839987  48.8225006  41.3755017
  17.9599987  48.9105006  41.9465017  20.0129987  49.4995006  42.1335017
  20.9379987  49.4125006  41.5635017  19.7739987  50.5535006  42.2775017
  20.1389987  49.0195006  43.1045017  18.6439987  49.4945006  40.0285017
  17.7879987  49.0315006  39.5385017  18.4449987  50.5555006  40.1815017
  19.5279987  49.3785006  39.4015017  18.7679987  46.3565006  43.4195017
  17.8739987  45.5225006  43.3735017  18.9629987  47.1425006  44.4655017
  19.7809987  47.7355006  44.4845017  18.0519987  47.1905006  45.5955017
  17.1269987  46.6665006  45.3535017  18.6959987  46.5125006  46.8135017
  19.3999987  45.7785006  46.4215017  19.2419987  47.2905006  47.3475017
  17.7259987  45.8265006  47.7685017  18.2489987  45.6635006  48.7115017
  16.8939987  46.5115006  47.9285017  17.1959987  44.4985006  47.2465017
  17.9339987  43.7935006  46.5215017  16.0359987  44.1575006  47.5705017
  17.7989987  48.6735006  45.8545017  18.4659987  49.5205006  45.2575017
  16.8539987  48.9995006  46.7325017  16.3029987  48.2835006  47.1825017
  16.5419987  50.4025006  47.0235017  16.2229987  50.9015006  46.1085017
  15.4179987  50.5165006  48.0605017  14.6329987  49.8205006  47.7645017
  15.8139987  50.2235006  49.0325017  14.8409987  51.9235006  48.1505017
  15.5009987  52.8135006  48.7235017  13.7149987  52.1375006  47.6585017
  17.7809987  51.1525006  47.5105017  18.2789987  50.9045006  48.6045017
  18.2909987  52.0465006  46.6675017  17.9029987  52.1305006  45.7385017
  19.3999987  52.9205006  47.0355017  19.3779987  53.7435006  46.3215017
  19.1619987  53.2975006  48.0305017  20.7979987  52.3185006  47.0545017
  21.7629987  53.0605006  47.2375017  20.9239987  50.9995006  46.8585017
  20.0989987  50.4435006  46.6825017  22.2259987  50.3105006  46.9445017
  23.0309987  51.0045006  46.7015017  22.4509987  49.7765006  48.3695017
  21.5039987  49.4725006  48.8155017  23.1289987  48.9235006  48.3415017
  23.0669987  50.7885006  49.3105017  24.4539987  50.9355006  49.3895017
  25.0889987  50.3075006  48.7645017  25.0279987  51.8675006  50.2515017
  26.1119987  51.9645006  50.3025017  24.2219987  52.6705006  51.0435017
  24.6679987  53.4025006  51.7165017  22.8419987  52.5395006  50.9765017
  22.2049987  53.1695006  51.5975017  22.2699987  51.6035006  50.1155017
  21.1859987  51.5005006  50.0645017  22.3449987  49.1645006  45.9435017
  21.3859987  48.4455006  45.7205017  23.5199987  49.0005006  45.3405017
  24.2509987  49.6845006  45.4725017  23.7979987  47.8385006  44.4785017
  22.8939987  47.5685006  43.9325017  24.9109987  48.1485006  43.4645017
  25.6599987  48.7115006  44.0205017  25.3359987  47.1965006  43.1445017
  24.4839987  48.9395006  42.2545017  23.9029987  48.3145006  41.1655017
  23.7549987  47.2345006  41.1955017  23.5119987  49.0345006  40.0525017
  23.0469987  48.5265006  39.2075017  23.7119987  50.3945006  40.0125017
  23.3229987  51.1095006  38.9055017  22.9249987  50.5605006  38.2255017
  24.2989987  51.0355006  41.0785017  24.4599987  52.1135006  41.0515017
  24.6859987  50.3065006  42.1885017  25.1599987  50.8085006  43.0325017
  24.2489987  46.6475006  45.3295017  25.2779987  46.7355006  45.9915017
  23.5179987  45.5345006  45.3055017  22.6689987  45.4755006  44.7625017
  23.8879987  44.3865006  46.1485017  24.6179987  44.7075006  46.8915017
  22.6769987  43.8065006  46.8745017  22.1189987  44.6325006  47.3165017
  22.0519987  43.2985006  46.1395017  23.0769987  42.8225006  47.9665017
  23.7559987  42.0985006  47.5155017  23.6029987  43.3785006  48.7425017
  21.8989987  42.0955006  48.5775017  20.8419987  42.7305006  48.7995017
  22.0469987  40.8825006  48.8405017  24.5979987  43.2605006  45.3995017
  24.1039987  42.7715006  44.3835017  25.7319987  42.8265006  45.9515017
  26.0559987  43.2695006  46.7995017  26.5429987  41.7555006  45.3755017
  26.3519987  41.6275006  44.3105017  28.0449987  42.0415006  45.5755017
  28.2549987  42.0895006  46.6445017  28.8919987  40.9485006  44.9415017
  28.6829987  40.9005006  43.8725017  29.9479987  41.1715006  45.0955017
  28.6529987  39.9895006  45.4015017  28.4059987  43.4005006  44.9965017
  27.8269987  44.1755006  45.4985017  29.4689987  43.5885006  45.1455017
  28.1809987  43.4135006  43.9305017  26.1929987  40.4145006  46.0225017
  25.9809987  40.3415006  47.2315017  26.1439987  39.3585006  45.2095017
  26.3409987  39.4885006  44.2275017  25.7739987  38.0155006  45.6735017
  25.4799987  38.0495006  46.7225017  24.5899987  37.4835006  44.8485017
  23.7719987  38.1995006  44.9335017  24.9159987  37.4265006  43.8105017
  24.1129987  36.1115006  45.3065017  24.5879987  35.6205006  46.3545017
  23.2499987  35.5305006  44.6095017  26.9629987  37.0695006  45.5635017
  27.1149987  36.3715006  44.5645017  27.7889987  37.0305006  46.6065017
  27.6079987  37.6135006  47.4105017  29.0519987  36.2825006  46.5585017
  29.5859987  36.5305006  45.6415017  29.9499987  36.6285006  47.7605017
  29.3659987  36.6385006  48.6805017  30.7009987  35.8405006  47.8165017
  30.6329987  37.9625006  47.5835017  31.8769987  38.0545006  46.9665017
  32.3699987  37.1415006  46.6315017  32.4899987  39.2835006  46.7755017
  33.4699987  39.3425006  46.3015017  31.8529987  40.4405006  47.1965017
  32.4389987  41.6715006  47.0145017  33.2949987  41.6195006  46.5835017
  30.6169987  40.3695006  47.7995017  30.1139987  41.2775006  48.1315017
  30.0129987  39.1365006  47.9835017  29.0299987  39.0755006  48.4515017
  28.8809987  34.7675006  46.3985017  29.8299987  34.0815006  46.0195017
  27.6799987  34.2505006  46.6575017  26.9669987  34.8135006  47.0995017
  27.3579987  32.8615006  46.3205017  27.9479987  32.1925006  46.9465017
  25.8729987  32.5595006  46.5455017  25.2959987  33.3455006  46.0585017
  25.6279987  31.5975006  46.0945017  25.4919987  32.5175006  48.0145017
  26.1869987  31.9155006  48.8315017  24.3689987  33.1435006  48.3545017
  24.0679987  33.1465006  49.3185017  23.8219987  33.6125006  47.6465017
  27.6789987  32.5645006  44.8655017  28.1519987  31.4805006  44.5475017
  27.4099987  33.5365006  43.9935017  27.0409987  34.4085006  44.3445017
  27.5889987  33.3895006  42.5455017  27.4989987  32.3415006  42.2585017
  26.5099987  34.1925006  41.8105017  26.7079987  35.2545006  41.9545017
  26.5629987  33.9545006  40.7485017  25.2179987  33.8835006  42.2995017
  24.5639987  34.3995006  41.8225017  28.9609987  33.8455006  42.0455017
  29.2189987  33.8135006  40.8435017  29.8379987  34.2495006  42.9615017
  29.6189987  34.1475006  43.9425017  31.0869987  34.9175006  42.5965017
  30.8709987  35.7895006  41.9795017  31.8429987  35.3805006  43.8545017
  31.2769987  36.1595006  44.3665017  31.9909987  34.5375006  44.5285017
  33.2059987  35.9525006  43.5745017  34.3289987  35.1435006  43.6345017
  34.2099987  34.0915006  43.8935017  35.5829987  35.6505006  43.3725017
  36.4569987  35.0005006  43.4225017  35.7319987  36.9845006  43.0465017
  36.7219987  37.3905006  42.8375017  34.6189987  37.8075006  42.9855017
  34.7309987  38.8615006  42.7295017  33.3629987  37.2895006  43.2505017
  32.4859987  37.9355006  43.2055017  31.9779987  34.0325006  41.7355017
  32.5259987  34.4935006  40.7375017  32.0999987  32.7675006  42.1255017
  31.5879987  32.4515006  42.9365017  32.9749987  31.8145006  41.4435017
  33.8299987  32.3305006  41.0075017  33.4869987  30.7855006  42.4485017
  32.6529987  30.2555006  42.9085017  34.1389987  30.0705006  41.9465017
  34.2829987  31.3795006  43.5645017  35.5959987  31.7675006  43.4135017
  36.0449987  32.2535006  44.5555017  37.0689987  32.6185006  44.6405017
  35.0699987  32.1925006  45.4445017  35.1229987  32.4945006  46.4065017
  33.9559987  31.6465006  44.8495017  33.0409987  31.5105006  45.4265017
  32.2989987  31.0665006  40.2885017  32.9679987  30.3795006  39.5115017
  30.9829987  31.2075006  40.1755017  30.5099987  31.9035006  40.7345017
  30.1839987  30.3675006  39.2985017  30.5039987  29.3285006  39.3725017
  28.7169987  30.4565006  39.7135017  28.6929987  30.5165006  40.8015017
  28.3179987  31.3785006  39.2905017  27.8729987  29.2825006  39.2535017
  28.0049987  29.1755006  38.1765017  28.2479987  28.3905006  39.7555017
  26.3969987  29.4565006  39.5675017  26.0299987  30.4285006  40.2645017
  25.5959987  28.6135006  39.1075017  30.3349987  30.7765006  37.8395017
  30.3229987  31.9665006  37.5285017  30.4829987  29.7875006  36.9535017
  30.5749987  28.8375006  37.2835017  30.4989987  30.0265006  35.5025017
  30.2219987  31.0595006  35.2935017  31.8679987  29.7465006  34.8635017
  31.7829987  29.8805006  33.7855017  32.9309987  30.6845006  35.4075017
  33.0169987  30.5505006  36.4855017  33.8879987  30.4615006  34.9365017
  32.6509987  31.7155006  35.1915017  32.2439987  28.3875006  35.1125017
  33.0989987  28.2135006  34.7125017  29.5149987  29.1325006  34.7775017
  29.0839987  28.1075006  35.3085017  29.1869987  29.5325006  33.5525017
  29.5319987  30.4215006  33.2205017  28.3179987  28.7575006  32.6755017
  28.2619987  27.7285006  33.0315017  26.9059987  29.3435006  32.6525017
  26.3089987  28.6445006  32.0665017  26.5399987  29.3605006  33.6795017
  26.7919987  30.7295006  32.0535017  26.8719987  31.8625006  32.8545017
  27.0289987  31.7405006  33.9265017  26.7549987  33.1335006  32.3115017
  26.8229987  34.0135006  32.9505017  26.5499987  33.2805006  30.9515017
  26.4319987  34.5335006  30.3965017  26.5069987  35.2385006  31.0435017
  26.4639987  32.1695006  30.1435017  26.3059987  32.2845006  29.0715017
  26.5779987  30.9045006  30.6945017  26.4999987  30.0235006  30.0575017
  28.8869987  28.7315006  31.2705017  29.6529987  29.6135006  30.8935017
  28.4849987  27.7295006  30.4965017  27.8019987  27.0765006  30.8525017
  29.0369987  27.4965006  29.1645017  30.0849987  27.7925006  29.1285017
  28.9379987  26.0035006  28.8355017  29.1689987  25.4625006  29.7525017
  27.9029987  25.8105006  28.5515017  29.8629987  25.5355006  27.7245017
  29.5649987  26.0385006  26.8045017  30.8759987  25.8375006  27.9915017
  29.8219987  24.0305006  27.5155017  28.7179987  23.4445006  27.5755017
  30.8989987  23.4355006  27.2855017  28.3309987  28.3325006  28.0785017
  27.1109987  28.5495006  28.1385017  29.1079987  28.8095006  27.1035017
  30.1119987  28.7595006  27.2015017  28.5559987  29.4295006  25.8905017
  27.4929987  29.2065006  25.8045017  28.7439987  30.9615006  25.8405017
  28.6089987  31.2995006  24.8125017  27.7369987  31.6575006  26.7375017
  27.8709987  31.3205006  27.7655017  27.8879987  32.7355006  26.6865017
  26.7269987  31.4165006  26.4055017  30.0809987  31.3045006  26.2265017
  30.1889987  32.2575006  26.1925017  29.1799987  28.8785006  24.6205017
  30.2599987  28.2795006  24.6395017  28.4689987  29.1025006  23.5185017
  27.5409987  29.4895006  23.6135017  28.9529987  28.7955006  22.1865017
  29.1149987  27.7225006  22.0805017  27.9149987  29.2385006  21.1505017
  26.9719987  28.7375006  21.3715017  27.7819987  30.3165006  21.2355017
  28.3229987  28.9165006  19.8355017  27.6529987  29.2065006  19.2125017
  30.2799987  29.5205006  21.9665017  30.3509987  30.7435006  22.0775017
  31.3329987  28.7575006  21.6885017  31.2159987  27.7615006  21.5705017
  32.6749987  29.3165006  21.5635017  32.6259987  30.3165006  21.1315017
  33.3639987  29.4065006  22.9355017  33.5109987  28.3975006  23.3205017
  34.7109987  30.1085006  22.8255017  34.5649987  31.1185006  22.4415017
  35.1769987  30.1585006  23.8095017  35.3569987  29.5515006  22.1465017
  32.5269987  30.1305006  23.8435017  32.9569987  30.1865006  24.6995017
  33.5449987  28.4635006  20.6405017  33.6349987  27.2495006  20.8395017
  34.1929987  29.0975006  19.6385017  34.0019987  30.5075006  19.2465017
  34.3609987  31.1515006  20.0495017  32.9399987  30.6905006  19.0815017
  34.8079987  30.6495006  17.9905017  35.2629987  31.6395006  17.9575017
  34.1599987  30.5195006  17.1235017  35.8359987  29.5825006  18.0485017
  36.6889987  29.9005006  18.6475017  36.1799987  29.2765006  17.0605017
  35.1239987  28.4175006  18.7365017  34.5239987  27.8145006  18.0545017
  36.1519987  27.5195006  19.4445017  36.5959987  27.8415006  20.5515017
  36.5119987  26.4055006  18.8015017  36.0259987  26.1545006  17.9525017
  37.5679987  25.5085006  19.2915017  37.6159987  25.5535006  20.3795017
  37.2799987  24.0685006  18.8755017  37.1189987  24.0355006  17.7975017
  38.1369987  23.4465006  19.1335017  36.1309987  23.5845006  19.5375017
  35.9629987  22.6795006  19.2665017  38.9409987  25.9095006  18.7635017
  39.9539987  25.3155006  19.1345017  38.9599987  26.9265006  17.9045017
  38.1039987  27.4345006  17.7335017  40.1579987  27.3325006  17.1865017
  40.7469987  26.4555006  16.9185017  39.7749987  28.0765006  15.9015017
  39.0779987  28.8355006  16.2555017  40.6759987  28.5595006  15.5225017
  39.1179987  27.2635006  14.7755017  39.7499987  26.3975006  14.5765017
  37.7109987  26.7945006  15.1285017  37.0779987  27.6595006  15.3265017
  37.2969987  26.2255006  14.2955017  37.7499987  26.1625006  16.0155017
  39.0839987  28.0865006  13.4995017  40.1009987  28.3485006  13.2085017
  38.6169987  27.5055006  12.7045017  38.5089987  28.9965006  13.6685017
  41.0089987  28.2365006  18.0555017  40.5019987  28.8825006  18.9695017
  42.3049987  28.2765006  17.7675017  42.6949987  27.6285006  17.0975017
  43.2019987  29.2285006  18.4115017  43.0389987  29.2085006  19.4895017
  44.6679987  28.8845006  18.1315017  45.2909987  29.4225006  18.8455017
  44.8029987  27.8115006  18.2675017  45.0439987  29.2445006  16.8115017
  45.9649987  29.0165006  16.6675017  42.8819987  30.6185006  17.8775017
  42.3559987  30.7545006  16.7645017  43.1969987  31.6425006  18.6655017
  43.5679987  31.4725006  19.5895017  42.9639987  33.0275006  18.2565017
  41.8899987  33.2015006  18.1865017  43.5449987  33.9835006  19.2845017
  44.6209987  33.8275006  19.3595017  43.3479987  35.0105006  18.9785017
  43.0829987  33.7995006  20.2545017  43.5609987  33.2975006  16.8745017
  42.9459987  33.9755006  16.0475017  44.7529987  32.7465006  16.6435017
  45.2159987  32.2765006  17.4085017  45.4519987  32.8345006  15.3555017
  45.6659987  33.8755006  15.1115017  46.7779987  32.0685006  15.4385017
  47.4099987  32.6345006  16.1225017  46.5399987  31.1015006  15.8805017
  47.5169987  31.8565006  14.1205017  46.8619987  31.3315006  13.4255017
  47.7859987  32.8265006  13.7025017  48.7799987  31.0335006  14.3495017
  49.6299987  31.7135006  14.2975017  48.7179987  30.6065006  15.3505017
  48.9609987  29.9165006  13.3315017  49.5909987  29.1515006  13.7855017
  47.9769987  29.4975006  13.1195017  49.5829987  30.3835006  12.0655017
  50.4949987  30.7715006  12.2615017  49.6789987  29.6045006  11.4295017
  48.9989987  31.0915006  11.6445017  44.6239987  32.3035006  14.1895017
  44.6039987  32.9005006  13.1095017  43.9609987  31.1715006  14.3995017
  44.0569987  30.6745006  15.2735017  43.1529987  30.5665006  13.3445017
  43.6979987  30.5955006  12.4005017  42.8349987  29.1125006  13.6795017
  42.4019987  29.0935006  14.6795017  42.0969987  28.7635006  12.9575017
  44.0519987  28.2055006  13.6375017  44.3799987  28.1345006  12.6005017
  44.8359987  28.6705006  14.2355017  43.7659987  26.8185006  14.1715017
  42.6249987  26.3335006  14.0015017  44.6859987  26.2125006  14.7635017
  41.8749987  31.3645006  13.0875017  41.3719987  31.3905006  11.9645017
  41.3589987  32.0205006  14.1225017  41.7009987  31.8525006  15.0575017
  40.2389987  32.9385006  13.9505017  39.4209987  32.4255006  13.4445017
  39.7359987  33.4465006  15.3035017  40.5789987  33.2975006  15.9785017
  39.5039987  34.5095006  15.2415017  38.5169987  32.6895006  15.8355017
  38.6169987  31.6365006  15.5715017  38.4069987  32.8245006  17.3475017
  38.3069987  33.8775006  17.6125017  37.5319987  32.2775006  17.6985017
  39.3029987  32.4165006  17.8155017  37.2439987  33.1745006  15.1495017
  37.3229987  33.0065006  14.0755017  36.3879987  32.6245006  15.5405017
  37.1099987  34.2395006  15.3415017  40.6099987  34.1105006  13.0475017
  39.8099987  34.5385006  12.2175017  41.8249987  34.6215006  13.2065017
  42.4129987  34.3055006  13.9645017  42.3229987  35.6905006  12.3425017
  41.6299987  36.5305006  12.3955017  43.6899987  36.1575006  12.8165017
  44.3969987  35.3295006  12.7605017  44.0359987  36.9735006  12.1815017
  43.6189987  36.5055006  13.8475017  42.3919987  35.2425006  10.8785017
  41.9929987  35.9835006   9.9785017  42.8939987  34.0295006  10.6495017
  43.2709987  33.4985006  11.4215017  42.9889987  33.4585006   9.2985017
  43.5829987  34.1135006   8.6605017  43.6609987  32.0805006   9.3475017
  43.1189987  31.4835006  10.0805017  43.5489987  31.6315006   8.3605017
  45.1369987  32.1255006   9.7205017  45.6589987  32.6625006   8.9285017
  45.2309987  32.6775006  10.6555017  45.7489987  30.7435006   9.8845017
  45.0709987  29.8365006  10.4165017  46.9189987  30.5655006   9.4835017
  41.6249987  33.3515006   8.5985017  41.5239987  33.5645006   7.3865017
  40.5849987  33.0175006   9.3585017  40.7349987  32.7055006  10.3075017
  39.2109987  33.0475006   8.8445017  39.1579987  32.4765006   7.9175017
  38.2279987  32.4385006   9.8515017  38.4889987  32.9375006  10.7845017
  37.2209987  32.7305006   9.5535017  38.2799987  30.9235006  10.0525017
  39.2869987  30.6355006  10.3555017  37.2889987  30.5085006  11.1285017
  36.2819987  30.7955006  10.8265017  37.3319987  29.4285006  11.2655017
  37.5409987  31.0035006  12.0665017  38.0049987  30.1905006   8.7505017
  38.7549987  30.4705006   8.0105017  38.0479987  29.1145006   8.9225017
  37.0149987  30.4595006   8.3835017  38.7769987  34.4735006   8.5175017
  38.1039987  34.7055006   7.5145017  39.1619987  35.4195006   9.3725017
  39.6499987  35.1565006  10.2165017  38.8299987  36.8295006   9.1745017
  37.7569987  36.8895006   8.9905017  39.1549987  37.6335006  10.4285017
  40.2269987  37.5905006  10.6205017  38.8529987  38.6705006  10.2845017
  38.6169987  37.2145006  11.2785017  39.5379987  37.4305006   7.9535017
  38.9319987  38.2075006   7.2135017  40.8119987  37.0705006   7.7535017
  41.2649987  36.4895006   8.4445017  41.6019987  37.5215006   6.5905017
  41.6759987  38.6085006   6.6015017  43.0229987  36.9315006   6.6205017
  42.9429987  35.8735006   6.8695017  43.4709987  37.0385006   5.6325017
  43.9289987  37.6035006   7.6405017  43.6049987  38.6545006   8.1935017
  45.0849987  36.9965006   7.8845017  45.7299987  37.3945006   8.5525017
  45.3139987  36.1395006   7.4015017  40.9569987  37.1575006   5.2535017
  40.9499987  37.9655006   4.3215017  40.4369987  35.9355006   5.1665017
  40.5859987  35.2725006   5.9145017  39.7179987  35.4865006   3.9745017
  40.2319987  35.8415006   3.0815017  39.6489987  33.9575006   3.9245017
  39.4539987  33.6055006   4.9375017  38.8119987  33.6895006   3.2805017
  40.9189987  33.3105006   3.3995017  41.2199987  33.8405006   2.4955017
  41.6929987  33.4195006   4.1585017  40.7249987  31.8345006   3.0815017
  39.6979987  31.6815006   2.7495017  41.4099987  31.5585006   2.2795017
  40.9789987  30.9685006   4.2355017  41.9429987  30.7005006   4.3755017
  40.0599987  30.5145006   5.0915017  38.7749987  30.8335006   4.9675017
  38.4769987  31.4325006   4.2115017  38.1029987  30.4745006   5.6305017
  40.4399987  29.7285006   6.0945017  41.4139987  29.4835006   6.1985017
  39.7529987  29.3795006   6.7475017  38.3089987  36.0855006   3.8855017
  37.8039987  36.3055006   2.7835017  37.6899987  36.3465006   5.0405017
  38.1399987  36.0815006   5.9055017  36.3479987  36.9465006   5.1075017
  35.6929987  36.3755006   4.4495017  35.7999987  36.8685006   6.5285017
  36.4409987  37.4435006   7.1975017  34.7899987  37.2785006   6.5525017
  35.7769987  35.8285006   6.8525017  36.3399987  38.3975006   4.6235017
  35.4619987  38.7955006   3.8545017  37.3169987  39.1795006   5.0795017
  37.9599987  38.8275006   5.7745017  37.4509987  40.5735006   4.6525017
  36.4759987  41.0595006   4.6765017  38.3999987  41.3355006   5.5795017
  38.2009987  40.9985006   6.5965017  39.4169987  41.0615006   5.2995017
  38.2439987  42.8445006   5.5075017  38.6979987  43.1865006   4.5775017
  37.1769987  43.0665006   5.4945017  38.8929987  43.5555006   6.6765017
  40.1069987  43.3635006   6.8885017  38.1919987  44.3095006   7.3815017
  37.9329987  40.6645006   3.2025017  37.5459987  41.5775006   2.4745017
  38.7619987  39.7075006   2.7825017  39.1079987  39.0215006   3.4375017
  39.2529987  39.6595006   1.3985017  39.4689987  40.6675006   1.0445017
  40.5379987  38.8285006   1.3225017  41.2279987  39.1815006   2.0895017
  40.2899987  37.7845006   1.5115017  41.1479987  38.9455006   0.0485017
  41.9489987  38.4165006   0.0275017  38.2209987  39.1075006   0.3965017
  38.4439987  39.1735006  -0.8164983  37.1029987  38.5765006   0.9005017
  36.9879987  38.5515006   1.9035017  36.0569987  37.9725006   0.0635017
  36.5039987  37.4785006  -0.7994983  35.2789987  36.9285006   0.8775017
  35.9839987  36.2705006   1.3855017  34.6819987  37.4605006   1.6175017
  34.3519987  36.0815006   0.0255017  34.6839987  35.7025006  -1.0964983
  33.1849987  35.7645006   0.5685017  32.5259987  35.2025006   0.0495017
  32.9599987  36.0865006   1.4995017  35.0859987  39.0065006  -0.5144983
  35.2609987  40.2135006  -0.3464983  34.1139987  38.6475006  -1.1754983
  90.7889987  49.2795006  39.7155017  90.3429987  49.0665006  40.5965017
  91.7349987  49.5825006  39.8955017  90.6159987  48.5205006  39.0715017
  90.1019987  50.4635006  39.1235017  90.8319987  51.2655006  39.0115017
  89.4859987  50.1335006  37.7475017  90.2689987  49.7895006  37.0715017
  88.4379987  49.0385006  37.9095017  87.6549987  49.3815006  38.5855017
  88.0029987  48.8045006  36.9375017  88.9059987  48.1445006  38.3215017
  88.8299987  51.3835006  37.1715017  89.5789987  52.1675006  37.0555017
  88.0459987  51.7275006  37.8465017  88.2219987  51.0565006  35.8115017
  87.4729987  50.2735006  35.9265017  87.7529987  51.9495006  35.3985017
  89.0049987  50.7125006  35.1355017  89.0089987  50.9835006  40.0645017
  88.3579987  50.2155006  40.7735017  88.8229987  52.3005006  40.0745017
  89.3999987  52.8945006  39.4955017  87.8139987  52.9275006  40.9165017
  87.8559987  52.5045006  41.9205017  88.0569987  54.4385006  41.0115017
  89.0649987  54.5675006  41.4055017  88.0119987  54.8255006  39.9935017
  87.0689987  55.1985006  41.8875017  87.1529987  56.2605006  41.6585017
  86.0639987  54.8535006  41.6455017  87.3039987  55.0025006  43.3745017
  88.1399987  54.2005006  43.7885017  86.5619987  55.7425006  44.1855017
  86.6729987  55.6565006  45.1855017  85.8889987  56.3895006  43.7995017
  86.4379987  52.6655006  40.3295017  86.2259987  52.8185006  39.1265017
  85.5079987  52.2615006  41.1825017  85.7669987  51.9545006  42.1095017
  84.1139987  52.1575006  40.7875017  84.0289987  52.3335006  39.7155017
  83.5409987  50.7635006  41.1045017  82.5149987  50.7745006  40.7355017
  84.1309987  50.0605006  40.5165017  83.5499987  50.3335006  42.5725017
  84.4359987  50.7515006  43.0505017  82.6559987  50.7285006  43.0555017
  83.5699987  48.8125006  42.7065017  84.5109987  48.4365006  42.3045017
  83.4969987  48.5515006  43.7625017  82.4619987  48.1745006  41.9865017
  81.5809987  48.6685006  42.0035017  82.5269987  47.0085006  41.3335017
  83.6569987  46.3055006  41.2705017  84.4899987  46.6525006  41.7235017
  83.6749987  45.4285006  40.7705017  81.4439987  46.5405006  40.7215017
  80.5819987  47.0665006  40.7535017  81.4879987  45.6605006  40.2275017
  83.3169987  53.2675006  41.4585017  83.7819987  53.9105006  42.4025017
  82.1239987  53.4985006  40.9275017  81.8569987  52.9745006  40.1065017
  81.1839987  54.4785006  41.4585017  81.7149987  55.3465006  41.8505017
  80.2569987  54.9405006  40.3265017  80.8639987  55.0775006  39.4315017
  79.5749987  54.1035006  40.1775017  79.4609987  56.1975006  40.5925017
  80.0389987  57.3095006  41.1995017  81.0859987  57.2605006  41.4995017
  79.3089987  58.4615006  41.4235017  79.7699987  59.3205006  41.9105017
  77.9969987  58.5215006  41.0235017  77.2759987  59.6645006  41.2425017
  77.7849987  60.3515006  41.6785017  77.4029987  57.4405006  40.4105017
  76.3599987  57.4875006  40.0975017  78.1389987  56.2905006  40.1925017
  77.6799987  55.4355006  39.6975017  80.3699987  53.8565006  42.5795017
  80.0969987  54.4965006  43.5915017  79.9969987  52.5955006  42.3815017
  80.2869987  52.1375006  41.5295017  79.1779987  51.8465006  43.3225017
  79.0729987  52.3555006  44.2805017  77.7699987  51.5965006  42.7395017
  77.8739987  51.1125006  41.7685017  76.9479987  50.7095006  43.6635017
  76.8439987  51.1935006  44.6345017  75.9609987  50.5485006  43.2305017
  77.4499987  49.7505006  43.7885017  77.0609987  52.9175006  42.4805017
  77.6389987  53.5075006  41.7695017  76.0699987  52.7245006  42.0695017
  76.9649987  53.4685006  43.4165017  79.8349987  50.5045006  43.6405017
  80.2849987  49.7845006  42.7465017  79.8789987  50.1725006  44.9215017
  79.5419987  50.8155006  45.6235017  80.4259987  48.9015006  45.3595017
  81.3319987  48.6695006  44.8005017  80.7729987  48.9735006  46.8395017
  79.8759987  49.3065006  47.3615017  81.0239987  47.9615006  47.1575017
  81.9249987  49.9075006  47.1675017  82.8689987  49.4295006  46.9055017
  81.8169987  50.8335006  46.6025017  81.9109987  50.2175006  48.6525017
  81.2099987  51.0345006  48.8255017  81.5709987  49.3295006  49.1845017
  83.2149987  50.6035006  49.1735017  84.0229987  50.3725006  48.6135017
  83.4039987  51.2255006  50.3375017  82.3719987  51.5525006  51.1125017
  81.4319987  51.3285006  50.8185017  82.5339987  52.0235006  51.9915017
  84.6349987  51.5365006  50.7265017  85.4219987  51.3005006  50.1385017
  84.7789987  52.0075006  51.6085017  79.4379987  47.7625006  45.1315017
  78.2279987  47.9835006  45.0185017  79.9599987  46.5395006  45.0975017
  80.9589987  46.4185006  45.1835017  79.1359987  45.3555006  44.8695017
  78.5789987  45.4655006  43.9395017  80.0139987  44.1085006  44.7685017
  80.5869987  44.0375006  45.6935017  79.3499987  43.2485006  44.6865017
  80.9679987  44.1275006  43.5805017  80.6049987  44.8645006  42.8635017
  81.9529987  44.4255006  43.9395017  81.0639987  42.7665006  42.9045017
  81.9539987  42.7615006  42.2745017  81.1639987  42.0075006  43.6805017
  79.8329987  42.4625006  42.0495017  79.7419987  41.3795006  41.9645017
  78.9589987  42.8605006  42.5645017  79.9229987  43.0615006  40.6895017
  80.7329987  42.6925006  40.2115017  79.0899987  42.8335006  40.1655017
  80.0069987  44.0645006  40.7685017  78.0859987  45.1745006  45.9595017
  77.0089987  44.6305006  45.7115017  78.4029987  45.6405006  47.1645017
  79.3289987  46.0075006  47.3335017  77.4809987  45.5415006  48.2935017
  76.8889987  44.6315006  48.2005017  78.2449987  45.4975006  49.6345017
  77.5459987  45.1955006  50.4135017  79.0239987  44.7415006  49.5325017
  78.8779987  46.8295006  50.0105017  78.2029987  47.8705006  49.8625017
  80.0449987  46.8275006  50.4665017  76.4409987  46.6575006  48.3005017
  75.5099987  46.6105006  49.0935017  76.6159987  47.6665006  47.4505017
  77.4649987  47.7275006  46.9075017  75.6029987  48.7085006  47.2735017
  75.3599987  48.7215006  46.2115017  74.7299987  48.3865006  47.8415017
  75.9869987  50.1115006  47.7105017  75.3739987  51.0815006  47.2635017
  76.9879987  50.2305006  48.5795017  77.4179987  49.4085006  48.9805017
  77.4389987  51.5435006  49.0405017  76.5769987  52.1395006  49.3395017
  78.3809987  51.4145006  50.2345017  79.2029987  50.7615006  49.9415017
  78.7689987  52.4075006  50.4615017  77.6949987  50.8445006  51.4665017
  76.6549987  51.1715006  51.4585017  77.7339987  49.7565006  51.4055017
  78.3599987  51.3025006  52.7525017  79.4129987  51.0205006  52.7225017
  78.2769987  52.3865006  52.8235017  77.6989987  50.6635006  53.9635017
  76.6179987  50.7495006  53.8515017  77.9779987  49.6105006  53.9925017
  78.1199987  51.3225006  55.2295017  77.8609987  52.2985006  55.2035017
  77.6629987  50.8735006  56.0105017  79.1209987  51.2425006  55.3335017
  78.1069987  52.3365006  47.9255017  78.6769987  51.7625006  46.9995017
  78.0309987  53.6605006  48.0365017  77.6589987  54.0605006  48.8865017
  78.4489987  54.5645006  46.9735017  78.6649987  54.0045006  46.0635017
  77.3329987  55.5525006  46.6815017  77.0639987  56.1235006  47.5705017
  77.6079987  56.2375006  45.8795017  75.8259987  54.7305006  46.1415017
  75.1099987  55.8405006  45.9865017  79.6969987  55.3335006  47.3445017
  79.7649987  55.9285006  48.4175017  80.6649987  55.3375006  46.4325017
  80.5219987  54.8425006  45.5635017  81.9489987  55.9865006  46.6535017
  82.2239987  55.9255006  47.7065017  83.0299987  55.2915006  45.8255017
  82.7089987  55.2925006  44.7835017  83.9669987  55.8415006  45.9175017
  83.2649987  53.8615006  46.2575017  83.2259987  53.5475006  47.4445017
  83.5289987  52.9885006  45.2945017  83.6939987  52.0195006  45.5265017
  83.5639987  53.2965006  44.3335017  81.9229987  57.4725006  46.3125017
  82.5389987  57.9025006  45.3415017  81.2129987  58.2535006  47.1235017
  80.7109987  57.8365006  47.8945017  81.1159987  59.7005006  46.9345017
  81.9759987  60.1095006  46.4035017  79.8359987  60.0805006  46.1655017
  78.9749987  59.6745006  46.6965017  79.6959987  61.5945006  46.0535017
  80.5569987  62.0015006  45.5225017  78.7849987  61.8365006  45.5065017
  79.6469987  62.0305006  47.0515017  79.8199987  59.4235006  44.7885017
  79.8539987  58.3395006  44.9015017  78.9079987  59.7045006  44.2615017
  80.6859987  59.7555006  44.2165017  81.1029987  60.4105006  48.2785017
  80.4679987  59.9495006  49.2215017  81.8099987  61.5295006  48.3615017
  82.4129987  61.7985006  47.5975017  81.7909987  62.3675006  49.5565017
  81.0669987  61.9675006  50.2655017  83.1669987  62.4125006  50.2335017
  83.9509987  62.6415006  49.5115017  83.1549987  63.1765006  51.0105017
  83.5599987  61.1255006  50.9015017  82.6429987  60.2585006  51.4615017
  83.2759987  59.2255006  51.9855017  82.7219987  58.4255006  52.4755017
  84.5719987  59.3885006  51.7905017  85.3009987  58.7535006  52.0835017
  84.7779987  60.5705006  51.1185017  85.7909987  60.8855006  50.8675017
  81.3329987  63.7625006  49.1835017  81.7029987  64.2935006  48.1385017
  80.5159987  64.3505006  50.0415017  80.2529987  63.8815006  50.8965017
  79.9329987  65.6435006  49.7615017  79.9849987  65.8655006  48.6955017
  78.4749987  65.6245006  50.1825017  78.4289987  65.4815006  51.2625017
  77.9489987  66.5415006  49.9155017  77.7099987  64.4995006  49.5705017
  77.1869987  64.5645006  48.2975017  76.5819987  63.4235006  48.0165017
  76.0929987  63.2785006  47.0535017  76.7049987  62.6175006  49.0555017
  76.3399987  61.6785006  49.1285017  77.4179987  63.2645006  50.0365017
  77.6389987  62.7555006  50.9745017  80.7209987  66.7195006  50.4875017
  80.4799987  66.9925006  51.6575017  81.6739987  67.3185006  49.7815017
  81.7879987  67.0875006  48.8045017  82.5699987  68.3055006  50.3665017
  82.5929987  68.1435006  51.4445017  83.5659987  68.1435006  49.9545017
  82.1489987  69.7355006  50.0915017  81.4189987  70.0115006  49.1395017
  82.6319987  70.6445006  50.9325017  83.1639987  70.3305006  51.7315017
  82.3469987  72.0715006  50.8085017  82.7299987  72.5955006  51.6845017
  83.0049987  72.6615006  49.5595017  82.5989987  72.1825006  48.6685017
  82.7819987  73.7285006  49.5305017  84.5079987  72.4815006  49.5635017
  85.2469987  73.3755006  49.9725017  84.9699987  71.3135006  49.1265017
  85.9649987  71.1425006  49.1085017  84.3239987  70.6035006  48.8145017
  80.8609987  72.3615006  50.8175017  80.3649987  73.1455006  50.0115017
  80.1559987  71.7155006  51.7415017  80.5739987  70.9555006  52.2585017
  78.7749987  72.0615006  52.0225017  78.2249987  72.2655006  51.1035017
  78.0509987  70.9425006  52.7905017  78.6119987  70.7175006  53.6975017
  76.6369987  71.3725006  53.1615017  76.0749987  71.5975006  52.2545017
  76.1419987  70.5665006  53.7035017  76.6799987  72.2605006  53.7915017
  78.0209987  69.6735006  51.9605017  79.0409987  69.3555006  51.7445017
  77.5059987  68.8885006  52.5145017  77.4939987  69.8625006  51.0255017
  78.8049987  73.3445006  52.8495017  78.9639987  73.3045006  54.0735017
  78.6839987  74.4825006  52.1715017  78.5919987  74.4615006  51.1655017
  78.7619987  75.7835006  52.8325017  79.6859987  75.8505006  53.4075017
  78.7459987  76.9145006  51.7965017  79.5739987  76.7815006  51.1005017
  77.8039987  76.8925006  51.2485017  78.8889987  78.2565006  52.5065017
  78.0609987  78.3895006  53.2035017  79.8309987  78.2795006  53.0545017
  78.8719987  79.3805006  51.4765017  79.6989987  79.2475006  50.7795017
  77.9299987  79.3585006  50.9295017  79.0099987  80.7005006  52.1305017
  79.0969987  80.7335006  53.1365017  79.0249987  81.8455006  51.4545017
  78.9159987  81.8825006  50.1295017  78.8179987  81.0225006  49.6095017
  78.9309987  82.7705006  49.6495017  79.1529987  82.9765006  52.1435017
  79.2349987  82.9445006  53.1495017  79.1679987  83.8615006  51.6575017
  77.6339987  75.9685006  53.8575017  77.8699987  76.4835006  54.9505017
  76.4249987  75.5265006  53.5145017  76.2989987  75.0635006  52.6255017
  75.2459987  75.7465006  54.3555017  75.4259987  76.5715006  55.0445017
  74.0399987  76.0935006  53.4815017  74.0039987  75.3775006  52.6605017
  73.1429987  75.9905006  54.0915017  74.1109987  77.5025006  52.9215017
  73.9539987  78.1865006  53.7555017  75.1089987  77.6535006  52.5105017
  73.0789987  77.7705006  51.8485017  73.0149987  76.9885006  50.8755017
  72.3399987  78.7685006  51.9705017  74.9389987  74.5405006  55.2295017
  73.9539987  73.8435006  55.0215017  75.7819987  74.3155006  56.2255017
  76.5459987  74.9535006  56.3975017  75.6689987  73.1275006  57.0665017
  75.5109987  72.2475006  56.4425017  76.9539987  72.9275006  57.8775017
  76.8099987  72.0985006  58.5705017  78.1179987  72.6215006  56.9595017
  78.2619987  73.4505006  56.2665017  79.0219987  72.4825006  57.5525017
  77.9089987  71.7115006  56.3975017  77.2409987  74.1235006  58.6075017
  78.0459987  74.0025006  59.1165017  74.4859987  73.1505006  58.0395017
  74.0789987  72.1025006  58.5295017  73.9329987  74.3285006  58.3245017
  74.3279987  75.1755006  57.9415017  72.7719987  74.4435006  59.2235017
  73.0539987  74.1115006  60.2225017  72.2739987  75.8945006  59.3105017
  71.5409987  75.9215006  60.1165017  73.1119987  76.5455006  59.5595017
  71.6299987  76.3705006  58.0265017  70.3009987  76.0795006  57.7465017
  69.7209987  75.5175006  58.4795017  69.7109987  76.4885006  56.5645017
  68.6649987  76.2585006  56.3625017  70.4549987  77.1995006  55.6385017
  69.8639987  77.5965006  54.4655017  68.9449987  77.3285006  54.3995017
  71.7789987  77.5015006  55.8855017  72.3659987  78.0625006  55.1585017
  72.3609987  77.0845006  57.0715017  73.4079987  77.3115006  57.2745017
  71.6109987  73.5545006  58.7745017  70.8239987  73.1125006  59.6055017
  71.4999987  73.3095006  57.4645017  72.1749987  73.7135006  56.8315017
  70.3999987  72.5125006  56.8965017  69.4519987  73.0085006  57.1045017
  70.5449987  72.3515006  55.3845017  71.4219987  71.7295006  55.2045017
  69.6549987  71.8355006  55.0245017  70.6989987  73.6675006  54.6475017
  70.2089987  74.4485006  55.2285017  71.7619987  73.8925006  54.5605017
  70.0829987  73.6045006  53.2695017  70.3049987  72.6245006  52.8465017
  69.0039987  73.7175006  53.3785017  70.5699987  74.6295006  52.3535017
  71.2709987  75.2725006  52.6935017  70.1459987  74.7575006  51.0985017
  69.2149987  73.9395006  50.6065017  68.8249987  73.2135006  51.1905017
  68.9039987  74.0495006  49.6515017  70.6479987  75.7115006  50.3275017
  71.3499987  76.3375006  50.6955017  70.3259987  75.8085006  49.3755017
  70.3129987  71.1395006  57.5325017  69.2209987  70.5995006  57.6945017
  71.4669987  70.5905006  57.8965017  72.3329987  71.0185006  57.6015017
  71.5329987  69.3415006  58.6425017  71.0199987  68.5505006  58.0955017
  72.9959987  68.9295006  58.8415017  73.4859987  69.7475006  59.3695017
  72.9989987  68.0385006  59.4685017  73.7439987  68.6415006  57.5475017
  73.3339987  67.6225006  56.6945017  72.4639987  67.0255006  56.9685017
  74.0099987  67.3595006  55.5145017  73.6669987  66.5645006  54.8525017
  75.1219987  68.1095006  55.1765017  75.8009987  67.8405006  54.0055017
  75.4159987  67.1165006  53.5065017  75.5509987  69.1225006  56.0085017
  76.4269987  69.7155006  55.7465017  74.8629987  69.3845006  57.1815017
  75.1949987  70.1865006  57.8405017  70.7979987  69.4395006  59.9945017
  70.1769987  68.4675006  60.4475017  70.8619987  70.6185006  60.6205017
  71.4669987  71.3415006  60.2585017  70.1259987  70.8845006  61.8615017
  70.1289987  69.9855006  62.4775017  70.7529987  72.0295006  62.6645017
  70.5259987  72.8915006  62.0365017  70.1929987  72.1015006  63.5965017
  72.2619987  72.0035006  62.9735017  72.8109987  72.4265006  62.1325017
  72.5449987  72.8235006  64.2295017  71.9969987  72.4005006  65.0715017
  73.6129987  72.8025006  64.4445017  72.2269987  73.8535006  64.0705017
  72.8239987  70.5935006  63.1345017  72.6689987  70.0325006  62.2125017
  73.8909987  70.6495006  63.3505017  72.3139987  70.0895006  63.9555017
  68.6619987  71.2045006  61.5915017  67.8149987  70.9285006  62.4275017
  68.3609987  71.7855006  60.4335017  69.0959987  72.0695006  59.8015017
  66.9759987  72.0865006  60.0665017  66.5329987  72.6965006  60.8535017
  66.8719987  72.8505006  58.7355017  67.0819987  72.1645006  57.9145017
  65.4839987  73.4285006  58.5665017  65.2729987  74.1145006  59.3865017
  65.4259987  73.9665006  57.6205017  64.7509987  72.6215006  58.5705017
  67.8169987  73.9215006  58.7155017  67.7469987  74.3945006  57.8825017
  66.1159987  70.8285006  59.9725017  65.0159987  70.8035006  60.5225017
  66.5859987  69.7965006  59.2715017  67.2839987  69.9265006  58.5535017
  65.9149987  68.4835006  59.3665017  65.0449987  68.5965006  60.0125017
  65.4489987  67.9095006  58.0035017  64.8369987  67.0385006  58.2375017
  64.8349987  68.6615006  57.5075017  66.5749987  67.5015006  57.0935017
  67.6189987  68.1815006  57.0945017  66.3919987  66.5065006  56.3555017
  66.7419987  67.5085006  60.2115017  67.3169987  66.5305006  59.7295017
  66.7569987  67.8195006  61.5005017  66.2869987  68.6635006  61.7955017
  67.4879987  67.0565006  62.4935017  68.5529987  66.9815006  62.2735017
  67.2939987  67.6775006  63.9005017  67.4599987  68.7525006  63.8345017
  65.8899987  67.4125006  64.4255017  65.7239987  66.3375006  64.4925017
  65.7809987  67.8585006  65.4135017  65.1589987  67.8515006  63.7465017
  68.3679987  67.1795006  64.8785017  67.9989987  67.3615006  65.8875017
  68.4789987  66.1065006  64.7215017  69.7129987  67.8575006  64.7025017
  69.6029987  68.9305006  64.8605017  70.4209987  67.4555006  65.4275017
  70.0829987  67.6755006  63.6935017  67.1099987  65.5675006  62.5105017
  67.9729987  64.7135006  62.7215017  65.8379987  65.2465006  62.2895017
  65.1409987  65.9505006  62.0935017  65.4039987  63.8535006  62.4035017
  65.6779987  63.4795006  63.3895017  63.8969987  63.6975006  62.2235017
  63.3809987  64.4565006  62.8105017  63.6119987  63.7935006  61.1755017
  63.3789987  62.3685006  62.6895017  63.2469987  62.1045006  64.0505017
  63.5189987  62.8785006  64.7685017  62.7779987  60.8795006  64.4965017
  62.6729987  60.6885006  65.5645017  62.4409987  59.8935006  63.5785017
  62.0719987  58.9285006  63.9245017  62.5739987  60.1385006  62.2175017
  62.3109987  59.3675006  61.4935017  63.0439987  61.3705006  61.7795017
  63.1539987  61.5635006  60.7125017  66.1369987  62.9715006  61.4055017
  66.5819987  61.8795006  61.7485017  66.2819987  63.4565006  60.1775017
  65.8019987  64.3005006  59.9005017  67.0189987  62.7185006  59.1645017
  66.5989987  61.7145006  59.1105017  66.9199987  63.3725006  57.7625017
  67.4889987  64.3025006  57.7665017  67.4719987  62.4495006  56.7015017
  66.9029987  61.5195006  56.6965017  67.3929987  62.9285006  55.7255017
  68.5189987  62.2335006  56.9155017  65.5509987  63.6375006  57.4325017
  65.5039987  64.0415006  56.5635017  68.4809987  62.5145006  59.6175017
  68.9629987  61.3875006  59.5675017  69.1729987  63.5615006  60.0895017
  68.7609987  64.4825006  60.1405017  70.5639987  63.3875006  60.5695017
  71.1789987  63.0295006  59.7435017  71.2119987  64.6625006  61.1515017
  72.1109987  64.3645006  61.6915017  71.5709987  65.6545006  60.1005017
  70.6729987  65.9535006  59.5605017  72.0229987  66.5305006  60.5665017
  72.2809987  65.2065006  59.4045017  70.3199987  65.2725006  62.0795017
  70.7249987  66.0645006  62.4395017  70.6499987  62.3615006  61.6905017
  71.5839987  61.5645006  61.7255017  69.6969987  62.3985006  62.6165017
  68.9609987  63.0875006  62.5615017  69.7159987  61.4975006  63.7625017
  70.6589987  61.6075006  64.2985017  68.5719987  61.8115006  64.7195017
  67.8589987  62.3755006  64.1175017  68.1039987  60.8915006  65.0695017
  69.0009987  62.6505006  65.9165017  69.7749987  63.3465006  65.5945017
  67.8229987  63.4305006  66.4915017  67.0479987  62.7345006  66.8135017
  68.1589987  64.0205006  67.3445017  67.4189987  64.0945006  65.7275017
  69.6449987  61.7435006  66.9625017  70.5159987  61.2515006  66.5305017
  69.9539987  62.3405006  67.8205017  68.9249987  60.9905006  67.2835017
  69.6429987  60.0385006  63.3465017  70.5189987  59.2525006  63.6875017
  68.5979987  59.6835006  62.6075017  67.8749987  60.3565006  62.3995017
  68.4099987  58.2985006  62.1585017  68.5619987  57.5855006  62.9685017
  67.0059987  58.0795006  61.5685017  66.9349987  57.0675006  61.1705017
  65.9609987  58.2715006  62.6475017  66.0309987  59.2835006  63.0455017
  64.9689987  58.1155006  62.2245017  66.1309987  57.5535006  63.4505017
  66.7439987  59.0075006  60.3895017  67.4789987  58.8185006  59.6075017
  65.7429987  58.8245006  59.9985017  66.8219987  60.0435006  60.7175017
  69.4669987  57.8265006  61.1515017  69.6919987  56.6205006  60.9965017
  70.1059987  58.7805006  60.4735017  69.7979987  59.7385006  60.5645017
  71.2079987  58.4895006  59.5515017  70.9909987  57.5755006  58.9985017
  71.3989987  59.6385006  58.5465017  71.2639987  60.5765006  59.0845017
  72.4219987  59.5785006  58.1735017  70.4209987  59.5805006  57.3665017
  69.3719987  58.8965006  57.4435017  70.7139987  60.2395006  56.3475017
  72.5349987  58.2295006  60.2705017  73.4729987  57.7375006  59.6505017
  72.6149987  58.5585006  61.5615017  71.8299987  59.0085006  62.0095017
  73.8449987  58.3555006  62.3465017  74.6959987  58.7765006  61.8105017
  73.7369987  59.0445006  63.7145017  72.6889987  58.9185006  63.9865017
  74.3629987  58.4945006  64.4175017  74.0999987  60.5255006  63.7625017
  73.7059987  61.0025006  62.8655017  73.5269987  61.2115006  64.9945017
  73.9209987  60.7345006  65.8925017  73.8089987  62.2645006  64.9895017
  72.4399987  61.1275006  64.9855017  75.6089987  60.6675006  63.7265017
  75.9939987  60.2255006  62.8075017  75.8759987  61.7235006  63.7605017
  76.0429987  60.1555006  64.5855017  74.2319987  56.8845006  62.5665017
  73.4309987  55.9665006  62.3885017  75.4759987  56.6765006  62.9735017
  76.1359987  57.4395006  63.0185017  75.9319987  55.3475006  63.3505017
  75.5999987  54.6275006  62.6025017  77.4619987  55.2845006  63.4465017
  77.7309987  55.6725006  64.4295017  77.7369987  54.2315006  63.3835017
  78.2049987  56.0685006  62.3705017  77.8389987  55.7415006  61.3975017
  77.9809987  57.1265006  62.5045017  79.7079987  55.8555006  62.4445017
  80.1919987  56.6405006  61.8635017  80.0119987  55.9375006  63.4885017
  80.1199987  54.4975006  61.9025017  79.8769987  53.7395006  62.6475017
  79.5559987  54.3035006  60.9905017  81.5779987  54.4495006  61.6035017
  82.1009987  54.6285006  62.4485017  81.8179987  53.5355006  61.2465017
  81.8029987  55.1515006  60.9125017  75.2989987  55.0375006  64.6985017
  75.0049987  55.9505006  65.4695017  75.0899987  53.7565006  64.9795017
  75.3379987  53.0535006  64.2985017  74.4019987  53.3265006  66.2075017
  73.4099987  53.7775006  66.2455017  74.2479987  51.7945006  66.2505017
  75.0569987  51.3365006  65.6815017  74.2559987  51.4065006  67.2695017
  72.9749987  51.3335006  65.6295017  72.8129987  50.7605006  64.4015017
  73.7129987  50.6025006  63.8075017  71.4839987  50.4975006  64.1765017
  71.0999987  50.0775006  63.3415017  70.7609987  50.9035006  65.2675017
  69.3889987  50.8475006  65.5115017  68.7389987  50.4185006  64.7485017
  68.9439987  51.3405006  66.7045017  67.8789987  51.3105006  66.9345017
  69.8289987  51.8875006  67.6465017  69.4599987  52.2815006  68.5935017
  71.1829987  51.9445006  67.4065017  71.8259987  52.3815006  68.1705017
  71.6709987  51.4425006  66.1985017  75.0549987  53.8265006  67.4925017
  74.3719987  54.2935006  68.4045017  76.3739987  53.7335006  67.5605017
  76.8979987  53.2515006  66.8435017  77.0959987  54.2615006  68.7035017
  76.8669987  53.6655006  69.5875017  78.6119987  54.2195006  68.4625017
  79.0829987  54.4815006  69.4095017  78.8559987  53.1875006  68.2095017
  79.1249987  55.1475006  67.3655017  78.6869987  54.8325006  66.4185017
  78.7989987  56.1615006  67.5955017  80.6419987  55.1145006  67.2585017
  80.9729987  56.0175006  66.7455017  81.0599987  55.0955006  68.2645017
  81.1349987  53.9515006  66.5245017  80.4429987  53.2995006  66.1835017
  82.4199987  53.7015006  66.2785017  83.3739987  54.5295006  66.7055017
  83.1229987  55.3595006  67.2235017  84.3429987  54.3225006  66.5095017
  82.7549987  52.6105006  65.6005017  82.0349987  51.9795006  65.2775017
  83.7279987  52.4165006  65.4115017  76.6429987  55.6885006  69.0215017
  76.5039987  56.0525006  70.1835017  76.3959987  56.4825006  67.9855017
  76.5239987  56.1435006  67.0425017  76.0549987  57.8855006  68.1735017
  76.5809987  58.2895006  69.0385017  76.4639987  58.6755006  66.9455017
  76.0379987  58.2395006  66.0425017  76.1349987  59.7105006  67.0395017
  77.9479987  58.7145006  66.7435017  78.7709987  59.3165006  67.6885017
  78.3199987  59.7605006  68.5765017  80.1399987  59.3575006  67.5155017
  80.7739987  59.8345006  68.2625017  80.7049987  58.7905006  66.3905017
  81.7849987  58.8195006  66.2495017  79.8989987  58.1845006  65.4405017
  80.3449987  57.7395006  64.5505017  78.5269987  58.1445006  65.6215017
  77.8929987  57.6615006  64.8775017  74.5909987  58.1275006  68.5265017
  74.2839987  59.0745006  69.2555017  73.6889987  57.2875006  68.0215017
  73.9399987  56.6395006  67.2885017  72.3079987  57.2935006  68.4985017
  71.9009987  58.2995006  68.3945017  71.4269987  56.3275006  67.7135017
  72.0179987  55.4505006  67.4515017  70.5859987  56.0245006  68.3375017
  70.8899987  56.9425006  66.4465017  71.6469987  57.2455006  65.5305017
  69.5789987  57.1365006  66.3865017  69.1699987  57.5455006  65.5585017
  68.9959987  56.8745006  67.1685017  72.2679987  56.9085006  69.9585017
  71.7139987  57.6275006  70.7775017  72.8789987  55.7765006  70.2845017
  73.3049987  55.2015006  69.5715017  72.8819987  55.2895006  71.6585017
  71.8579987  55.2065006  72.0215017  73.5419987  53.9145006  71.7405017
  74.5199987  54.0715006  71.2855017  73.6689987  53.6195006  72.7825017
  72.7999987  52.8085006  70.9845017  72.5589987  53.1665006  69.9835017
  73.6589987  51.5525006  70.8815017  73.8999987  51.1935006  71.8825017
  73.1109987  50.7805006  70.3405017  74.5809987  51.7845006  70.3485017
  71.4539987  52.5075006  71.6365017  70.8379987  53.4065006  71.6315017
  70.9479987  51.7185006  71.0795017  71.6119987  52.1815006  72.6645017
  73.5649987  56.2705006  72.6095017  73.2149987  56.3345006  73.7855017
  74.5259987  57.0345006  72.0985017  74.8079987  56.9165006  71.1355017
  75.2089987  58.0445006  72.9015017  75.5109987  57.6085006  73.8535017
  76.4549987  58.5685006  72.1865017  76.8889987  57.7065006  71.6795017
  76.1739987  59.3205006  71.4485017  77.4779987  59.1595006  73.1485017
  76.9879987  59.5225006  74.0525017  78.4529987  58.0505006  73.5115017
  78.9429987  57.6875006  72.6085017  79.2029987  58.4365006  74.2015017
  77.9119987  57.2315006  73.9855017  78.2009987  60.3605006  72.5565017
  77.4769987  61.1385006  72.3145017  78.9189987  60.7455006  73.2805017
  78.7259987  60.0585006  71.6495017  74.2649987  59.2015006  73.1705017
  73.9889987  59.5445006  74.3185017  73.7739987  59.7935006  72.0925017
  74.1209987  59.5335006  71.1805017  72.8069987  60.8715006  72.1795017
  73.2159987  61.7245006  72.7215017  72.3769987  61.3195006  70.7615017
  72.1649987  60.4295006  70.1685017  71.1399987  62.2075006  70.8045017
  71.3519987  63.0975006  71.3965017  70.8679987  62.5025006  69.7905017
  70.3139987  61.6585006  71.2565017  73.5379987  62.0565006  70.0805017
  73.5719987  63.0595006  70.5055017  74.4519987  61.5215006  70.3395017
  73.4189987  62.1505006  68.5765017  72.5059987  62.6855006  68.3165017
  74.2799987  62.6855006  68.1765017  73.3849987  61.1475006  68.1505017
  71.6119987  60.4265006  73.0325017  71.1659987  61.1525006  73.9205017
  71.1209987  59.2175006  72.7905017  71.4949987  58.6515006  72.0415017
  69.9949987  58.6985006  73.5515017  69.1189987  59.3205006  73.3675017
  69.6639987  57.2565006  73.1525017  69.7359987  57.1485006  72.0705017
  70.3539987  56.5635006  73.6335017  68.2789987  56.8195006  73.5365017
  68.0109987  56.3695006  74.8215017  68.8189987  56.3415006  75.5525017
  66.7349987  55.9585006  75.1815017  66.5389987  55.6095006  76.1955017
  65.7099987  55.9925006  74.2505017  64.7059987  55.6695006  74.5245017
  65.9669987  56.4395006  72.9655017  65.1629987  56.4675006  72.2295017
  67.2439987  56.8505006  72.6135017  67.4439987  57.2035006  71.6015017
  70.3009987  58.7855006  75.0415017  69.5119987  59.3405006  75.8005017
  71.4529987  58.2705006  75.4575017  72.0709987  57.7985006  74.8135017
  71.8419987  58.3405006  76.8675017  71.0879987  57.8875006  77.5115017
  73.1929987  57.6535006  77.1345017  73.9219987  58.0105006  76.4075017
  73.6839987  57.9705006  78.5435017  72.9559987  57.6135006  79.2715017
  74.6399987  57.4765006  78.7155017  73.8069987  59.0485006  78.6515017
  73.0859987  56.1475006  76.9265017  72.7849987  55.9425006  75.8995017
  74.0529987  55.6835006  77.1205017  72.3429987  55.7375006  77.6105017
  71.9389987  59.7835006  77.3545017  71.4879987  60.1015006  78.4545017
  72.5289987  60.6445006  76.5315017  72.8669987  60.3275006  75.6345017
  72.7669987  62.0355006  76.9085017  73.2279987  62.0735006  77.8955017
  73.6989987  62.7185006  75.9075017  73.2859987  62.5525006  74.9125017
  73.6899987  63.7855006  76.1305017  75.1289987  62.2035006  75.9545017
  75.2719987  61.6745006  76.8965017  75.2709987  61.5115006  75.1245017
  76.3399987  63.5315006  75.8315017  76.0859987  64.3875006  77.3905017
  76.2779987  63.7035006  78.2165017  76.7679987  65.2355006  77.4555017
  75.0579987  64.7445006  77.4465017  71.4869987  62.8435006  77.0325017
  71.2999987  63.5665006  78.0105017  70.6109987  62.7205006  76.0405017
  70.8119987  62.1165006  75.2565017  69.3659987  63.4875006  76.0225017
  69.5719987  64.5575006  76.0045017  68.4949987  63.1315006  74.7995017
  68.3869987  62.0485006  74.7485017  67.1229987  63.7715006  74.9085017
  67.2299987  64.8555006  74.9595017  66.5269987  63.5065006  74.0355017
  66.6249987  63.4135006  75.8095017  69.1709987  63.5805006  73.5155017
  70.1359987  63.0825006  73.4195017  68.5419987  63.3215006  72.6635017
  69.3199987  64.6595006  73.5415017  68.5849987  63.2435006  77.3085017
  68.0369987  64.1755006  77.9015017  68.5549987  61.9825006  77.7345017
  68.9469987  61.2545006  77.1545017  67.8689987  61.5955006  78.9585017
  66.8999987  62.0915006  79.0115017  67.6449987  60.0765006  78.9925017
  68.5419987  59.6105006  78.5845017  67.5249987  59.7825006  80.0355017
  66.4349987  59.6255006  78.1985017  66.5499987  59.2415006  76.8685017
  67.5359987  59.2645006  76.4035017  65.4449987  58.8355006  76.1335017
  65.5549987  58.5315006  75.0925017  64.2069987  58.8065006  76.7315017
  63.1109987  58.4105006  76.0095017  63.3229987  58.1775006  75.1025017
  64.0609987  59.1865006  78.0525017  63.0779987  59.1695006  78.5245017
  65.1719987  59.5905006  78.7785017  65.0629987  59.8875006  79.8215017
  68.5849987  62.0855006  80.2305017  67.9399987  62.6345006  81.1175017
  69.9029987  61.9125006  80.3205017  70.4159987  61.4495006  79.5845017
  70.6369987  62.3245006  81.5315017  70.1179987  61.9365006  82.4085017
  72.0849987  61.8025006  81.5455017  72.6479987  62.3505006  82.3005017
  72.1219987  60.3215006  81.8635017  71.5589987  59.7735006  81.1085017
  73.1559987  59.9755006  81.8675017  71.6779987  60.1485006  82.8435017
  72.6739987  62.0155006  80.2645017  73.5769987  61.6905006  80.2695017
  70.6729987  63.8405006  81.7455017  70.6289987  64.2975006  82.8875017
  70.7559987  64.6185006  80.6665017  70.8969987  64.2215006  79.7485017
  70.7409987  66.0845006  80.7975017  71.3269987  66.4215006  81.6525017
  71.2269987  66.8385006  79.5365017  71.1709987  67.9115006  79.7195017
  72.6629987  66.4535006  79.2115017  72.7189987  65.3805006  79.0275017
  72.9919987  66.9915006  78.3225017  73.3079987  66.7125006  80.0515017
  70.2959987  66.6115006  78.3515017  69.2969987  66.9675006  78.6005017
  70.6699987  67.1565006  77.4855017  70.2539987  65.5475006  78.1205017
  69.3719987  66.6295006  81.1845017  69.2999987  67.5995006  81.9265017
  68.2899987  66.0345006  80.6915017  68.3469987  65.2915006  80.0095017
  66.9709987  66.4975006  81.0995017  66.9169987  67.5785006  80.9735017
  65.8099987  65.8505006  80.3115017  64.8749987  66.0465006  80.8355017
  65.7319987  66.4205006  78.9115017  66.6669987  66.2245006  78.3865017
  64.9079987  65.9515006  78.3735017  65.5649987  67.4965006  78.9655017
  65.9879987  64.4335006  80.2405017  65.2609987  64.0435006  79.7495017
  66.7959987  66.2225006  82.5845017  66.4649987  67.1235006  83.3505017
  67.0489987  64.9855006  82.9905017  67.2819987  64.2685006  82.3185017
  66.9139987  64.6025006  84.3905017  65.8969987  64.8015006  84.7275017
  67.2099987  63.1085006  84.5805017  68.1659987  62.8765006  84.1105017
  67.2529987  62.8485006  85.6385017  66.1969987  62.2045006  83.9585017
  64.8529987  62.4195006  83.8655017  64.4739987  63.3535006  84.2795017
  64.2449987  61.3565006  83.2385017  63.2569987  61.2755006  83.0465017
  65.1929987  60.4265006  82.9215017  65.0569987  59.1935006  82.2875017
  64.0619987  58.8765006  81.9755017  66.1879987  58.4555006  82.0955017
  66.1229987  57.4865006  81.6015017  67.4409987  58.9185006  82.5225017
  68.3379987  58.3195006  82.3655017  67.5799987  60.1525006  83.1575017
  68.5759987  60.4725006  83.4635017  66.4369987  60.9245006  83.3645017
  67.8069987  65.4485006  85.3095017  67.4069987  65.7605006  86.4325017
  69.0039987  65.8125006  84.8475017  69.3399987  65.4625006  83.9615017
  69.8609987  66.7275006  85.6015017  69.9389987  66.3785006  86.6315017
  71.2649987  66.8085006  85.0055017  71.0679987  66.7865006  83.9335017
  71.6519987  67.7885006  85.2835017  72.2939987  65.7375006  85.3555017
  71.8869987  64.7505006  85.1345017  73.5499987  65.9655006  84.5275017
  73.9579987  66.9515006  84.7485017  74.2899987  65.2035006  84.7725017
  73.3029987  65.9045006  83.4675017  72.6269987  65.7445006  86.8425017
  71.7219987  65.5535006  87.4185017  73.3629987  64.9685006  87.0545017
  73.0349987  66.7165006  87.1195017  69.2609987  68.1165006  85.5825017
  69.0939987  68.7485006  86.6265017  68.9399987  68.5875006  84.3805017
  69.1139987  68.0305006  83.5555017  68.4089987  69.9315006  84.2065017
  69.1539987  70.6555006  84.5365017  68.0599987  70.2215006  82.7435017
  68.9929987  70.2865006  82.1835017  67.4209987  69.4595006  82.2965017
  67.3589987  71.5295006  82.5605017  68.0449987  72.7225006  82.7755017
  69.0999987  72.6875006  83.0455017  67.4039987  73.9395006  82.6505017
  67.9489987  74.8695006  82.8155017  66.0589987  73.9745006  82.3125017
  65.5529987  74.9345006  82.2045017  65.3559987  72.7915006  82.1115017
  64.2979987  72.8205006  81.8525017  66.0029987  71.5755006  82.2415017
  65.4519987  70.6465006  82.0945017  67.1849987  70.1845006  85.0865017
  67.0629987  71.2465006  85.6915017  66.2759987  69.2205006  85.1455017
  66.3469987  68.4005006  84.5605017  65.1079987  69.3545006  86.0095017
  64.7169987  70.3695006  85.9375017  64.0039987  68.3745006  85.6005017
  64.4419987  67.4305006  85.2755017  63.3299987  68.1925006  86.4375017
  63.1539987  68.8675006  84.4635017  62.1509987  69.7945006  84.6895017
  61.9869987  70.1635006  85.7015017  61.3619987  70.2525006  83.6495017
  60.5739987  70.9815006  83.8405017  61.5739987  69.7835006  82.3645017
  60.9559987  70.1435006  81.5415017  62.5699987  68.8575006  82.1255017
  62.7399987  68.4825006  81.1165017  63.3529987  68.4055006  83.1715017
  64.1409987  67.6755006  82.9865017  65.4999987  69.1475006  87.4655017
  64.9979987  69.8285006  88.3485017  66.4089987  68.2125006  87.7015017
  66.7859987  67.6785006  86.9315017  66.8899987  67.9225006  89.0405017
  66.0629987  67.5105006  89.6195017  67.6849987  67.1805006  88.9645017
  67.4249987  69.1465006  89.7495017  67.2289987  69.3005006  90.9565017
  68.1049987  70.0195006  89.0065017  68.3449987  69.8045006  88.0495017
  68.6189987  71.2575006  89.5885017  69.0189987  71.0475006  90.5805017
  69.7359987  71.8725006  88.7285017  70.0919987  72.7515006  89.2665017
  70.5319987  71.1305006  88.6785017  69.3259987  72.2725006  87.3185017
  69.4809987  71.4015006  86.6815017  68.2639987  72.5145006  87.3505017
  70.2349987  73.6785006  86.6345017  69.6039987  75.0355006  87.6235017
  69.8239987  74.8525006  88.6755017  70.0779987  75.9655006  87.3095017
  68.5249987  75.1145006  87.4875017  67.4719987  72.2455006  89.8285017
  67.4699987  72.9595006  90.8275017  66.4829987  72.2575006  88.9335017
  66.5309987  71.6695006  88.1135017  65.3239987  73.1415006  89.0875017
  65.6519987  74.1525006  89.3315017  64.4319987  73.1795006  87.8245017
  64.0669987  72.1735006  87.6195017  63.2479987  74.1175006  88.0305017
  63.6129987  75.1245006  88.2345017  62.6329987  74.1305006  87.1305017
  62.6509987  73.7695006  88.8735017  65.2359987  73.6035006  86.5855017
  66.1609987  73.0265006  86.6025017  64.6439987  73.3145006  85.7165017
  65.5639987  75.0795006  86.5045017  66.1559987  75.3685006  87.3725017
  66.1319987  75.2765006  85.5955017  64.6399987  75.6575006  86.4875017
  64.4839987  72.6865006  90.2765017  63.9169987  73.5135006  90.9755017
  64.4019987  71.3725006  90.4915017  64.7699987  70.7355006  89.7995017
  63.7569987  70.8065006  91.6905017  62.7639987  71.2405006  91.8025017
  63.6169987  69.2785006  91.5915017  64.5299987  68.8475006  91.1795017
  63.4279987  68.8535006  92.5775017  62.4949987  68.8285006  90.7085017
  62.5979987  68.1675006  89.5175017  63.6049987  67.9365006  89.1695017
  61.3519987  67.9295006  88.9985017  61.1559987  67.4575006  88.1275017
  60.4149987  68.4365006  89.8545017  59.0289987  68.4385006  89.7595017
  58.5639987  67.9775006  88.8885017  58.3309987  69.0255006  90.7765017
  57.2419987  69.0455006  90.7395017  58.9879987  69.6085006  91.8775017
  58.4209987  70.0755006  92.6825017  60.3649987  69.6065006  91.9715017
  60.8289987  70.0765006  92.8385017  61.1009987  69.0095006  90.9455017
  64.5449987  71.1485006  92.9505017  63.9639987  71.4125006  94.0025017
  65.8679987  71.1265006  92.8365017  66.2959987  70.8045006  91.9795017
  66.7369987  71.5275006  93.9335017  66.4529987  70.9985006  94.8435017
  68.1949987  71.1935006  93.6085017  68.2869987  70.1355006  93.3615017
  68.5519987  71.7935006  92.7715017  69.1259987  71.4485006  94.7445017
  69.3999987  70.6085006  95.7755017  68.8889987  69.6455006  95.7725017
  70.2999987  71.1845006  96.6305017  70.6659987  70.7625006  97.4725017
  70.6219987  72.4305006  96.1605017  71.4869987  73.4005006  96.6845017
  72.0139987  73.1795006  97.6125017  71.6169987  74.5765006  95.9905017
  72.2819987  75.3535006  96.3665017  70.9079987  74.8045006  94.7975017
  71.0169987  75.7405006  94.2495017  70.0469987  73.8425006  94.2815017
  69.5159987  74.0695006  93.3575017  69.8979987  72.6295006  94.9705017
  66.6019987  73.0205006  94.2035017  66.6589987  73.4695006  95.3535017
  66.4219987  73.7795006  93.1295017  66.3239987  73.3465006  92.2225017
  66.4199987  75.2285006  93.2035017  67.2659987  75.5705006  93.8005017
  66.5339987  75.8335006  91.8005017  67.1559987  75.1255006  91.2525017
  65.5379987  75.8585006  91.3595017  67.1569987  77.2195006  91.7245017
  66.5129987  77.9315006  92.2405017  68.5269987  77.2085006  92.3805017
  69.1719987  76.4965006  91.8645017  68.9659987  78.2045006  92.3225017
  68.4269987  76.9165006  93.4255017  67.2509987  77.6705006  90.2755017
  66.2529987  77.7025006  89.8385017  67.6979987  78.6635006  90.2315017
  67.8699987  76.9695006  89.7155017  65.1649987  75.7315006  93.9025017
  65.2459987  76.6205006  94.7495017  64.0129987  75.1525006  93.5565017
  63.9959987  74.4565006  92.8245017  62.7549987  75.4965006  94.2145017
  62.5679987  76.5605006  94.0695017  61.5459987  74.6825006  93.6845017
  61.7409987  73.6195006  93.8265017  60.2859987  75.0695006  94.4345017
  60.0899987  76.1325006  94.2925017  59.4439987  74.4915006  94.0535017
  60.4169987  74.8635006  95.4965017  61.3029987  74.8975006  92.1855017
  62.2689987  74.8025006  91.6905017  60.6439987  74.0955006  91.8525017
  60.6859987  76.2355006  91.8345017  61.3439987  77.0385006  92.1665017
  60.5499987  76.3015006  90.7555017  59.7189987  76.3315006  92.3285017
  62.9149987  75.2075006  95.7025017  62.5119987  76.0035006  96.5465017
  63.5189987  74.0635006  96.0125017  63.7969987  73.4285006  95.2785017
  63.7329987  73.6555006  97.3985017  62.7719987  73.7025006  97.9105017
  64.2469987  72.2235006  97.4585017  65.2129987  72.1625006  96.9575017
  64.3589987  71.9205006  98.4995017  63.5379987  71.5615006  96.9615017
  64.6889987  74.5875006  98.1305017  64.5879987  74.7385006  99.3405017
  65.6169987  75.1965006  97.3985017  65.6619987  75.0225006  96.4045017
  66.6079987  76.0905006  97.9905017  66.9329987  75.6975006  98.9545017
  67.8289987  76.2125006  97.0755017  68.1989987  75.2055006  96.8825017
  67.4809987  76.6555006  96.1425017  68.9479987  77.0605006  97.6515017
  69.5339987  76.7305006  98.8715017  69.1729987  75.8525006  99.4065017
  70.5559987  77.4945006  99.4055017  71.0049987  77.2245006 100.3615017
  71.0109987  78.6035006  98.7165017  72.0239987  79.3565006  99.2565017
  72.3309987  79.0205006 100.1015017  70.4499987  78.9535006  97.5015017
  70.8079987  79.8295006  96.9605017  69.4269987  78.1835006  96.9735017
  68.9829987  78.4505006  96.0145017  66.0359987  77.4745006  98.2465017
  66.1739987  78.0175006  99.3435017  65.4029987  78.0355006  97.2225017
  65.3239987  77.5215006  96.3565017  64.8499987  79.3895006  97.2795017
  65.5859987  80.0955006  97.6645017  64.3759987  79.8515006  95.8835017
  63.7199987  79.0875006  95.4665017  63.6229987  81.1735006  95.9715017
  64.2779987  81.9385006  96.3885017  63.3009987  81.4755006  94.9755017
  62.7509987  81.0535006  96.6145017  65.5799987  79.9765006  94.9355017
  66.0469987  80.9415006  95.1315017  66.2769987  79.1785006  95.1915017
  65.2179987  79.8795006  93.4695017  64.5209987  80.6775006  93.2135017
  66.1199987  79.9765006  92.8645017  64.7519987  78.9145006  93.2725017
  63.6889987  79.4515006  98.2655017  63.4869987  80.4645006  98.9335017
  62.9359987  78.3585006  98.3445017  63.1069987  77.6035006  97.6955017
  61.8379987  78.2175006  99.2965017  61.1659987  79.0735006  99.2315017
  61.0449987  76.9445006  98.9695017  60.7589987  77.0195006  97.9205017
  61.7339987  76.1095006  99.0985017  59.8089987  76.7135006  99.8135017
  60.1149987  76.5295006 100.8435017  59.1839987  77.6055006  99.7745017
  59.0239987  75.5245006  99.3005017  58.5049987  75.8005006  98.3825017
  59.7059987  74.6995006  99.0975017  58.0389987  75.0855006 100.2805017
  58.2839987  74.2875006 100.8495017  56.8529987  75.6605006 100.4685017
  56.4809987  76.7105006  99.7405017  57.1039987  77.0785006  99.0355017
  55.5779987  77.1345006  99.8965017  56.0289987  75.1835006 101.3955017
  56.3059987  74.3875006 101.9525017  55.1289987  75.6185006 101.5395017
  62.3299987  78.1715006 100.7465017  61.6149987  78.5885006 101.6525017
  63.5439987  77.6615006 100.9555017  64.0979987  77.3765006 100.1605017
  64.1139987  77.4945006 102.2955017  65.1889987  77.6625006 102.2255017
  63.6709987  78.2495006 102.9445017  63.8659987  76.1195006 102.8955017
  64.0909987  75.9175006 104.0865017  63.3999987  75.1755006 102.0715017
  63.1799987  75.4205006 101.1165017  63.1789987  73.7885006 102.5035017
  62.4319987  73.7745006 103.2965017  62.6839987  72.9075006 101.3475017
  63.3889987  73.0445006 100.5275017  62.7019987  71.8665006 101.6715017
  61.2839987  73.2675006 100.8775017  60.5779987  74.0245006 101.5675017
  60.8739987  72.7655006  99.8105017  64.4629987  73.1855006 103.0455017
  64.4509987  72.4475006 104.0345017  65.5679987  73.5165006 102.3865017
  65.5059987  74.1435006 101.5965017  66.8729987  72.9885006 102.7465017
  66.8639987  71.9005006 102.6765017  67.9469987  73.5305006 101.8005017
  67.9769987  74.6105006 101.9485017  68.8929987  73.0945006 102.1205017
  67.7199987  73.2255006 100.3205017  66.6919987  73.5055006 100.0925017
  68.4029987  73.8615006  99.7565017  67.9839987  71.5065006  99.8475017
  69.7449987  71.3405006 100.1595017  69.9489987  71.5405006 101.2115017
  70.0639987  70.3275006  99.9145017  70.2929987  72.0525006  99.5425017
  67.2069987  73.3755006 104.1775017  67.6499987  72.5435006 104.9575017
  66.9669987  74.6375006 104.5215017  66.5799987  75.2715006 103.8375017
  67.3469987  75.1765006 105.8325017  68.3829987  74.9185006 106.0515017
  67.2089987  76.7055006 105.8445017  66.2179987  76.9595006 105.4685017
  67.3009987  77.0395006 106.8785017  68.2669987  77.3945006 104.9925017
  68.2409987  77.2685006 103.7455017  69.1279987  78.0715006 105.5815017
  66.5749987  74.5555006 107.0045017  67.1289987  74.3925006 108.0925017
  65.3049987  74.2185006 106.7805017  64.8669987  74.4715006 105.9065017
  64.4959987  73.5275006 107.7885017  65.0399987  73.4975006 108.7325017
  63.1629987  74.2455006 108.0155017  62.4679987  74.0065006 107.2105017
  62.7319987  73.9405006 108.9695017  63.2749987  75.7335006 108.0545017
  62.9149987  76.5295006 106.9905017  63.1209987  77.7955006 107.3035017
  62.8979987  78.5875006 106.5885017  63.5989987  77.8485006 108.5335017
  63.8489987  78.6865006 109.0395017  63.7049987  76.5705006 109.0245017
  64.0839987  76.4035006 110.0325017  64.2339987  72.0765006 107.3795017
  63.2609987  71.7795006 106.6835017  65.1309987  71.1855006 107.7905017
  66.0139987  71.5125006 108.1555017  64.9129987  69.7405006 107.6895017
  63.9899987  69.5435006 107.1435017  66.0889987  69.0325006 106.9845017
  66.9969987  69.1905006 107.5665017  65.8199987  67.5365006 106.8595017
  64.9129987  67.3775006 106.2765017  66.6609987  67.0565006 106.3595017
  65.6939987  67.1055006 107.8525017  66.3169987  69.6415006 105.5965017
  65.4689987  69.3505006 104.9765017  66.3219987  70.7245006 105.7195017
  67.6039987  69.2035006 104.9295017  67.5999987  68.1205006 104.8065017
  67.6879987  69.6795006 103.9525017  68.4519987  69.4945006 105.5495017
  64.7049987  69.1415006 109.0795017  64.1399987  68.0625006 109.2145017
  65.1679987  69.8495006 110.1075017  65.7309987  70.6685006 109.9285017
  64.9399987  69.4565006 111.4945017  64.9569987  68.3695006 111.5795017
  66.0349987  70.0365006 112.4005017  67.0109987  69.6925006 112.0575017
  65.9999987  71.1255006 112.3625017  65.8099987  69.5755006 113.8205017
  64.8349987  69.9185006 114.1655017  65.8459987  68.4865006 113.8585017
  66.8999987  70.1525006 114.7215017  66.6739987  71.2725006 115.2535017
  67.9469987  69.4675006 114.8705017  63.5609987  69.8995006 112.0025017
  63.1689987  69.5225006 113.1095017  62.8349987  70.6935006 111.2105017
  63.2159987  71.0065006 110.3295017  61.5109987  71.1795006 111.6065017
  61.3219987  70.9255006 112.6495017  61.4259987  72.6955006 111.4505017
  61.7619987  72.9445006 110.4435017  60.3839987  72.9935006 111.5695017
  62.2799987  73.4305006 112.4635017  62.0529987  73.2445006 113.6785017
  63.1729987  74.1985006 112.0445017  60.4059987  70.5075006 110.7955017
  60.3349987  70.6835006 109.5755017  59.5369987  69.7385006 111.4765017
  59.4909987  69.5535006 112.9425017  59.3729987  70.5255006 113.4215017
  60.4229987  69.0965006 113.2745017  58.3009987  68.6535006 113.1575017
  57.4499987  69.2515006 113.4825017  58.5399987  67.9155006 113.9235017
  58.0339987  67.9925006 111.8445017  56.9639987  67.7945006 111.7735017
  58.5859987  67.0695006 111.6685017  58.4369987  69.0455006 110.8135017
  58.8059987  68.6305006 109.8755017  57.2679987  69.9895006 110.5275017
  56.4579987  69.7235006 109.6305017  57.1779987  71.0645006 111.3095017
  57.7819987  71.1325006 112.1165017  56.2109987  72.1315006 111.0775017
  55.1969987  71.7595006 111.2245017  56.4599987  73.2745006 112.0625017
  56.0949987  74.2045006 111.6255017  55.9189987  73.0705006 112.9865017
  57.8449987  73.3965006 112.3435017  57.9839987  74.1175006 112.9625017
  56.3169987  72.6215006 109.6375017  55.3149987  72.7255006 108.9225017
  57.5469987  72.8995006 109.2195017  58.3109987  72.9015006 109.8805017
  57.8379987  73.2075006 107.8315017  57.2419987  74.0595006 107.5045017
  59.3169987  73.5565006 107.6735017  59.5709987  74.3885006 108.3305017
  59.9419987  72.6975006 107.9185017  59.6859987  73.9705006 106.3045017
  59.9299987  73.1535006 105.2495017  59.8469987  72.0815006 105.4285017
  60.2409987  73.8925006 104.1425017  60.4499987  73.5205006 103.2265017
  60.2159987  75.2185006 104.4745017  60.4639987  76.3505006 103.6965017
  60.7279987  76.2155006 102.6475017  60.3589987  77.5675006 104.3065017
  60.5459987  78.4745006 103.7325017  60.0169987  77.6785006 105.6505017
  59.9379987  78.6555006 106.1285017  59.7679987  76.5595006 106.4185017
  59.5009987  76.7055006 107.4645017  59.8669987  75.3025006 105.8305017
  57.5019987  71.9885006 106.9865017  57.8009987  70.8575006 107.3745017
  56.8629987  72.2195006 105.8435017  56.4699987  73.1325006 105.6635017
  56.6349987  71.1605006 104.8605017  57.2239987  70.2735006 105.0945017
  55.1419987  70.7545006 104.7725017  55.0799987  69.7535006 104.3465017
  54.4729987  70.7635006 106.1655017  54.5349987  71.7645006 106.5925017
  53.4269987  70.4745006 106.0685017  54.9849987  70.0585006 106.8195017
  54.4399987  71.6295006 103.8795017  53.5179987  71.3675006 103.8345017
  57.1779987  71.6375006 103.5005017  57.0249987  72.8055006 103.1505017
  57.8349987  70.7455006 102.7425017  58.0559987  69.3115006 102.9985017
  57.1789987  68.7475006 102.6815017  58.2209987  69.1555006 104.0645017
  59.2749987  68.9935006 102.1765017  58.9989987  68.2505006 101.4275017
  60.0349987  68.5775006 102.8375017  59.7569987  70.2605006 101.5385017
  60.0699987  70.0595006 100.5135017  60.5739987  70.7365006 102.0805017
  58.5319987  71.1715006 101.5375017  58.7599987  72.2315006 101.6515017
  57.7319987  70.9595006 100.2585017  56.6229987  70.4225006 100.3135017
  58.2969987  71.3865006  99.1235017  59.1669987  71.8985006  99.1585017
  57.7009987  71.1175006  97.8095017  56.6849987  71.5125006  97.7995017
  58.4829987  71.7545006  96.6655017  59.5429987  71.7805006  96.9195017
  58.3409987  71.1685006  95.7575017  58.0309987  73.4605006  96.3075017
  57.6859987  69.6415006  97.5675017  56.6579987  69.0885006  97.1915017
  58.8489987  69.0215006  97.7595017  59.6649987  69.5705006  97.9915017
  58.9989987  67.5815006  97.6385017  58.0449987  67.1035006  97.4175017
  60.0079987  67.2015006  96.5355017  60.9379987  67.7415006  96.7115017
  60.2829987  65.7015006  96.5375017  59.3529987  65.1605006  96.3605017
  60.9979987  65.4615006  95.7505017  60.6949987  65.4085006  97.5035017
  59.4949987  67.6385006  95.1725017  59.3539987  68.7195006  95.1665017
  60.2189987  67.3625006  94.4055017  58.5439987  67.1475006  94.9675017
  59.4819987  67.0395006  98.9685017  60.5799987  67.3705006  99.4045017
  58.6479987  66.2215006  99.6085017  57.7269987  66.0615006  99.2265017
  59.0099987  65.5435006 100.8415017  59.1869987  66.2885006 101.6175017
  57.9089987  64.5875006 101.3215017  57.9309987  63.6845006 100.7115017
  58.1269987  64.2205006 102.7765017  58.1039987  65.1235006 103.3865017
  57.3389987  63.5425006 103.1025017  59.0949987  63.7315006 102.8875017
  56.6299987  65.2155006 101.1875017  55.9449987  64.6145006 101.4885017
  60.2679987  64.7475006 100.5925017  60.3619987  64.0305006  99.6085017
  61.2349987  64.9065006 101.4875017  61.0819987  65.5655006 102.2375017
  62.5559987  64.2935006 101.3635017  63.1959987  64.6245006 102.1815017
  62.4439987  62.7695006 101.4165017  61.8509987  62.4185006 100.5725017
  63.4479987  62.3485006 101.3545017  61.7959987  62.2875006 102.6965017
  62.2669987  62.5905006 103.7895017  60.7039987  61.5465006 102.5675017
  60.2329987  61.1995006 103.3905017  60.3479987  61.3325006 101.6465017
  63.3589987  64.7625006 100.1415017  63.4059987  64.0885006  99.1175017
  63.9609987  65.9425006 100.2715017  63.6559987  66.5565006 101.0125017
  65.0129987  66.4105006  99.3725017  65.3339987  65.5865006  98.7355017
  64.5239987  67.5595006  98.4785017  63.8519987  68.1325006  99.1175017
  65.4059987  68.1575006  98.2505017  63.8059987  67.1965006  97.1805017
  62.8659987  66.6975006  97.4165017  63.5239987  68.4535006  96.3785017
  64.4639987  68.9525006  96.1425017  63.0119987  68.1875006  95.4535017
  62.8939987  69.1245006  96.9625017  64.6349987  66.2475006  96.3445017
  64.8189987  65.3325006  96.9075017  64.0979987  66.0075006  95.4265017
  65.5859987  66.7175006  96.0955017  66.1979987  66.8585006 100.2275017
  66.5429987  68.0415006 100.2745017  66.8189987  65.8985006 100.9035017
  66.4949987  64.9445006 100.8375017  67.9069987  66.1975006 101.8295017
  67.5579987  66.8955006 102.5905017  68.3999987  64.9205006 102.5235017
  68.5019987  64.1325006 101.7765017  69.3719987  65.1205006 102.9745017
  67.4499987  64.4405006 103.6095017  66.2289987  64.5695006 103.4865017
  68.0109987  63.8815006 104.6815017  67.4289987  63.5445006 105.4345017
  69.0159987  63.7975006 104.7355017  69.0879987  66.9295006 101.1925017
  69.7789987  67.6865006 101.8745017  69.3179987  66.7095006  99.8985017
  68.7129987  66.1015006  99.3645017  70.4479987  67.3385006  99.2145017
  70.5339987  68.3535006  99.6035017  71.3399987  66.7715006  99.4805017
  70.3329987  67.3975006  97.7025017  69.2379987  67.2975006  97.1415017
  71.4789987  67.5645006  97.0495017  72.3379987  67.6495006  97.5745017
  71.5359987  67.7205006  95.5995017  70.7069987  68.3415006  95.2605017
  72.8549987  68.3945006  95.1875017  72.9479987  69.3545006  95.6955017
  73.6919987  67.7535006  95.4655017  72.9959987  68.6715006  93.7105017
  74.1559987  69.2825006  93.2205017  74.9579987  69.5585006  93.9055017
  74.2859987  69.5385006  91.8505017  75.1889987  70.0145006  91.4685017
  73.2559987  69.1835006  90.9705017  73.3579987  69.3835006  89.9035017
  72.0969987  68.5725006  91.4595017  71.2949987  68.2965006  90.7745017
  71.9669987  68.3155006  92.8295017  71.0649987  67.8385006  93.2115017
  71.3499987  66.3855006  94.8675017  71.0249987  66.3765006  93.6835017
  71.5359987  65.2705006  95.5725017  71.7679987  65.3395006  96.5535017
  71.4169987  63.9305006  94.9765017  71.7549987  63.9065006  93.9405017
  72.2029987  62.8675006  95.7775017  71.7819987  62.8005006  96.7805017
  72.1179987  61.5005006  95.0975017  72.5399987  61.5665006  94.0945017
  72.6789987  60.7695006  95.6795017  71.0749987  61.1905006  95.0335017
  73.6499987  63.3005006  95.9755017  73.6759987  64.2425006  96.5225017
  74.1839987  62.5375006  96.5415017  74.1269987  63.4315006  95.0045017
  69.9649987  63.4825006  94.9305017  69.5019987  62.9725006  93.9155017
  69.2659987  63.6545006  96.0485017  69.7349987  63.9875006  96.8795017
  67.8539987  63.3135006  96.1425017  67.7209987  62.2395006  96.0135017
  67.3059987  63.7135006  97.5145017  66.2359987  63.9005006  97.4215017
  67.4709987  62.8895006  98.2095017  67.9479987  64.8775006  98.0025017
  67.5859987  65.1055006  98.8625017  67.0409987  63.9695006  95.0265017
  66.1159987  63.3575006  94.4955017  67.4009987  65.1995006  94.6625017
  68.1319987  65.6725006  95.1745017  66.7179987  65.9325006  93.5855017
  65.6579987  65.9525006  93.8405017  67.2249987  67.3625006  93.5045017
  68.2829987  67.3595006  93.2415017  66.6639987  67.9055006  92.7435017
  67.0929987  67.8505006  94.4705017  66.8549987  65.2615006  92.2305017
  65.8879987  65.1835006  91.4745017  68.0569987  64.7905006  91.9195017
  68.8469987  64.9845006  92.5185017  68.2899987  64.0415006  90.6855017
  68.0279987  64.6565006  89.8245017  69.7659987  63.6445006  90.5725017
  70.4059987  64.5165006  90.7075017  70.0049987  62.8985006  91.3305017
  70.1339987  63.0425006  89.2455017  70.0009987  63.7795006  88.0825017
  69.6229987  64.8005006  88.1425017  70.3409987  63.2375006  86.8525017
  70.2319987  63.8355006  85.9475017  70.8169987  61.9435006  86.7725017
  71.0809987  61.5095006  85.8075017  70.9579987  61.1975006  87.9275017
  71.3339987  60.1765006  87.8725017  70.6209987  61.7475006  89.1555017
  70.7379987  61.1605006  90.0665017  67.3949987  62.7955006  90.6085017
  66.8219987  62.5065006  89.5595017  67.2739987  62.0765006  91.7275017
  67.7969987  62.3585006  92.5445017  66.4719987  60.8495006  91.8035017
  66.7269987  60.1895006  90.9745017  66.7449987  60.1125006  93.1185017
  66.8839987  60.9115006  93.8475017  65.8949987  59.4975006  93.4125017
  68.0049987  59.2475006  93.0645017  68.7469987  59.7825006  92.4725017
  68.5809987  58.9395006  94.4425017  67.8389987  58.4045006  95.0355017
  69.4729987  58.3225006  94.3345017  68.8429987  59.8715006  94.9445017
  67.7169987  57.9655006  92.2955017  67.4049987  58.2125006  91.2805017
  68.6179987  57.3525006  92.2595017  66.9209987  57.4125006  92.7945017
  64.9749987  61.1095006  91.6535017  64.2889987  60.3915006  90.9215017
  64.4729987  62.1225006  92.3565017  65.0439987  62.5975006  93.0405017
  63.0879987  62.5515006  92.1945017  62.4159987  61.7225006  92.4145017
  62.7709987  63.7015006  93.1455017  62.9009987  63.3875006  94.1815017
  63.4349987  64.5395006  92.9345017  61.3659987  64.2255006  93.0275017
  60.2959987  63.4965006  93.5185017  60.4869987  62.5305006  93.9855017
  59.0069987  63.9735006  93.4245017  58.1779987  63.3865006  93.8195017
  58.7659987  65.1935006  92.8315017  57.7469987  65.5725006  92.7525017
  59.8189987  65.9365006  92.3365017  59.6309987  66.9015006  91.8665017
  61.1139987  65.4555006  92.4375017  61.9459987  66.0445006  92.0515017
  62.8549987  62.9765006  90.7485017  61.8589987  62.6035006  90.1395017
  63.7929987  63.7385006  90.1965017  64.5639987  64.0775006  90.7545017
  63.7039987  64.1705006  88.8045017  62.8239987  64.8005006  88.6725017
  64.9439987  64.9715006  88.4025017  65.0389987  65.8285006  89.0685017
  65.8219987  64.3335006  88.5045017  64.8419987  65.4235006  87.0625017
  65.6289987  65.9225006  86.8325017  63.5059987  63.0065006  87.8365017
  62.7929987  63.1485006  86.8545017  64.1369987  61.8655006  88.1065017
  64.7189987  61.7855006  88.9275017  63.9889987  60.6945006  87.2465017
  63.9109987  61.0175006  86.2085017  65.1489987  59.7005006  87.3865017
  65.1869987  59.3335006  88.4125017  64.9459987  58.5275006  86.4355017
  64.9089987  58.8935006  85.4095017  65.7739987  57.8265006  86.5405017
  64.0099987  58.0225006  86.6745017  66.4929987  60.3695006  87.1035017
  66.6139987  60.4265006  86.0215017  66.4559987  61.3765006  87.5175017
  67.6649987  59.6185006  87.7045017  67.7029987  58.6115006  87.2905017
  68.5919987  60.1425006  87.4695017  67.5439987  59.5615006  88.7865017
  62.7259987  59.9635006  87.6345017  61.9089987  59.6405006  86.7785017
  62.5909987  59.6835006  88.9305017  63.3609987  59.8705006  89.5565017
  61.3839987  59.0765006  89.4805017  61.3499987  58.0205006  89.2115017
  61.3629987  59.1945006  91.0145017  61.6889987  60.2105006  91.2385017
  60.3199987  59.0755006  91.3075017  62.2269987  58.1985006  91.7915017
  61.8089987  57.2025006  91.6445017  63.2299987  58.2365006  91.3665017
  62.2959987  58.5085006  93.2975017  61.2599987  58.8995006  93.8985017
  63.3909987  58.3545006  93.8935017  60.1319987  59.7415006  88.8915017
  59.1239987  59.0815006  88.6745017  60.1959987  61.0425006  88.6285017
  61.0339987  61.5645006  88.8405017  59.0549987  61.7615006  88.0855017
  58.1359987  61.3535006  88.5055017  59.1359987  63.2525006  88.4395017
  59.9859987  63.6905006  87.9155017  57.8739987  63.9735006  88.0405017
  57.0239987  63.5365006  88.5645017  57.9589987  65.0285006  88.3025017
  57.7249987  63.8785006  86.9645017  59.3109987  63.3975006  89.8495017
  59.3619987  64.3305006  90.0715017  58.9189987  61.6185006  86.5665017
  57.8389987  61.3035006  86.0755017  60.0009987  61.8465006  85.8255017
  60.8869987  62.0435006  86.2695017  59.9239987  61.9215006  84.3595017
  58.9999987  62.4205006  84.0685017  61.1029987  62.7055006  83.7875017
  61.2339987  63.5885006  84.4125017  61.9829987  62.0675006  83.8725017
  60.9229987  63.1335006  82.3335017  60.3999987  62.3275006  81.8195017
  60.3059987  64.0325006  82.3205017  62.2389987  63.4125006  81.6285017
  62.8559987  64.4745006  81.8885017  62.6489987  62.5625006  80.8035017
  59.8249987  60.5555006  83.6865017  59.1439987  60.4275006  82.6735017
  60.4999987  59.5455006  84.2345017  61.1489987  59.7215006  84.9885017
  60.2689987  58.1495006  83.8225017  60.3729987  58.0595006  82.7415017
  61.2369987  57.1685006  84.4905017  60.8589987  56.1555006  84.3525017
  62.6229987  57.2775006  83.8855017  63.0009987  58.2905006  84.0235017
  63.2909987  56.5705006  84.3775017  62.5739987  57.0495006  82.8205017
  61.2899987  57.4425006  85.8945017  61.8959987  56.8295006  86.3175017
  58.9049987  57.7025006  84.2665017  58.3629987  56.7365006  83.7495017
  58.3819987  58.4105006  85.2595017  58.9609987  59.1345006  85.6605017
  57.0999987  58.1225006  85.8895017  56.8859987  58.8485006  86.6735017
  55.8999987  58.0995006  84.8895017  54.9839987  58.2715006  85.4545017
  56.0359987  59.1665006  83.8015017  56.9519987  58.9945006  83.2355017
  55.1789987  59.1125006  83.1295017  56.0739987  60.1535006  84.2625017
  55.7619987  56.8035006  84.2855017  55.0199987  56.8115006  83.6755017
  57.1939987  56.8305006  86.7055017  56.2199987  56.0655006  86.7815017
  58.3529987  56.5835006  87.3145017  59.1749987  57.1175006  87.0725017
  58.4959987  55.4875006  88.2695017  57.8729987  54.6615006  87.9265017
  59.9519987  55.0115006  88.4005017  60.5689987  55.8465006  88.7325017
  60.0529987  53.8775006  89.4035017  59.4369987  53.0425006  89.0715017
  61.0909987  53.5535006  89.4835017  59.7039987  54.2215006  90.3775017
  60.4589987  54.5115006  87.0475017  59.9729987  53.5545006  86.8575017
  60.1389987  55.2365006  86.2985017  61.9609987  54.3375006  86.9715017
  62.2819987  53.6125006  87.7195017  62.2359987  53.9805006  85.9795017
  62.4479987  55.2945006  87.1605017  57.9089987  55.9735006  89.6035017
  57.0619987  55.3025006  90.1995017  58.3169987  57.1605006  90.0365017
  59.1019987  57.6025006  89.5805017  57.6779987  57.8615006  91.1495017
  58.2889987  58.7315006  91.3905017  56.6939987  58.1905006  90.8145017
  57.5169987  57.0155006  92.3905017  56.4039987  56.8745006  92.9005017
  58.6269987  56.4495006  92.8715017  59.4959987  56.5875006  92.3755017
  58.6289987  55.5655006  94.0555017  58.1299987  54.6295006  93.8065017
  60.0619987  55.2495006  94.5235017  60.5759987  56.2095006  94.5805017
  59.9919987  54.8155006  95.5215017  60.8409987  54.3105006  93.6165017
  60.4129987  53.0035006  93.3945017  59.5009987  52.6555006  93.8795017
  61.1289987  52.1495006  92.5715017  60.7829987  51.1295006  92.4015017
  62.2979987  52.5985006  91.9625017  63.0259987  51.7645006  91.1375017
  62.6379987  50.8905006  91.0495017  62.7409987  53.8885006  92.1755017
  63.6539987  54.2435006  91.6985017  62.0199987  54.7305006  92.9985017
  62.3689987  55.7475006  93.1775017  57.8249987  56.1485006  95.2235017
  57.2219987  55.4035006  95.9935017  57.7899987  57.4695006  95.3335017
  58.3849987  58.0515006  94.7605017  56.8989987  58.1165006  96.2775017
  56.7199987  59.1315006  95.9235017  55.9599987  57.5625006  96.2815017
  57.4429987  58.1755006  97.6915017  56.6899987  58.4265006  98.6365017
  58.7399987  57.9265006  97.8555017  59.2749987  57.4545006  97.1405017
  59.4229987  58.3225006  99.0835017  58.7819987  58.1115006  99.9395017
  60.7299987  57.5625006  99.2565017  60.4709987  56.5115006  99.1275017
  61.4069987  57.8695006  98.4595017  61.4099987  57.7545006 100.5995017
  62.1499987  58.9005006 100.8735017  62.2219987  59.6705006 100.1055017
  62.7879987  59.0745006 102.0915017  63.3579987  59.9815006 102.2915017
  62.6979987  58.0925006 103.0515017  63.3329987  58.2725006 104.2565017
  63.8009987  59.1085006 104.3125017  61.9769987  56.9395006 102.8035017
  61.9059987  56.1625006 103.5645017  61.3429987  56.7735006 101.5815017
  60.7809987  55.8625006 101.3785017  59.6739987  59.8115006  98.9435017
  59.5779987  60.5585006  99.9125017  59.9849987  60.2305006  97.7165017
  60.1899987  59.5445006  97.0035017  60.0319987  61.6375006  97.3535017
  60.2159987  62.2315006  98.2485017  61.1419987  61.9265006  96.3375017
  60.9669987  61.2525006  95.4985017  60.9929987  62.9565006  96.0125017
  62.5629987  61.7545006  96.8355017  63.2439987  62.1795006  96.0985017
  62.6679987  62.2905006  97.7785017  62.8959987  60.2955006  97.0455017
  62.8839987  60.0855006  98.1155017  62.1379987  59.6905006  96.5485017
  64.1969987  59.9365006  96.5165017  64.6499987  60.6025006  95.9075017
  64.8179987  58.7895006  96.7755017  64.2799987  57.8725006  97.5775017
  63.3799987  58.0435006  98.0035017  64.7739987  57.0105006  97.7565017
  65.9999987  58.5625006  96.2305017  66.4159987  59.2575006  95.6275017
  66.4819987  57.6955006  96.4195017  58.6809987  61.9755006  96.7345017
  58.3729987  61.5125006  95.6325017  57.8769987  62.7655006  97.4405017
  58.2079987  63.1765006  98.3015017  56.5299987  63.0995006  96.9875017
  56.3529987  62.7455006  95.9715017  55.4559987  62.5075006  97.9065017
  55.4119987  63.0845006  98.8305017  54.1009987  62.5575006  97.2115017
  54.1439987  61.9805006  96.2885017  53.3399987  62.1355006  97.8675017
  53.8479987  63.5925006  96.9805017  55.8109987  61.0865006  98.3035017
  56.7649987  61.0835006  98.8305017  55.0349987  60.6865006  98.9555017
  55.8889987  60.4675006  97.4095017  56.3019987  64.5895006  97.0015017
  56.6449987  65.2545006  97.9605017  55.6849987  65.1025006  95.9485017
  55.5349987  64.5295006  95.1305017  55.3349987  66.5185006  95.8755017
  56.0809987  67.1955006  96.2915017  55.0409987  66.9145006  94.4005017
  55.9639987  66.8185006  93.8285017  53.9649987  66.0255006  93.7825017
  53.0419987  66.1205006  94.3545017  53.7869987  66.3325006  92.7515017
  54.2969987  64.9875006  93.7995017  54.7139987  68.4035006  94.2665017
  53.6619987  68.5345006  94.5185017  55.3289987  68.9425006  94.9865017
  54.9709987  68.9475006  92.8765017  54.3559987  68.4095006  92.1555017
  54.7189987  70.0075006  92.8485017  56.0229987  68.8175006  92.6235017
  54.1809987  66.8005006  96.8625017  53.5949987  65.8575006  97.3895017
  53.8929987  68.0705006  97.1685017  54.4919987  68.8165006  96.8455017
  52.7869987  68.4085006  98.0955017  52.0149987  67.6395006  98.0505017
  53.2699987  68.5465006  99.5775017  52.5259987  69.1135006 100.1365017
  53.4549987  67.1775006 100.2215017  54.1999987  66.6105006  99.6625017
  53.7909987  67.3025006 101.2505017  52.5069987  66.6395006 100.2115017
  54.5049987  69.2685006  99.6475017  54.7819987  69.3405006 100.5635017
  51.9739987  69.6525006  97.6875017  52.2669987  70.2895006  96.6725017
  50.9329987  69.9475006  98.4795017  50.7399987  69.3105006  99.2395017
  50.0869987  71.1505006  98.3425017  49.6289987  71.1585006  97.3535017
  48.9709987  71.1765006  99.4015017  49.4429987  71.4075006 100.3565017
  48.2759987  71.9735006  99.1375017  48.2209987  69.8745006  99.5145017
  48.0969987  69.1635006  98.4965017  47.7439987  69.5705006 100.6305017
  50.8439987  72.4595006  98.5485017  50.5699987  73.4495006  97.8765017
  51.7629987  72.4545006  99.5105017  51.9929987  71.5685006  99.9385017
  52.3649987  73.6655006 100.0595017  51.6079987  74.2825006 100.5425017
  53.4129987  73.2745006 101.0995017  52.9699987  72.5905006 101.8235017
  54.2519987  72.7855006 100.6045017  53.9069987  74.5255006 101.8185017
  54.3499987  75.2095006 101.0955017  53.0689987  75.0145006 102.3145017
  54.9539987  74.1355006 102.8565017  54.5109987  73.4505006 103.5795017
  55.7929987  73.6465006 102.3605017  55.4479987  75.3855006 103.5765017
  55.8909987  76.0705006 102.8535017  54.6089987  75.8745006 104.0725017
  56.4569987  75.0095006 104.5775017  57.2339987  74.5565006 104.1185017
  56.7839987  75.8385006 105.0535017  56.0459987  74.3755006 105.2475017
  52.9699987  74.6725006  99.0565017  52.9699987  75.8735006  99.3355017
  53.4859987  74.2185006  97.9135017  53.5839987  73.2275006  97.7435017
  53.9799987  75.1555006  96.8895017  53.7599987  76.1755006  97.2035017
  55.4859987  75.0245006  96.6785017  55.8279987  75.8085006  96.0035017
  55.9969987  75.1215006  97.6365017  56.0209987  73.4225006  96.0375017
  53.2849987  74.9725006  95.5455017  53.1949987  73.8585006  95.0355017
  52.7839987  76.0755006  94.9665017  52.5929987  77.4195006  95.5465017
  53.5329987  77.7625006  95.9795017  51.8319987  77.3715006  96.3245017
  52.1599987  78.2535006  94.3715017  53.0249987  78.7635006  93.9485017
  51.4279987  78.9915006  94.6995017  51.5569987  77.3045006  93.3955017
  51.7229987  77.7155006  92.3995017  50.4959987  77.0955006  93.5295017
  52.3669987  76.0205006  93.5685017  51.7899987  75.1105006  93.4055017
  53.5869987  76.0215006  92.6475017  53.5049987  75.5535006  91.5125017
  54.7069987  76.5405006  93.1515017  54.6869987  76.9425006  94.0775017
  55.9479987  76.6195006  92.3905017  55.7989987  77.2285006  91.4995017
  57.0579987  77.2605006  93.2445017  57.1779987  76.6435006  94.1355017
  57.9759987  77.2315006  92.6565017  56.7629987  78.7055006  93.6605017
  56.4909987  79.2585006  92.7615017  55.9059987  78.6615006  94.3325017
  57.9249987  79.4125006  94.3615017  59.0999987  79.0235006  94.1605017
  57.6619987  80.3805006  95.1115017  56.3589987  75.2325006  91.8945017
  56.8259987  75.0785006  90.7685017  56.1519987  74.2215006  92.7355017
  55.7629987  74.4065006  93.6485017  56.4699987  72.8375006  92.3845017
  57.4679987  72.8245006  91.9465017  56.4689987  72.2505006  93.3035017
  55.4909987  72.2195006  91.4025017  55.8939987  71.5095006  90.4755017
  54.2039987  72.4905006  91.5965017  53.9209987  73.0825006  92.3645017
  53.1619987  71.8945006  90.7585017  53.2539987  70.8085006  90.7815017
  51.7439987  72.2995006  91.2155017  51.6599987  73.3865006  91.1985017
  50.6969987  71.6945006  90.2845017  50.7799987  70.6075006  90.3005017
  49.7009987  71.9875006  90.6175017  50.8609987  72.0555006  89.2695017
  51.4939987  71.8375006  92.6545017  51.5559987  70.7495006  92.6555017
  52.2979987  72.2475006  93.2655017  50.1599987  72.2665006  93.2225017
  49.3559987  71.8565006  92.6115017  50.0639987  71.8985006  94.2435017
  50.0969987  73.3545006  93.2215017  53.3509987  72.2695006  89.2885017
  53.2619987  71.4135006  88.4075017  53.6149987  73.5475006  89.0315017
  53.5749987  74.2275006  89.7775017  53.8339987  74.0295006  87.6605017
  53.0819987  73.6095006  86.9925017  53.8189987  75.5815006  87.5485017
  54.1639987  75.8665006  86.5545017  52.4139987  76.1245006  87.7725017
  52.0679987  75.8405006  88.7665017  52.4259987  77.2115006  87.6895017
  51.7399987  75.7115006  87.0215017  54.7969987  76.2405006  88.5335017
  54.4069987  77.2355006  88.7455017  54.7779987  75.6415006  89.4435017
  56.2229987  76.3535006  88.0335017  56.2429987  76.9525006  87.1235017
  56.8389987  76.8305006  88.7955017  56.6139987  75.3585006  87.8215017
  55.1049987  73.4645006  87.0275017  55.2349987  73.4725006  85.8055017
  56.0349987  72.9775006  87.8505017  55.9549987  73.1015006  88.8495017
  57.2029987  72.2815006  87.3335017  57.5529987  72.7955006  86.4385017
  58.3389987  72.2355006  88.3435017  58.5909987  73.2805006  88.5245017
  57.9909987  71.7805006  89.2705017  59.5809987  71.4895006  87.8435017
  59.3169987  70.4395006  87.7185017  60.0969987  72.0435006  86.5205017
  60.3619987  73.0935006  86.6445017  60.9769987  71.4815006  86.2095017
  59.3209987  71.9525006  85.7605017  60.6589987  71.5505006  88.9105017
  60.2929987  71.0825006  89.8245017  61.5459987  71.0215006  88.5625017
  60.9129987  72.5915006  89.1125017  56.8209987  70.8705006  86.9535017
  57.0259987  70.4695006  85.8095017  56.2709987  70.1185006  87.9085017
  56.1949987  70.4685006  88.8525017  55.7699987  68.7705006  87.6245017
  56.6089987  68.0795006  87.5415017  54.8469987  68.2845006  88.7355017
  55.4749987  68.2755006  89.6265017  54.0409987  69.0065006  88.8665017
  54.2499987  66.8865006  88.5155017  54.0269987  66.7615006  87.4555017
  55.2239987  65.8105006  88.9575017  55.4469987  65.9345006  90.0175017
  54.7809987  64.8285006  88.7925017  56.1449987  65.8945006  88.3805017
  52.9319987  66.7335006  89.2485017  52.2229987  67.4765006  88.8815017
  52.5329987  65.7345006  89.0745017  53.0909987  66.8795006  90.3165017
  55.0019987  68.7835006  86.3135017  55.1149987  67.8685006  85.4965017
  54.2279987  69.8495006  86.1325017  54.1529987  70.5195006  86.8845017
  53.4379987  70.0695006  84.9315017  52.7749987  69.2225006  84.7525017
  52.5839987  71.3315006  85.1105017  52.3959987  71.3735006  86.1835017
  53.2199987  72.1675006  84.8205017  51.2599987  71.4165006  84.3595017
  51.4609987  71.5975006  83.3035017  50.4829987  70.1255006  84.5105017
  50.2809987  69.9435006  85.5665017  49.5399987  70.2025006  83.9685017
  51.0679987  69.2995006  84.1055017  50.4309987  72.5805006  84.8895017
  50.9809987  73.5115006  84.7515017  49.4869987  72.6325006  84.3465017
  50.2309987  72.4315006  85.9505017  54.3139987  70.1875006  83.6845017
  54.1949987  69.3825006  82.7545017  55.2039987  71.1745006  83.6835017
  55.2469987  71.8035006  84.4725017  56.1369987  71.3875006  82.5745017
  55.5739987  71.6675006  81.6845017  57.1639987  72.4875006  82.8985017
  57.5409987  72.3275006  83.9085017  58.3259987  72.4585006  81.9125017
  57.9499987  72.6185006  80.9025017  59.0369987  73.2455006  82.1645017
  58.8239987  71.4905006  81.9645017  56.5079987  73.8635006  82.8455017
  56.3539987  74.1145006  81.7965017  55.5429987  73.7875006  83.3465017
  57.3339987  74.9445006  83.5055017  58.2989987  75.0215006  83.0055017
  56.8109987  75.8975006  83.4325017  57.4879987  74.6945006  84.5555017
  56.9159987  70.1245006  82.2575017  57.0259987  69.7335006  81.1005017
  57.4769987  69.5175006  83.2995017  57.3629987  69.9145006  84.2215017
  58.2969987  68.3215006  83.1595017  59.1839987  68.5505006  82.5685017
  58.7409987  67.8105006  84.5295017  59.3189987  68.6075006  84.9975017
  57.8379987  67.6275006  85.1125017  59.5759987  66.5425006  84.4775017
  58.9229987  65.6935006  84.2735017  60.3049987  66.6415006  83.6725017
  60.3169987  66.2825006  85.7715017  61.5459987  66.1975006  85.7905017
  59.5749987  66.1625006  86.8645017  60.0179987  65.9885006  87.7555017
  58.5699987  66.2455006  86.8005017  57.5389987  67.2365006  82.4185017
  57.9389987  66.8435006  81.3295017  56.4339987  66.7815006  83.0015017
  56.1699987  67.1405006  83.9075017  55.6139987  65.7215006  82.4085017
  56.1399987  64.7685006  82.4555017  54.3009987  65.5925006  83.1795017
  53.7179987  66.5035006  83.0445017  53.7409987  64.7425006  82.7895017
  54.5579987  65.3955006  84.5615017  53.7259987  65.3165006  85.0335017
  55.3299987  65.9495006  80.9195017  55.4069987  65.0155006  80.1105017
  55.0269987  67.1985006  80.5695017  54.9399987  67.8995006  81.2915017
  54.7529987  67.5895006  79.1835017  54.0139987  66.9385006  78.7165017
  54.2419987  69.0515006  79.1105017  54.9309987  69.6885006  79.6665017
  54.1539987  69.5355006  77.6705017  53.4649987  68.8995006  77.1145017
  53.7929987  70.5635006  77.6535017  55.1409987  69.4905006  77.2105017
  52.8859987  69.1795006  79.7925017  52.9759987  68.8885006  80.8395017
  52.5439987  70.2125006  79.7305017  52.1659987  68.5285006  79.2965017
  55.9909987  67.4265006  78.2945017  55.9239987  66.7935006  77.2455017
  57.1089987  68.0105006  78.7185017  57.0859987  68.5765006  79.5545017
  58.3749987  67.9065006  77.9835017  58.1959987  68.1025006  76.9265017
  59.4049987  68.9135006  78.4995017  59.1289987  69.0575006  79.5445017
  60.3999987  68.4715006  78.4445017  59.4079987  70.2685006  77.7805017
  59.8119987  70.1105006  76.7805017  58.0209987  70.8955006  77.6745017
  57.6159987  71.0545006  78.6735017  58.0929987  71.8515006  77.1555017
  57.3619987  70.2295006  77.1175017  60.3619987  71.2225006  78.4845017
  61.3689987  70.8055006  78.4715017  60.3609987  72.1835006  77.9705017
  60.0409987  71.3625006  79.5165017  58.9449987  66.5065006  78.0755017
  59.6709987  66.0765006  77.1915017  58.6159987  65.8045006  79.1515017
  58.1059987  66.2505006  79.9005017  58.9659987  64.4005006  79.2965017
  60.0499987  64.2975006  79.2455017  58.6129987  64.0445006  80.2645017
  58.3399987  63.5605006  78.2045017  58.9349987  62.5925006  77.7565017
  57.1419987  63.9305006  77.7675017  55.9919987  64.9395006  78.2945017
  56.4399987  65.9275006  78.4035017  55.6569987  64.5835006  79.2685017
  54.8819987  64.9125006  77.2535017  55.0609987  65.6445006  76.4655017
  53.9099987  65.1005006  77.7085017  54.9659987  63.4925006  76.7205017
  54.5539987  63.4025006  75.7155017  54.4659987  62.7865006  77.3825017
  56.4649987  63.2085006  76.6935017  56.5899987  62.1395006  76.8675017
  57.0269987  63.5685006  75.3275017  57.1649987  62.7055006  74.4705017
  57.3519987  64.8395006  75.1285017  57.2299987  65.5125006  75.8725017
  57.8509987  65.3145006  73.8395017  57.2479987  64.9245006  73.0195017
  57.8649987  66.8575006  73.7795017  58.4269987  67.2345006  74.6335017
  58.5099987  67.3525006  72.4875017  57.9479987  66.9765006  71.6325017
  58.5059987  68.4425006  72.4735017  59.5379987  66.9925006  72.4325017
  56.4409987  67.4075006  73.9155017  55.9779987  67.3655006  72.9295017
  55.9009987  66.7515006  74.5985017  56.3909987  68.8275006  74.4355017
  56.9309987  69.4845006  73.7535017  55.3529987  69.1525006  74.5065017
  56.8529987  68.8705006  75.4215017  59.2599987  64.7915006  73.5645017
  59.5719987  64.4135006  72.4335017  60.1089987  64.7875006  74.5895017
  59.8349987  65.1815006  75.4785017  61.4749987  64.2855006  74.4455017
  61.9269987  64.6585006  73.5265017  62.3889987  64.6695006  75.6385017
  62.3469987  65.7515006  75.7625017  61.9599987  63.9935006  76.9355017
  62.0019987  62.9115006  76.8125017  62.6299987  64.2935006  77.7415017
  60.9409987  64.2915006  77.1815017  63.8319987  64.3165006  75.3325017
  64.1589987  64.8595006  74.4455017  64.4609987  64.5915006  76.1785017
  63.9139987  63.2445006  75.1525017  61.4559987  62.7765006  74.2685017
  62.1659987  62.2415006  73.4275017  60.6169987  62.1055006  75.0495017
  60.0559987  62.6105006  75.7205017  60.5119987  60.6595006  75.0145017
  61.4939987  60.2085006  75.1585017  59.5899987  60.1815006  76.1245017
  60.0029987  60.4565006  77.0945017  58.6249987  60.6695006  75.9895017
  59.3839987  58.6975006  76.0945017  58.2679987  58.2175006  75.9025017
  60.4649987  57.9555006  76.2575017  60.3889987  56.9485006  76.2465017
  61.3619987  58.3985006  76.3925017  60.0079987  60.1635006  73.6615017
  60.4949987  59.1605006  73.1445017  59.0399987  60.8735006  73.0895017
  58.5729987  61.6005006  73.6135017  58.5849987  60.5995006  71.7235017
  58.2149987  59.5755006  71.6705017  57.4589987  61.5445006  71.3285017
  57.8169987  62.5735006  71.3685017  57.1289987  61.3135006  70.3155017
  56.6239987  61.4235006  72.0185017  59.7419987  60.7215006  70.7395017
  60.1649987  59.7315006  70.1455017  60.2589987  61.9355006  70.5925017
  59.7979987  62.7165006  71.0355017  61.4229987  62.2075006  69.7375017
  61.1209987  62.2845006  68.6935017  62.0599987  63.5455006  70.1665017
  61.2959987  64.2955006  70.3685017  62.6379987  63.3635006  71.0725017
  63.0159987  64.1595006  69.1575017  63.2319987  63.6165006  67.8875017
  62.7059987  62.7075006  67.5965017  64.1109987  64.2275006  66.9975017
  64.2789987  63.7825006  66.0165017  64.7689987  65.3915006  67.3505017
  65.4539987  65.8695006  66.6505017  64.5549987  65.9475006  68.5935017
  65.0719987  66.8645006  68.8765017  63.6819987  65.3405006  69.4845017
  63.5049987  65.7865006  70.4635017  62.4689987  61.0695006  69.7415017
  62.8559987  60.5805006  68.6775017  62.8909987  60.6285006  70.9265017
  62.5079987  61.0275006  71.7715017  63.9739987  59.6395006  71.0505017
  64.7259987  59.8185006  70.2815017  64.6449987  59.7415006  72.4255017
  63.8719987  59.5455006  73.1685017  65.3969987  58.9535006  72.4675017
  65.3019987  61.0875006  72.7195017  64.5169987  61.8395006  72.6395017
  65.6559987  61.0405006  73.7495017  66.6799987  61.5475006  71.6365017
  65.8699987  62.6345006  70.4625017  65.4369987  63.4835006  70.9915017
  66.5989987  62.9935006  69.7355017  65.0809987  62.0885006  69.9455017
  63.5389987  58.1955006  70.7955017  64.1939987  57.4825006  70.0385017
  62.4629987  57.7505006  71.4355017  62.0109987  58.3135006  72.1425017
  61.9349987  56.4065006  71.1735017  62.7019987  55.6445006  71.3115017
  60.7369987  56.0675006  72.0795017  60.1489987  56.9735006  72.2275017
  59.8549987  54.9835006  71.4615017  60.4419987  54.0775006  71.3135017
  59.0199987  54.7705006  72.1285017  59.4729987  55.3295006  70.5005017
  61.2339987  55.6365006  73.4505017  61.8079987  56.4465006  73.9005017
  60.3819987  55.3975006  74.0875017  61.8679987  54.7555006  73.3475017
  61.5229987  56.2685006  69.7085017  61.8319987  55.2655006  69.0575017
  60.8189987  57.2745006  69.1975017  60.5009987  58.0215006  69.7975017
  60.4849987  57.3375006  67.7795017  59.7659987  56.5545006  67.5395017
  60.0519987  58.3105006  67.5505017  61.7269987  57.1405006  66.9375017
  61.7689987  56.2565006  66.0845017  62.7539987  57.9435006  67.2085017
  62.6499987  58.6645006  67.9085017  64.0199987  57.8585006  66.4845017
  63.8629987  58.1105006  65.4355017  65.0389987  58.8315006  67.0725017
  64.5519987  59.7585006  67.3755017  65.5399987  58.3865006  67.9325017
  66.3459987  59.3065006  65.9235017  66.9869987  60.1105006  66.7665017
  64.5959987  56.4455006  66.4935017  65.1149987  55.9835006  65.4835017
  64.4949987  55.7615006  67.6295017  64.1239987  56.2095006  68.4555017
  64.9379987  54.3665006  67.7345017  65.9669987  54.2815006  67.3865017
  64.8709987  53.8825006  69.1825017  63.8609987  54.0825006  69.5415017
  65.0449987  52.8065006  69.1695017  65.8769987  54.5465006  70.1055017
  65.8039987  55.6235006  69.9575017  65.5999987  54.3015006  71.1315017
  67.5729987  54.0215006  69.8085017  67.3949987  52.2535006  70.0285017
  66.6789987  51.8665006  69.3035017  68.3599987  51.7695006  69.8785017
  67.0379987  52.0465006  71.0375017  64.0949987  53.4385006  66.8725017
  64.6279987  52.6665006  66.0755017  62.7809987  53.5145006  67.0365017
  62.3859987  54.1415006  67.7225017  61.8809987  52.6585006  66.2875017
  62.0539987  51.6185006  66.5635017  60.4229987  53.0055006  66.5815017
  60.1879987  52.7585006  67.6165017  60.2369987  54.0655006  66.4105017
  59.4419987  52.2525006  65.7265017  59.1719987  50.9145006  65.9725017
  59.6749987  50.4125006  66.7995017  58.2729987  50.2155006  65.1795017
  58.0679987  49.1645006  65.3845017  57.6359987  50.8535006  64.1265017
  56.9289987  50.3075006  63.5025017  57.9009987  52.1895006  63.8685017
  57.4049987  52.6955006  63.0405017  58.7989987  52.8815006  64.6665017
  59.0089987  53.9325006  64.4665017  62.1489987  52.7495006  64.7885017
  62.2829987  51.7235006  64.1145017  62.2359987  53.9755006  64.2775017
  62.1379987  54.7765006  64.8845017  62.4469987  54.2095006  62.8465017
  61.6269987  53.7955006  62.2595017  62.5689987  55.7135006  62.5295017
  63.3169987  56.1505006  63.1905017  62.9809987  55.9355006  61.0815017
  62.2329987  55.4995006  60.4195017  63.0599987  57.0045006  60.8855017
  63.9459987  55.4615006  60.9015017  61.2559987  56.4225006  62.8035017
  60.9899987  56.3025006  63.8535017  61.3599987  57.4835006  62.5745017
  60.4729987  55.9915006  62.1795017  63.7159987  53.4975006  62.3895017
  63.7039987  52.7545006  61.4005017  64.7919987  53.7215006  63.1385017
  64.7009987  54.3025006  63.9595017  66.1129987  53.2105006  62.7975017
  66.3869987  53.5145006  61.7875017  67.1469987  53.7755006  63.7765017
  66.8649987  54.8095006  63.9765017  67.0679987  53.1935006  64.6945017
  68.5789987  53.7305006  63.2705017  68.9289987  52.6995006  63.3145017
  68.5909987  54.0745006  62.2365017  69.4929987  54.6125006  64.1085017
  69.2769987  55.6545006  63.8725017  69.2809987  54.4275006  65.1615017
  70.9559987  54.3235006  63.8295017  71.5549987  55.0875006  64.3255017
  71.1969987  53.3455006  64.2465017  71.2549987  54.3275006  62.3725017
  71.0329987  55.2335006  61.9855017  72.2349987  54.1315006  62.2295017
  70.6999987  53.6195006  61.9125017  66.1699987  51.6825006  62.8025017
  66.8579987  51.0725006  61.9805017  65.4579987  51.0615006  63.7365017
  64.9849987  51.5875006  64.4575017  65.3989987  49.6045006  63.7915017
  66.4039987  49.1975006  63.6825017  64.7849987  49.1115006  65.1225017
  63.8319987  49.6185006  65.2755017  64.5609987  47.6065006  65.0995017
  65.5139987  47.0995006  64.9465017  64.1289987  47.2885006  66.0485017
  63.8799987  47.3525006  64.2875017  65.7039987  49.4625006  66.2905017
  66.6179987  48.8805006  66.1675017  65.9359987  50.5245006  66.2095017
  65.1049987  49.1795006  67.6535017  64.8729987  48.1175006  67.7355017
  65.8189987  49.4555006  68.4295017  64.1919987  49.7615006  67.7775017
  64.6039987  49.0655006  62.5915017  65.0389987  48.1165006  61.9335017
  63.4619987  49.6915006  62.2975017  63.2019987  50.5105006  62.8285017
  62.5239987  49.1925006  61.2815017  62.5419987  48.1025006  61.2545017
  61.0999987  49.6515006  61.6245017  60.4019987  49.1215006  60.9765017
  60.8959987  49.3945006  62.6645017  60.9439987  51.0535006  61.4435017
  60.0449987  51.3065006  61.6655017  62.8479987  49.5945006  59.8295017
  62.2109987  49.0935006  58.8995017  63.8179987  50.4875006  59.6305017
  64.3189987  50.8695006  60.4195017  64.1249987  51.0105006  58.2905017
  63.2569987  51.5465006  57.9075017  65.3229987  51.9705006  58.3155017
  65.4629987  52.3175006  57.2915017  65.0329987  52.8105006  58.9465017
  66.6249987  51.3745006  58.8315017  66.4489987  50.9545006  59.8215017
  66.9489987  50.5845006  58.1545017  67.7279987  52.4075006  58.9335017
  67.8749987  53.2495006  58.0485017  68.5109987  52.3465006  60.0075017
  69.2609987  53.0135006  60.1205017  68.3519987  51.6335006  60.7045017
  64.3709987  49.9125006  57.2585017  65.0089987  48.9115006  57.5575017
  63.8769987  50.1155006  56.0325017  63.2579987  51.3635006  55.5585017
  63.9529987  52.1905006  55.7065017  62.3449987  51.5515006  56.1235017
  62.9869987  51.0915006  54.1095017  63.8209987  51.4505006  53.5065017
  62.0729987  51.6015006  53.8055017  62.8329987  49.6165006  53.9995017
  63.0659987  49.2365006  53.0045017  61.8219987  49.3165006  54.2755017
  63.8349987  49.0665006  55.0135017  63.4559987  48.1765006  55.5145017
  65.1589987  48.7375006  54.3245017  65.3409987  47.6045006  53.8905017
  66.0759987  49.6955006  54.2105017  65.8819987  50.6415006  54.5045017
  67.3749987  49.4135006  53.5815017  67.2289987  49.2735006  52.5105017
  68.3739987  50.5565006  53.7945017  69.3069987  50.2545006  53.3195017
  67.9709987  51.4295006  53.2815017  68.6359987  50.9015006  55.2495017
  67.6939987  51.2205006  55.6955017  68.9879987  50.0005006  55.7515017
  69.6709987  52.0055006  55.4065017  69.6699987  52.6015006  54.4945017
  69.3729987  52.6305006  56.2485017  71.0679987  51.4575006  55.6515017
  71.0089987  50.6485006  56.3795017  71.4669987  51.0725006  54.7135017
  71.9639987  52.5265006  56.1695017  71.5949987  52.8835006  57.0395017
  72.8859987  52.1455006  56.3265017  72.0189987  53.2755006  55.4945017
  67.9669987  48.1085006  54.0955017  68.6459987  47.4125006  53.3545017
  67.6899987  47.7835006  55.3555017  67.1659987  48.4375006  55.9195017
  68.1759987  46.5555006  55.9875017  69.2659987  46.5495006  56.0035017
  67.6649987  46.4705006  57.4285017  66.5839987  46.6045006  57.3885017
  67.8929987  45.4665006  57.7855017  68.2659987  47.4925006  58.3745017
  68.2279987  48.4705006  57.8955017  67.6699987  47.5115006  59.2865017
  69.7059987  47.1535006  58.7185017  69.7159987  46.3215006  59.4225017
  70.2289987  46.8645006  57.8075017  70.4009987  48.3515006  59.3425017
  70.2179987  49.2195006  58.7095017  69.9669987  48.5225006  60.3275017
  71.8659987  48.1375006  59.4775017  72.2689987  47.9795006  58.5645017
  72.2879987  48.9545006  59.8955017  72.0359987  47.3335006  60.0645017
  67.8049987  45.2745006  55.2335017  68.5979987  44.3445006  55.1655017
  66.6019987  45.2335006  54.6725017  65.9599987  45.9985006  54.8225017
  66.1569987  44.1035006  53.8555017  66.0529987  43.2175006  54.4815017
  64.8049987  44.4025006  53.2025017  64.1269987  44.6965006  54.0035017
  64.9599987  45.2465006  52.5305017  64.1999987  43.2415006  52.4265017
  63.3219987  43.6005006  51.8895017  64.9379987  42.8765006  51.7125017
  63.7969987  42.1135006  53.3575017  64.6819987  41.5415006  53.6375017
  63.3359987  42.5305006  54.2525017  62.8439987  41.2155006  52.7165017
  61.8699987  41.3785006  52.9285017  63.1559987  40.2145006  51.9005017
  64.4189987  39.9415006  51.5925017  65.1629987  40.5015006  51.9825017
  64.6289987  39.1745006  50.9695017  62.1829987  39.4835006  51.3775017
  61.2209987  39.6935006  51.6025017  62.4079987  38.7195006  50.7555017
  67.1629987  43.7885006  52.7705017  67.4109987  42.6255006  52.4765017
  67.7449987  44.8245006  52.1795017  67.4419987  45.7645006  52.3885017
  68.7679987  44.6385006  51.1525017  68.2479987  44.3285006  50.2465017
  69.4939987  45.9465006  50.8735017  70.0269987  46.2645006  51.7695017
  70.2049987  45.8015006  50.0605017  68.7699987  46.7115006  50.5915017
  69.7759987  43.5385006  51.5045017  70.3019987  42.8815006  50.6105017
  70.0369987  43.3455006  52.7985017  69.6619987  43.9955006  53.4755017
  70.9109987  42.2645006  53.2795017  71.9039987  42.3745006  52.8445017
  71.0379987  42.3085006  54.8115017  70.0249987  42.3155006  55.2135017
  71.5419987  41.3905006  55.1145017  71.8049987  43.5085006  55.3475017
  71.4169987  44.3895006  54.8365017  71.6039987  43.5905006  56.4155017
  73.3069987  43.4105006  55.1205017  73.9189987  42.3815006  55.5055017
  73.8829987  44.3755006  54.5645017  70.4589987  40.8605006  52.8545017
  71.2849987  39.9785006  52.6555017  69.1589987  40.6405006  52.7245017
  68.4849987  41.3325006  53.0185017  68.6659987  39.3475006  52.2585017
  69.4849987  38.6285006  52.2225017  67.5799987  38.8065006  53.1975017
  67.1569987  37.8955006  52.7745017  68.1829987  38.5015006  54.5535017
  68.6049987  39.4125006  54.9775017  67.4089987  38.1175006  55.2175017
  68.9689987  37.7545006  54.4425017  66.5399987  39.7775006  53.3445017
  65.8629987  39.4345006  53.9325017  68.1699987  39.4095006  50.8065017
  67.3269987  38.6065006  50.3925017  68.7069987  40.3675006  50.0465017
  69.2759987  41.0695006  50.4975017  68.5289987  40.4455006  48.6015017
  67.8789987  39.6375006  48.2655017  67.8939987  41.7755006  48.2135017
  68.5379987  42.5225006  48.6765017  67.9129987  41.9005006  47.1305017
  66.4629987  41.9515006  48.7215017  66.4589987  41.7685006  49.7955017
  65.9209987  43.3505006  48.4425017  65.9239987  43.5345006  47.3685017
  64.9019987  43.4285006  48.8215017  66.5499987  44.0895006  48.9385017
  65.5749987  40.8805006  48.1025017  65.9439987  39.8945006  48.3845017
  64.5529987  41.0025006  48.4625017  65.5909987  40.9775006  47.0165017
  69.9059987  40.3385006  47.9835017  70.7779987  41.1305006  48.3035017
  70.1109987  39.3635006  47.1095017  69.3639987  38.7365006  46.8465017
  71.4289987  39.1585006  46.5145017  72.1699987  39.8325006  46.9445017
  71.9259987  37.7145006  46.6785017  72.7189987  37.5275006  45.9545017
  72.4619987  37.4925006  48.0845017  71.6699987  37.6785006  48.8095017
  72.8099987  36.4645006  48.1835017  73.2909987  38.1755006  48.2695017
  70.8209987  36.7175006  46.3585017  70.4909987  36.8585006  45.3295017
  71.1989987  35.7025006  46.4825017  69.9809987  36.8765006  47.0345017
  71.4209987  39.4725006  45.0385017  70.4439987  39.2145006  44.3435017
  72.5209987  40.0355006  44.5645017  73.2269987  40.3965006  45.1905017
  72.7429987  40.1555006  43.1365017  71.8229987  39.9125006  42.6045017
  73.1619987  41.5685006  42.7635017  73.9849987  41.9025006  43.3945017
  73.4699987  41.6005006  41.7185017  72.0749987  42.5705006  42.9165017
  71.0349987  42.6125006  42.0105017  71.0219987  41.9085006  41.1785017
  70.0169987  43.5355006  42.1505017  69.1979987  43.5565006  41.4315017
  70.0369987  44.4345006  43.2035017  69.2389987  45.1685006  43.3145017
  71.0749987  44.3985006  44.1155017  71.0979987  45.1025006  44.9475017
  72.0859987  43.4665006  43.9705017  72.9029987  43.4325006  44.6915017
  73.8349987  39.1825006  42.7625017  74.7289987  38.9185006  43.5655017
  73.7599987  38.6475006  41.5485017  72.9649987  38.8315006  40.9535017
  74.7879987  37.7495006  41.0625017  74.9229987  36.9365006  41.7755017
  74.4139987  37.1545006  39.7105017  75.1309987  36.3705006  39.4655017
  73.4159987  36.7225006  39.7855017  74.4269987  38.1365006  38.6975017
  74.1879987  37.7345006  37.8595017  76.0879987  38.5195006  40.9715017
  76.0949987  39.7415006  40.8115017  77.1849987  37.7875006  41.0765017
  77.1089987  36.7805006  41.0915017  78.5029987  38.3805006  41.2205017
  78.4609987  39.2345006  41.8965017  79.5099987  37.3575006  41.7805017
  79.0729987  36.8965006  42.6655017  79.8509987  36.2675006  40.7505017
  80.2889987  36.7275006  39.8645017  80.5639987  35.5665006  41.1845017
  78.9419987  35.7345006  40.4705017  80.7069987  38.0345006  42.1575017
  81.3369987  37.3995006  42.5065017  78.9979987  38.9185006  39.8815017
  79.7969987  39.8535006  39.8315017  78.5129987  38.3125006  38.8025017
  77.8649987  37.5465006  38.9195017  78.8589987  38.7195006  37.4565017
  79.4829987  39.6135006  37.4795017  79.6329987  37.6055006  36.7745017
  79.0809987  36.6705006  36.8685017  79.7859987  37.8325006  35.7195017
  80.9839987  37.3635006  37.3595017  81.4089987  36.1125006  37.7485017
  82.6419987  36.1955006  38.2135017  83.1619987  35.3065006  38.5715017
  83.0289987  37.4565006  38.1435017  83.9259987  37.8185006  38.4335017
  82.0119987  38.2075006  37.6095017  82.1429987  39.2805006  37.4675017
  77.6209987  38.9965006  36.6245017  76.5429987  38.4785006  36.8955017
  77.7929987  39.8145006  35.6015017  78.6049987  40.4125006  35.5565017
  76.8339987  39.8815006  34.5255017  75.8669987  39.4395006  34.7645017
  76.6179987  41.3205006  34.1025017  77.5769987  41.7735006  33.8515017
  75.9639987  41.3495006  33.2315017  76.1579987  41.8745006  34.9205017
  77.4329987  39.0605006  33.3905017  78.6519987  39.0395006  33.2245017
  76.5899987  38.3775006  32.6205017  75.6019987  38.3705006  32.8315017
  77.0639987  37.5785006  31.4885017  78.1299987  37.7275006  31.3145017
  76.8019987  36.0685006  31.6835017  77.1759987  35.5285006  30.8135017
  77.5049987  35.5645006  32.9335017  77.1309987  36.1045006  33.8035017
  77.3099987  34.4995006  33.0565017  78.5779987  35.7285006  32.8385017
  75.3119987  35.7665006  31.7515017  74.8339987  36.0825006  30.8245017
  75.1639987  34.6955006  31.8895017  74.8699987  36.3045006  32.5895017
  76.4139987  38.0335006  30.1955017  75.3019987  38.5555006  30.2045017
  77.1219987  37.8435006  29.0845017  78.0809987  37.5345006  29.1555017
  76.5789987  38.1225006  27.7535017  75.5349987  38.4225006  27.8425017
  77.3759987  39.2375006  27.0325017  78.4399987  39.0405006  27.1625017
  77.0469987  39.2885006  25.5425017  75.9829987  39.4865006  25.4115017
  77.6249987  40.0825006  25.0695017  77.2979987  38.3335006  25.0815017
  77.0569987  40.5865006  27.6695017  75.9949987  40.7765006  27.5165017
  77.2599987  40.4985006  28.7365017  77.8589987  41.7295006  27.0975017
  77.6559987  41.8175006  26.0305017  77.5789987  42.6565006  27.5975017
  78.9219987  41.5405006  27.2505017  76.5849987  36.8385006  26.9285017
  77.6309987  36.2195006  26.7515017  75.4139987  36.4395006  26.4395017
  74.5639987  36.9075006  26.7195017  75.3079987  35.2815006  25.5565017
  76.1459987  35.2765006  24.8595017  75.3299987  33.9745006  26.3595017
  75.2089987  33.1455006  25.6625017  76.2989987  33.8955006  26.8525017
  74.2999987  33.9275006  27.3315017  74.3489987  33.0965006  27.8095017
  74.0559987  35.3605006  24.6975017  73.2039987  36.2215006  24.9085017
  73.9589987  34.4605006  23.7265017  74.6799987  33.7625006  23.6125017
  72.8619987  34.4855006  22.7635017  72.5739987  35.5165006  22.5555017
  73.2929987  33.8225006  21.4485017  73.7639987  32.8735006  21.7045017
  72.3889987  33.6345006  20.8695017  74.2589987  34.6615006  20.6225017
  75.0539987  35.0145006  21.2795017  74.6849987  34.0275006  19.8455017
  73.4519987  36.0785006  19.8545017  72.4589987  35.2365006  18.6235017
  71.7729987  34.5495006  19.1175017  71.8899987  35.9695006  18.0515017
  73.1099987  34.6785006  17.9505017  71.6039987  33.8075006  23.3015017
  71.6729987  32.7285006  23.8925017  70.4599987  34.4495006  23.0795017
  70.4809987  35.3315006  22.5885017  69.1719987  33.9435006  23.5355017
  69.2559987  32.8845006  23.7775017  68.7119987  34.6965006  24.7875017
  69.1379987  35.6985006  24.7295017  67.6249987  34.7605006  24.7375017
  69.1209987  34.0475006  26.1015017  68.8889987  32.9835006  26.0445017
  70.1959987  34.1785006  26.2275017  68.3919987  34.6625006  27.2905017
  68.8739987  35.6035006  27.5565017  67.3549987  34.8525006  27.0135017
  68.4109987  33.7795006  28.4575017  68.8359987  32.8715006  28.3315017
  67.9099987  34.0865006  29.6535017  67.3329987  35.2675006  29.8725017
  67.2719987  35.9425006  29.1245017  66.9589987  35.4815006  30.7855017
  67.9909987  33.2035006  30.6435017  68.4299987  32.3085006  30.4835017
  67.6129987  33.4315006  31.5515017  68.1279987  34.0995006  22.4415017
  67.6989987  35.2125006  22.1535017  67.7189987  32.9825006  21.8435017
  68.1459987  32.1055006  22.1055017  66.7389987  32.9805006  20.7525017
  66.7209987  32.0015006  20.2745017  65.3269987  33.2915006  21.2915017
  65.4639987  33.9215006  22.1705017  64.7709987  33.8425006  20.5335017
  64.5479987  32.0375006  21.6815017  64.5819987  31.0335006  20.9305017
  63.8719987  32.0685006  22.7325017  67.1289987  33.9565006  19.6305017
  66.2899987  34.6945006  19.1145017  68.4119987  33.9575006  19.2705017
  69.0639987  33.3555006  19.7525017  68.9199987  34.8075006  18.1905017
  69.7979987  34.3025006  17.7885017  68.1389987  34.8395006  17.4305017
  69.2989987  36.2315006  18.5705017  69.8359987  36.9625006  17.7455017
  69.0339987  36.6325006  19.8105017  68.5529987  36.0155006  20.4485017
  69.4039987  37.9605006  20.2815017  69.7099987  38.5795006  19.4385017
  68.2219987  38.6295006  20.9725017  67.9489987  37.9965006  21.8165017
  68.5749987  39.5925006  21.3405017  67.0099987  38.8405006  20.0875017
  66.6019987  37.8655006  19.8235017  66.2659987  39.4045006  20.6495017
  67.3699987  39.6005006  18.8185017  68.2889987  40.1555006  19.0075017
  67.5429987  38.8715006  18.0265017  66.2749987  40.5655006  18.3885017
  66.3449987  41.4435006  19.0305017  66.4809987  40.8525006  17.3575017
  64.9019987  39.9915006  18.4795017  64.7109987  39.7255006  19.4345017
  64.2279987  40.6815006  18.1805017  64.8369987  39.1785006  17.8845017
  70.5639987  37.8845006  21.2545017  70.6239987  36.9875006  22.0895017
  71.4769987  38.8385006  21.1475017  71.4089987  39.5165006  20.4025017
  72.5929987  38.9415006  22.0745017  72.9569987  37.9485006  22.3395017
  73.7319987  39.7195006  21.4185017  73.7719987  39.3075006  20.4105017
  73.4259987  40.7645006  21.3715017  75.1129987  39.6225006  22.0625017
  75.0019987  39.7065006  23.1435017  75.7819987  38.2975006  21.7235017
  75.8939987  38.2125006  20.6425017  76.7639987  38.2545006  22.1945017
  75.1669987  37.4755006  22.0905017  75.9599987  40.7925006  21.5995017
  75.4829987  41.7265006  21.8955017  76.9479987  40.7295006  22.0555017
  76.0589987  40.7635006  20.5145017  72.1039987  39.6675006  23.3235017
  71.5779987  40.7685006  23.2245017  72.2769987  39.0635006  24.4955017
  72.7659987  38.1815006  24.5535017  71.7249987  39.6325006  25.7235017
  71.3279987  40.6295006  25.5345017  70.5959987  38.7475006  26.2255017
  70.9429987  37.7375006  26.4415017  70.1219987  39.1665006  27.1135017
  69.2929987  38.5745006  24.9995017  68.5159987  37.7825006  25.7335017
  72.7409987  39.8105006  26.8405017  73.6199987  38.9695006  27.0225017
  72.6029987  40.9125006  27.5825017  71.9699987  41.6345006  27.2685017
  73.3299987  41.1235006  28.8325017  74.2479987  40.5365006  28.8265017
  73.6929987  42.5935006  29.0055017  74.1289987  42.8685006  28.0455017
  72.7869987  43.1765006  29.1735017  74.7009987  42.8815006  30.1255017
  75.3199987  41.9985006  30.2855017  75.5849987  44.0565006  29.7465017
  74.9669987  44.9405006  29.5875017  76.2959987  44.2505006  30.5495017
  76.1269987  43.8235006  28.8305017  74.0309987  43.1355006  31.4675017
  73.4519987  42.2585006  31.7575017  74.7919987  43.3335006  32.2225017
  73.3679987  43.9965006  31.3855017  72.4289987  40.6785006  29.9725017
  71.3079987  41.1615006  30.0965017  72.9229987  39.7555006  30.7955017
  73.8839987  39.4635006  30.6895017  72.1259987  39.1455006  31.8585017
  71.1699987  39.6615006  31.9485017  71.8589987  37.6765006  31.5425017
  72.8209987  37.2205006  31.3105017  71.4529987  37.2245006  32.4475017
  70.9009987  37.4485006  30.3905017  69.8899987  37.6795006  30.7265017
  71.1729987  38.1165006  29.5735017  70.9559987  35.7465006  29.8065017
  72.5149987  35.7435006  28.9305017  73.3209987  35.9945006  29.6205017
  72.6939987  34.7545006  28.5085017  72.4829987  36.4795006  28.1275017
  72.8339987  39.2085006  33.1975017  74.0319987  38.9365006  33.2935017
  72.0819987  39.5745006  34.2285017  71.2039987  40.0465006  34.0675017
  72.5109987  39.3645006  35.6025017  73.3639987  38.6855006  35.6075017
  72.9229987  40.6745006  36.2865017  73.2859987  40.4605006  37.2915017
  73.7079987  41.1705006  35.7155017  71.8079987  41.6675006  36.4355017
  71.5519987  42.5935006  35.4345017  72.1699987  42.5935006  34.5365017
  70.5249987  43.5105006  35.5665017  70.3309987  44.2325006  34.7735017
  69.7419987  43.5105006  36.7105017  68.9309987  44.2315006  36.8145017
  69.9899987  42.5935006  37.7225017  69.3759987  42.5895006  38.6235017
  71.0219987  41.6825006  37.5845017  71.2269987  40.9665006  38.3805017
  71.3629987  38.6995006  36.3255017  70.2229987  38.7545006  35.8685017
  71.6759987  38.0565006  37.4415017  72.6289987  38.0725006  37.7765017
  70.6979987  37.2905006  38.1875017  69.7439987  37.2865006  37.6605017
  71.1769987  35.8455006  38.3415017  71.1789987  35.4105006  37.3415017
  72.1989987  35.8955006  38.7175017  70.3349987  34.9775006  39.2715017
  70.1839987  35.5205006  40.2045017  69.3709987  34.7995006  38.7955017
  71.0089987  33.6485006  39.5625017  72.0869987  33.7815006  39.4735017
  70.7629987  33.3525006  40.5825017  70.5929987  32.5865006  38.6555017
  69.8229987  32.7785006  38.0315017  71.1649987  31.3885006  38.6065017
  72.1819987  31.0995006  39.4085017  72.5219987  31.7935006  40.0585017
  72.6119987  30.1865006  39.3655017  70.7219987  30.4755006  37.7515017
  69.9489987  30.6945006  37.1385017  71.1589987  29.5655006  37.7175017
  70.4839987  37.9345006  39.5435017  71.4179987  38.4505006  40.1455017
  69.2469987  37.8905006  40.0175017  68.5229987  37.4445006  39.4715017
  68.8829987  38.4775006  41.2965017  69.7539987  38.7895006  41.8725017
  67.9729987  39.6975006  41.0825017  68.4319987  40.3465006  40.3375017
  66.5899987  39.2775006  40.6065017  66.1299987  38.6285006  41.3515017
  65.9699987  40.1625006  40.4645017  66.6779987  38.7405006  39.6625017
  67.8699987  40.5115006  42.3565017  68.8619987  40.8565006  42.6495017
  67.2219987  41.3715006  42.1875017  67.4519987  39.8925006  43.1505017
  68.1609987  37.4385006  42.1375017  67.5509987  36.5275006  41.5955017
  68.2309987  37.5715006  43.4555017  68.7419987  38.3415006  43.8625017
  67.5789987  36.6195006  44.3545017  66.7199987  36.2045006  43.8275017
  68.2929987  35.8245006  44.5665017  67.1109987  37.2235006  45.6615017
  67.5139987  38.3225006  46.0375017  66.2499987  36.4925006  46.3555017
  65.9359987  35.6055006  45.9895017  65.7159987  36.9385006  47.6315017
  66.3209987  37.7545006  48.0265017  64.2779987  37.4385006  47.4485017
  64.3139987  38.3705006  46.8845017  63.7439987  36.6845006  46.8705017
  63.5539987  37.6725006  48.7705017  64.1839987  38.1635006  49.7335017
  62.3399987  37.3685006  48.8395017  65.7629987  35.7685006  48.5945017
  65.0809987  34.7715006  48.3795017  66.5529987  35.9035006  49.6575017
  67.0329987  36.7795006  49.8075017  66.7929987  34.8075006  50.6025017
  66.9749987  33.8795006  50.0605017  68.0149987  35.1175006  51.4625017
  67.7479987  36.0395006  51.9795017  68.1359987  34.3155006  52.1905017
  69.3199987  35.3185006  50.7095017  69.1949987  36.1055006  49.9655017
  70.4089987  35.7175006  51.6905017  70.5349987  34.9305006  52.4345017
  71.3469987  35.8625006  51.1545017  70.1279987  36.6455006  52.1875017
  69.6939987  34.0555006  49.9505017  68.9069987  33.8135006  49.2365017
  70.6309987  34.2155006  49.4165017  69.8129987  33.2305006  50.6535017
  65.6279987  34.4905006  51.5385017  65.6279987  33.4385006  52.1835017
  64.6539987  35.3895006  51.6275017  64.6669987  36.2175006  51.0495017
  63.5519987  35.2185006  52.5625017  63.8629987  34.5795006  53.3885017
  63.1209987  36.5655006  53.1255017  63.0079987  37.2465006  52.2825017
  62.1539987  36.4195006  53.6065017  64.0939987  37.1535006  54.1205017
  64.6969987  36.3455006  54.5345017  64.7409987  37.8585006  53.5975017
  63.3709987  37.8685006  55.2425017  63.1179987  38.8815006  54.9315017
  62.4589987  37.3285006  55.4965017  64.2169987  37.9415006  56.4295017
  64.0129987  37.2935006  57.1765017  65.2289987  38.7895006  56.5845017
  65.5429987  39.6635006  55.6305017  65.0069987  39.6865006  54.7745017
  66.3149987  40.2995006  55.7675017  65.9299987  38.7725006  57.7035017
  65.6939987  38.1165006  58.4335017  66.6989987  39.4155006  57.8235017
  62.3489987  34.5745006  51.9165017  62.1589987  34.6675006  50.7005017
  61.5279987  33.9385006  52.7525017  61.8289987  33.7465006  53.6975017
  60.2179987  33.4455006  52.3295017  60.3119987  32.9595006  51.3585017
  59.6499987  32.4375006  53.3275017  59.9329987  32.7195006  54.3415017
  58.5639987  32.4545006  53.2355017  60.1329987  31.0355006  53.0655017
  59.4789987  30.2665006  52.3635017  61.2979987  30.7005006  53.6055017
  61.6689987  29.7725006  53.4615017  61.8079987  31.3755006  54.1575017
  59.2179987  34.5695006  52.1285017  58.3039987  34.4295006  51.3205017
  59.3779987  35.6715006  52.8655017  60.0679987  35.6905006  53.6035017
  58.5189987  36.8465006  52.6865017  57.4839987  36.5215006  52.5835017
  58.6159987  37.8055006  53.8795017  57.7699987  38.4915006  53.8315017
  58.5539987  37.2155006  54.7935017  59.8269987  38.5465006  53.8765017
  59.8459987  39.1315006  54.6375017  58.8679987  37.5655006  51.3865017
  59.8529987  37.2335006  50.7225017  58.0619987  38.5575006  51.0315017
  57.3729987  38.9165006  51.6775017  58.1039987  39.1145006  49.6865017
  58.7869987  38.5425006  49.0595017  56.7119987  39.0515006  49.0735017
  55.9949987  39.5435006  49.7305017  56.6949987  39.5305006  48.0945017
  56.2219987  37.6575006  48.8745017  56.9149987  36.7325006  48.1275017
  56.2549987  35.5905006  48.1285017  56.6419987  34.7255006  47.5905017
  55.1589987  35.7435006  48.8485017  54.4589987  35.0365006  49.0215017
  55.1179987  37.0275006  49.3315017  54.2859987  37.3475006  49.9595017
  58.6129987  40.5355006  49.5915017  58.6759987  41.2655006  50.5845017
  58.9879987  40.8965006  48.3675017  59.1329987  40.1825006  47.6685017
  59.2209987  42.2745006  47.9985017  59.2309987  42.9065006  48.8865017
  60.5399987  42.4485006  47.2315017  60.5029987  41.8535006  46.3185017
  60.7519987  43.9105006  46.8745017  60.7889987  44.5065006  47.7865017
  61.6909987  44.0195006  46.3315017  59.9279987  44.2555006  46.2495017
  61.7209987  41.9205006  48.0555017  61.5029987  40.8755006  48.2755017
  62.5999987  41.9805006  47.4135017  61.9899987  42.6655006  49.3515017
  61.1119987  42.6055006  49.9945017  62.8429987  42.2155006  49.8595017
  62.2079987  43.7105006  49.1315017  58.0379987  42.6945006  47.1385017
  57.8729987  42.2265006  46.0135017  57.2079987  43.5705006  47.6925017
  57.4429987  43.9605006  48.5945017  55.9509987  43.9675006  47.0755017
  55.5429987  43.1915006  46.4275017  54.9099987  44.3035006  48.1535017
  55.3569987  44.9955006  48.8675017  53.6729987  44.9395006  47.5385017
  53.2249987  44.2485006  46.8245017  52.9519987  45.1675006  48.3235017
  53.9539987  45.8595006  47.0255017  54.5489987  43.0455006  48.9285017
  55.4429987  42.6415006  49.4035017  53.8099987  43.2885006  49.6925017
  54.1349987  42.3035006  48.2455017  56.1679987  45.1675006  46.1655017
  56.9259987  46.0745006  46.5045017  55.4749987  45.1685006  45.0265017
  54.8189987  44.4175006  44.8645017  55.6879987  46.1445006  43.9605017
  55.1429987  45.8285006  43.0715017  55.1979987  47.5465006  44.3665017
  55.5939987  47.7485006  45.3615017  55.6259987  48.2535006  43.6555017
  53.6809987  47.6985006  44.3825017  53.2979987  47.2325006  43.4745017
  53.3029987  47.1625006  45.2525017  53.2199987  49.1545006  44.4415017
  52.0419987  49.3975006  44.8015017  54.0239987  50.0625006  44.1265017
  57.1669987  46.1415006  43.5625017  57.7849987  47.1935006  43.3435017
  57.7249987  44.9365006  43.4745017  57.1839987  44.1095006  43.6835017
  59.1199987  44.7715006  43.1065017  59.7679987  45.3535006  43.7625017
  59.5249987  43.3125006  43.1955017  58.8909987  42.7185006  42.5375017
  60.5659987  43.2045006  42.8905017  59.4089987  42.9645006  44.2225017
  59.3199987  45.2855006  41.6945017  58.4199987  45.1635006  40.8595017
  60.4899987  45.8715006  41.4405017  61.1469987  46.0135006  42.1945017
  60.8509987  46.3535006  40.1045017  60.5269987  45.6245006  39.3615017
  60.1899987  47.7035006  39.7885017  59.8909987  47.7025006  38.7405017
  59.3069987  47.8095006  40.4185017  61.0749987  48.7895006  40.0275017
  60.6309987  49.6155006  39.8205017  62.3569987  46.5005006  39.9735017
  63.0449987  46.8755006  40.9215017  62.8559987  46.2455006  38.7765017
  62.2439987  45.9625006  38.0245017  64.2799987  46.2985006  38.5195017
  64.8459987  46.6465006  39.3835017  64.8069987  44.9115006  38.0825017
  64.5439987  44.1875006  38.8545017  64.2129987  44.4705006  36.7485017
  64.4759987  45.1935006  35.9765017  64.6099987  43.4915006  36.4795017
  63.1279987  44.4105006  36.8355017  66.3399987  44.8985006  38.0275017
  66.6299987  44.0465006  37.4125017  66.6489987  45.8215006  37.5365017
  67.0139987  44.7965006  39.3835017  66.7059987  43.8735006  39.8745017
  68.0959987  44.7935006  39.2525017  66.7249987  45.6485006  39.9985017
  64.5599987  47.3555006  37.4625017  63.9359987  47.3575006  36.4045017
  65.4689987  48.2775006  37.7675017  65.7729987  48.3875006  38.7245017
  65.9839987  49.2205006  36.7585017  65.6979987  48.8705006  35.7665017
  65.4279987  50.6415006  36.9585017  65.7549987  51.2225006  36.0965017
  64.3419987  50.5505006  36.9445017  65.8619987  51.3455006  38.2395017
  65.9309987  50.6095006  39.0405017  66.8389987  51.8005006  38.0785017
  64.8599987  52.4215006  38.6255017  64.7219987  53.0825006  37.7705017
  63.9139987  51.9375006  38.8665017  65.2819987  53.2235006  39.7745017
  65.0099987  52.8755006  40.6825017  65.9769987  54.3635006  39.7105017
  66.3739987  54.8735006  38.5445017  66.1489987  54.3945006  37.6845017
  66.8979987  55.7365006  38.5265017  66.2919987  55.0035006  40.8325017
  66.0049987  54.6255006  41.7235017  66.8169987  55.8655006  40.7885017
  67.5089987  49.2225006  36.7615017  68.1439987  48.8675006  37.7585017
  68.0909987  49.6135006  35.6365017  67.5389987  49.9225006  34.8495017
  69.5319987  49.5465006  35.4825017  69.9979987  49.5675006  36.4675017
  69.9199987  48.2535006  34.7905017  69.4679987  48.2215006  33.7985017
  71.0049987  48.2025006  34.6965017  69.5659987  47.4065006  35.3775017
  70.0529987  50.7475006  34.7125017  69.4729987  51.1485006  33.7115017
  71.1549987  51.3065006  35.1985017  71.6099987  50.8645006  35.9845017
  71.7399987  52.5295006  34.6595017  71.1529987  52.8875006  33.8135017
  71.7509987  53.6185006  35.7455017  72.1999987  53.1625006  36.6275017
  72.4019987  54.4105006  35.3745017  70.3889987  54.2095006  36.1145017
  69.6189987  53.4695006  35.8965017  70.3849987  54.4335006  37.1815017
  70.1069987  55.4845006  35.3265017  71.0079987  56.0965006  35.3615017
  69.9059987  55.1935006  34.2955017  68.9289987  56.2845006  35.8675017
  68.9229987  56.1775006  36.9525017  69.0889987  57.3305006  35.6075017
  67.6219987  55.8305006  35.3175017  67.4739987  54.8615006  35.5595017
  66.8789987  56.3925006  35.7075017  67.6269987  55.9305006  34.3125017
  73.1719987  52.2405006  34.2005017  73.9429987  51.6025006  34.9135017
  73.5229987  52.6975006  33.0085017  72.8409987  53.1425006  32.4105017
  74.8919987  52.5745006  32.5235017  75.3729987  51.7235006  33.0065017
  74.9259987  52.3605006  31.0115017  74.6409987  51.3155006  30.8885017
  74.1599987  52.9995006  30.5715017  76.2629987  52.6105006  30.3095017
  76.5519987  53.6495006  30.4655017  77.3439987  51.6975006  30.8585017
  77.0559987  50.6575006  30.7025017  78.2839987  51.8955006  30.3425017
  77.4689987  51.8825006  31.9255017  76.1059987  52.4065006  28.8155017
  75.3609987  53.1025006  28.4295017  77.0609987  52.5855006  28.3215017
  75.7829987  51.3845006  28.6195017  75.6169987  53.8515006  32.8685017
  75.1609987  54.9385006  32.5155017  76.7569987  53.7115006  33.5345017
  77.0829987  52.7855006  33.7705017  77.5289987  54.8545006  34.0005017
  77.0639987  55.7965006  33.7095017  77.6929987  54.8145006  35.5255017
  78.2019987  53.8925006  35.8055017  78.5109987  56.0095006  35.9995017
  78.0029987  56.9325006  35.7205017  78.6199987  55.9695006  37.0835017
  79.4969987  55.9835006  35.5345017  76.3059987  54.7735006  36.1645017
  75.7729987  55.6605006  35.8215017  75.8079987  53.8815006  35.7845017
  76.3109987  54.7415006  37.6685017  76.8079987  55.6335006  38.0495017
  75.2849987  54.7135006  38.0355017  76.8429987  53.8545006  38.0115017
  78.8969987  54.9175006  33.3225017  79.7799987  54.0915006  33.5775017
  79.0519987  55.9055006  32.4485017  78.2599987  56.4825006  32.2045017
  80.3169987  56.1575006  31.7845017  81.1319987  56.0255006  32.4955017
  80.5299987  55.1955006  30.6125017  81.6079987  55.1285006  30.4645017
  80.1479987  54.2275006  30.9385017  79.8599987  55.5905006  29.3005017
  78.7799987  55.5175006  29.4255017  80.1289987  56.6205006  29.0685017
  80.2999987  54.6855006  28.1665017  80.2589987  53.6505006  28.5055017
  79.6199987  54.8185006  27.3255017  81.7169987  55.0195006  27.7295017
  81.7149987  56.0325006  27.3265017  82.3589987  54.9805006  28.6095017
  82.2299987  54.0765006  26.6995017  81.6349987  54.1125006  25.8835017
  83.1709987  54.3385006  26.4425017  82.2319987  53.1385006  27.0735017
  80.3529987  57.5995006  31.3085017  79.3309987  58.1565006  30.9005017
  81.5429987  58.1885006  31.3585017  82.3409987  57.6655006  31.6895017
  81.7389987  59.5775006  30.9755017  80.9939987  60.2065006  31.4615017
  83.1259987  60.0475006  31.4005017  83.8639987  59.6625006  30.6965017
  83.1509987  61.1375006  31.3915017  83.4259987  59.5795006  32.7015017
  84.3009987  59.8815006  32.9565017  81.5849987  59.7505006  29.4765017
  81.6479987  58.7805006  28.7105017  81.3759987  60.9955006  29.0645017
  81.2689987  61.7445006  29.7335017  81.2179987  61.3045006  27.6565017
  81.9189987  60.7145006  27.0665017  79.7959987  60.9775006  27.1965017
  79.7769987  61.1205006  26.1165017  79.6279987  59.9255006  27.4265017
  78.6999987  61.8185006  27.8385017  78.5009987  61.4205006  28.8335017
  79.0599987  62.8445006  27.9225017  77.4189987  61.7965006  27.0185017
  77.0659987  60.7675006  26.9585017  76.6729987  62.4065006  27.5275017
  77.6439987  62.3385006  25.6145017  78.4289987  63.0935006  25.6635017
  77.9719987  61.5145006  24.9805017  76.4129987  62.9405006  25.0455017
  76.1089987  63.7045006  25.6325017  76.6059987  63.2865006  24.1165017
  75.6859987  62.2405006  25.0005017  81.5559987  62.7545006  27.3495017
  81.7529987  63.5685006  28.2495017  81.6119987  63.0505006  26.0585017
  81.3899987  62.3275006  25.3895017  81.9829987  64.3595006  25.5575017
  81.9309987  65.1025006  26.3525017  83.4219987  64.3025006  25.0345017
  83.8639987  63.3955006  25.4475017  83.3519987  64.2115006  23.9505017
  84.2969987  65.4995006  25.3875017  84.1769987  66.2445006  24.6015017
  83.9709987  65.9205006  26.3385017  85.7789987  65.1375006  25.4955017
  86.1529987  64.1885006  26.1995017  86.6319987  65.9045006  24.8155017
  87.6219987  65.7085006  24.8525017  86.2839987  66.6775006  24.2665017
  81.0109987  64.7205006  24.4365017  80.7759987  63.9225006  23.5345017
  80.4269987  65.9065006  24.4975017  80.5479987  66.5155006  25.2945017
  79.5309987  66.3315006  23.4345017  78.9589987  65.4785006  23.0695017
  78.5419987  67.4275006  23.9025017  77.8489987  67.6445006  23.0895017
  77.7609987  66.9695006  25.1255017  78.4529987  66.7525006  25.9395017
  77.0739987  67.7575006  25.4345017  77.1959987  66.0705006  24.8805017
  79.2409987  68.6365006  24.2195017  78.6129987  69.3035006  24.5075017
  80.3559987  66.8225006  22.2455017  81.5079987  67.2335006  22.4135017
  79.7659987  66.7625006  21.0505017  78.8769987  66.2905006  20.9705017
  80.3539987  67.3505006  19.8385017  81.1609987  66.7135006  19.4745017
  79.2969987  67.4825006  18.7335017  78.6639987  68.3395006  18.9635017
  79.8089987  67.6535006  17.7865017  78.4969987  66.3195006  18.6335017
  77.8489987  66.4365006  17.9355017  80.9229987  68.7345006  20.1175017
  82.0059987  69.0765006  19.6485017  80.1769987  69.5115006  20.9005017
  79.3419987  69.1125006  21.3055017  80.4619987  70.9205006  21.1505017
  80.8069987  71.3985006  20.2335017  79.1929987  71.6415006  21.6335017
  78.8839987  71.1465006  22.5545017  79.4819987  72.6695006  21.8535017
  78.0289987  71.6405006  20.6375017  77.3639987  72.4565006  20.9215017
  78.4489987  71.8415006  19.6515017  77.2419987  70.3325006  20.5985017
  77.3929987  69.5145006  21.5285017  76.4709987  70.1185006  19.6375017
  81.5899987  71.1355006  22.1575017  82.1789987  72.2165006  22.1965017
  81.8779987  70.1255006  22.9785017  81.3119987  69.2895006  22.9655017
  83.0039987  70.1865006  23.9135017  83.7859987  69.5535006  23.4955017
  83.3419987  71.2225006  23.9215017  82.7219987  69.7465006  25.3415017
  83.6419987  69.3805006  26.0665017  81.4589987  69.7665006  25.7535017
  80.7159987  70.0175006  25.1165017  81.1149987  69.5045006  27.1525017
  81.6979987  70.1565006  27.8035017  79.6239987  69.7695006  27.4015017
  79.3789987  70.7195006  26.9265017  79.0659987  68.9675006  26.9185017
  79.2499987  69.8295006  28.8815017  79.5349987  68.8725006  29.3185017
  79.8289987  70.6275006  29.3455017  77.7709987  70.0735006  29.1205017
  77.4079987  70.4405006  30.2615017  76.9709987  69.8845006  28.1765017
  81.4689987  68.0845006  27.6085017  80.9819987  67.1055006  27.0545017
  82.3209987  67.9895006  28.6245017  82.8209987  68.8105006  28.9355017
  82.5829987  66.7235006  29.2995017  82.5139987  65.9025006  28.5865017
  83.9899987  66.7255006  29.9105017  84.7489987  66.7355006  29.1285017
  84.1069987  67.6075006  30.5405017  84.2849987  65.5295006  30.7825017
  84.6979987  64.3255006  30.2205017  84.8029987  64.2505006  29.1385017
  84.9749987  63.2285006  31.0215017  85.2939987  62.2895006  30.5695017
  84.8459987  63.3265006  32.3965017  85.0609987  62.4635006  33.0265017
  84.4439987  64.5215006  32.9715017  84.3459987  64.6015006  34.0545017
  84.1669987  65.6145006  32.1695017  83.8529987  66.5555006  32.6205017
  81.5379987  66.5065006  30.3925017  81.2889987  67.4025006  31.2005017
  80.9409987  65.3135006  30.4155017  81.1779987  64.6365006  29.7045017
  79.9309987  64.9475006  31.4155017  79.7559987  65.7735006  32.1045017
  78.6029987  64.5485006  30.7445017  78.7779987  63.6935006  30.0915017
  77.5649987  64.1785006  31.7985017  77.3889987  65.0335006  32.4525017
  76.6319987  63.8985006  31.3085017  77.9299987  63.3385006  32.3895017
  78.0889987  65.6935006  29.8585017  77.7339987  66.4785006  30.5265017
  78.9409987  66.0615006  29.2875017  76.9759987  65.2975006  28.9065017
  76.1229987  64.9295006  29.4765017  76.6729987  66.1645006  28.3195017
  77.3309987  64.5135006  28.2375017  80.4479987  63.7815006  32.2635017
  80.4659987  62.6505006  31.7955017  80.8689987  64.0545006  33.5105017
  80.7609987  65.3845006  34.1375017  79.7079987  65.6385006  34.2565017
  81.2419987  66.1225006  33.4945017  81.4719987  65.2225006  35.4605017
  80.9499987  65.7955006  36.2265017  82.4959987  65.5855006  35.3705017
  81.4499987  63.7725006  35.7615017  80.5529987  63.3975006  36.2555017
  82.3229987  63.5445006  36.3725017  81.5939987  63.1255006  34.3845017
  82.6299987  63.1865006  34.0505017  81.1569987  61.6505006  34.4315017
  81.9419987  60.7765006  34.0745017  79.9549987  61.3515006  34.8985017
  79.3009987  62.0635006  35.1905017  79.5899987  59.9575006  35.0935017
  80.2289987  59.3165006  34.4865017  79.7629987  59.5705006  36.5615017
  79.2559987  60.3585006  37.1185017  79.2629987  58.6195006  36.7435017
  81.2259987  59.4765006  37.0235017  81.7529987  60.3815006  36.7215017
  81.2969987  59.3305006  38.5325017  80.7709987  58.4255006  38.8355017
  82.3399987  59.2655006  38.8435017  80.8309987  60.1955006  39.0045017
  81.9709987  58.3235006  36.3595017  81.9679987  58.4625006  35.2785017
  82.9999987  58.2995006  36.7195017  81.4789987  57.3825006  36.6055017
  78.1809987  59.7435006  34.5875017  77.2549987  59.4335006  35.3415017
  78.0549987  59.8945006  33.2735017  78.8879987  59.9325006  32.7035017
  76.7639987  60.0675006  32.6215017  76.2069987  60.8695006  33.1055017
  76.9619987  60.4295006  31.1525017  77.7889987  61.1355006  31.0775017
  77.2029987  59.5275006  30.5895017  75.7329987  61.0605006  30.5495017
  75.1489987  61.9755006  31.1295017  75.3239987  60.5725006  29.3845017
  74.5049987  60.9605006  28.9375017  75.8329987  59.8155006  28.9505017
  75.8669987  58.8445006  32.7175017  76.2309987  57.7635006  32.2575017
  74.6879987  59.0305006  33.3025017  74.4459987  59.9395006  33.6695017
  73.7409987  57.9415006  33.4795017  74.2709987  56.9905006  33.5315017
  72.9609987  58.1355006  34.7725017  72.6369987  59.1755006  34.8035017
  72.0879987  57.4855006  34.7255017  73.7589987  57.8185006  36.0195017
  73.8999987  56.7395006  36.0765017  74.7309987  58.3085006  35.9605017
  73.0579987  58.2825006  37.2805017  71.8259987  58.3005006  37.3465017
  73.8409987  58.6705006  38.2875017  73.4259987  58.9895006  39.1515017
  74.8449987  58.6435006  38.1815017  72.7719987  57.8305006  32.3025017
  72.0409987  58.7715006  31.9955017  72.7779987  56.6745006  31.6455017
  73.4909987  55.9905006  31.8525017  71.8039987  56.3635006  30.6115017
  71.0949987  57.1865006  30.5205017  72.4929987  56.1545006  29.2505017
  71.7419987  56.2005006  28.4625017  73.5409987  57.2275006  29.0145017
  74.2929987  57.1815006  29.8025017  74.0179987  57.0645006  28.0485017
  73.0659987  58.2085006  29.0235017  73.1329987  54.8755006  29.2175017
  73.5599987  54.7535006  28.3665017  71.0539987  55.0995006  31.0265017
  71.6699987  54.0545006  31.2375017  69.7329987  55.1935006  31.1615017
  69.2699987  56.0815006  31.0325017  68.9259987  54.0445006  31.5725017
  69.2789987  53.6735006  32.5345017  67.4429987  54.4395006  31.7115017
  67.3809987  55.4325006  32.1565017  67.0419987  54.4705006  30.6985017
  66.6229987  53.4455006  32.5585017  67.0549987  53.0415006  33.6655017
  65.5089987  53.0895006  32.1205017  69.1029987  52.8875006  30.5735017
  69.0599987  53.0945006  29.3575017  69.3549987  51.6905006  31.1115017
  69.5269987  51.6485006  32.1055017  69.3759987  50.4395006  30.3495017
  69.6309987  50.6385006  29.3085017  70.3789987  49.4285006  30.9395017
  70.1109987  49.2285006  31.9765017  70.3549987  48.1285006  30.1505017
  70.6239987  48.3275006  29.1135017  71.0699987  47.4275006  30.5825017
  69.3549987  47.6975006  30.1905017  71.7919987  50.0035006  30.9505017
  72.1419987  50.0335006  29.9185017  71.7299987  51.0185006  31.3415017
  72.7639987  49.1975006  31.7905017  72.8269987  48.1815006  31.3995017
  73.7489987  49.6625006  31.7535017  72.4149987  49.1675006  32.8225017
  67.9809987  49.8035006  30.4005017  67.3779987  49.6655006  31.4675017
  67.4759987  49.4045006  29.2435017  67.9959987  49.5185006  28.3855017
  66.1599987  48.8145006  29.1735017  65.4449987  49.4305006  29.7195017
  65.7089987  48.7165006  27.7185017  65.8579987  49.6825006  27.2365017
  66.3129987  47.9625006  27.2145017  64.2509987  48.3325006  27.5905017
  63.6179987  47.9215006  28.5605017  63.7079987  48.4665006  26.3905017
  62.7379987  48.2245006  26.2485017  64.2669987  48.8105006  25.6225017
  66.1819987  47.4325006  29.7985017  67.0079987  46.6075006  29.4235017
  65.2889987  47.1825006  30.7545017  64.7509987  47.9375006  31.1545017
  65.1399987  45.8405006  31.3305017  65.4629987  45.0735006  30.6275017
  65.9459987  45.6815006  32.6405017  65.6799987  44.7325006  33.1065017
  67.4389987  45.7055006  32.3555017  67.7049987  46.6545006  31.8905017
  67.9899987  45.5925006  33.2895017  67.6939987  44.8865006  31.6825017
  65.5829987  46.7715006  33.6335017  64.5199987  46.7125006  33.8665017
  66.1619987  46.6395006  34.5475017  65.8059987  47.7465006  33.2005017
  63.6709987  45.4595006  31.5525017  63.3379987  44.7445006  32.4975017
  62.8039987  45.9285006  30.6565017  63.1269987  46.5935006  29.9685017
  61.3949987  45.5215006  30.6225017  61.2639987  44.9265006  29.7185017
  61.2309987  44.8925006  31.4975017  60.3749987  46.6485006  30.6245017
  59.1799987  46.3845006  30.7595017  60.8349987  47.8875006  30.4455017
  61.7909987  48.0065006  30.1425017  60.0369987  49.0915006  30.7235017
  59.7049987  49.0955006  31.7615017  60.8969987  50.3375006  30.4785017
  61.8789987  50.1645006  30.9185017  60.9869987  50.3755006  29.3925017
  60.3399987  51.6575006  30.9865017  59.8629987  51.7925006  32.2945017
  59.8759987  50.9205006  32.9485017  59.3779987  53.0095006  32.7665017
  58.9959987  53.0915006  33.7845017  59.3849987  54.1225006  31.9355017
  58.9079987  55.3345006  32.3975017  58.5969987  55.2935006  33.3045017
  59.8689987  54.0135006  30.6405017  59.8739987  54.8845006  29.9845017
  60.3479987  52.7925006  30.1785017  60.7399987  52.7095006  29.1645017
  58.7559987  49.1875006  29.8995017  57.7169987  49.6025006  30.4095017
  58.8279987  48.7905006  28.6365017  59.6939987  48.4265006  28.2655017
  57.7009987  48.9665006  27.7215017  57.1179987  49.8425006  28.0055017
  58.2209987  49.1665006  26.2955017  58.6599987  48.2355006  25.9355017
  57.3579987  49.4225006  25.6805017  59.2429987  50.2695006  26.2095017
  58.8669987  51.5985006  26.3265017  57.8129987  51.8365006  26.4695017
  59.8039987  52.6155006  26.2645017  59.4899987  53.6555006  26.3485017
  61.1439987  52.3075006  26.0955017  62.0939987  53.3055006  26.0355017
  61.7199987  54.1855006  26.1215017  61.5399987  50.9915006  25.9845017
  62.5919987  50.7425006  25.8485017  60.5909987  49.9825006  26.0465017
  60.8979987  48.9395006  25.9665017  56.6809987  47.8215006  27.7835017
  55.5609987  47.9495006  27.3035017  57.0639987  46.7025006  28.3775017
  58.0049987  46.6085006  28.7315017  56.1569987  45.5765006  28.5245017
  55.2579987  45.7505006  27.9325017  56.8279987  44.2935006  28.0295017
  56.1079987  43.4765006  28.0695017  57.3129987  44.4705006  26.6045017
  58.0339987  45.2875006  26.5645017  57.7879987  43.5505006  26.2645017
  56.4659987  44.7015006  25.9585017  57.9479987  43.9985006  28.8665017
  58.3729987  43.1945006  28.5605017  55.7299987  45.3685006  29.9735017
  54.8499987  44.5565006  30.2475017  56.3469987  46.1005006  30.8985017
  57.0059987  46.8135006  30.6215017  56.0989987  45.9035006  32.3225017
  56.5289987  46.7415006  32.8705017  55.0219987  45.8765006  32.4885017
  56.7109987  44.6115006  32.8355017  56.2859987  44.0835006  33.8645017
  57.7069987  44.1015006  32.1185017  57.9329987  44.4965006  31.2165017
  58.4469987  42.9295006  32.5635017  57.8009987  42.2995006  33.1755017
  58.9409987  42.1085006  31.3655017  59.2909987  42.8125006  30.6105017
  59.7729987  41.4865006  31.6945017  57.8489987  41.2235006  30.7695017
  57.4579987  40.2425006  31.4385017  57.3899987  41.4955006  29.6355017
  59.6069987  43.3545006  33.4565017  60.3709987  42.5195006  33.9345017
  59.7399987  44.6565006  33.6765017  59.2649987  45.3235006  33.0855017
  60.6349987  45.1615006  34.7075017  61.5079987  44.5125006  34.7775017
  61.1079987  46.5855006  34.3895017  61.7739987  46.8785006  35.2005017
  61.6639987  46.5655006  33.4525017  59.9709987  47.5875006  34.2815017
  58.8049987  47.1745006  34.0835017  60.2719987  48.8005006  34.3735017
  59.9809987  45.1045006  36.0825017  60.6529987  45.2585006  37.0985017
  58.6709987  44.8875006  36.1145017  58.1289987  44.9215006  35.2625017
  57.9729987  44.6335006  37.3665017  58.4389987  45.2065006  38.1685017
  56.5059987  45.0425006  37.2635017  56.0419987  44.4015006  36.5135017
  56.0469987  44.8555006  38.2345017  56.3029987  46.5025006  36.8795017
  56.6639987  47.1195006  37.7025017  56.8989987  46.7015006  35.9885017
  54.8439987  46.8355006  36.5985017  54.2799987  46.7645006  37.5285017
  54.7819987  47.8535006  36.2135017  54.2489987  45.9275006  35.6205017
  54.8579987  45.2345006  35.2105017  52.9729987  45.9505006  35.2475017
  52.1309987  46.8555006  35.7385017  52.4609987  47.5385006  36.4055017
  51.1649987  46.8555006  35.4425017  52.5379987  45.0615006  34.3655017
  53.1769987  44.3775006  33.9855017  51.5699987  45.0725006  34.0775017
  58.0999987  43.1495006  37.6895017  57.5559987  42.2975006  36.9885017
  58.8359987  42.8495006  38.7515017  59.1929987  43.5895006  39.3395017
  59.1779987  41.4805006  39.0855017  59.1749987  40.8615006  38.1885017
  60.5709987  41.4375006  39.7015017  60.4839987  42.0475006  40.6005017
  60.7839987  40.4055006  39.9815017  61.7019987  41.9715006  38.8345017
  61.5119987  43.0165006  38.5885017  63.0139987  41.8615006  39.5955017
  63.2049987  40.8175006  39.8415017  63.8259987  42.2435006  38.9775017
  62.9519987  42.4455006  40.5135017  61.7759987  41.2185006  37.5155017
  60.8359987  41.3355006  36.9765017  62.5919987  41.6185006  36.9135017
  61.9529987  40.1605006  37.7095017  58.1969987  40.8285006  40.0565017
  57.6649987  41.4815006  40.9635017  57.9569987  39.5355006  39.8265017
  58.1789987  39.1745006  38.9095017  57.4009987  38.6175006  40.8155017
  57.0249987  39.1805006  41.6695017  56.2479987  37.8115006  40.2165017
  55.3909987  38.4505006  40.0055017  56.5919987  37.3495006  39.2915017
  55.7469987  36.6935006  41.0975017  55.2289987  36.9605006  42.3585017
  55.1989987  37.9905006  42.7145017  54.7539987  35.9375006  43.1605017
  54.3559987  36.1595006  44.1505017  54.7849987  34.6315006  42.7045017
  54.4099987  33.8245006  43.3345017  55.2919987  34.3505006  41.4485017
  55.3199987  33.3225006  41.0885017  55.7639987  35.3765006  40.6495017
  56.1549987  35.1575006  39.6555017  58.5589987  37.7115006  41.1975017
  58.8849987  36.7685006  40.4815017  59.1979987  38.0255006  42.3155017
  58.7839987  38.6845006  42.9595017  60.4999987  37.4665006  42.6435017
  60.9069987  36.9195006  41.7935017  61.4539987  38.6055006  42.9925017
  61.5029987  39.1855006  42.0705017  60.9709987  39.1985006  43.7695017
  62.8619987  38.2395006  43.4365017  62.8049987  37.5575006  44.2845017
  63.6049987  37.5695006  42.2995017  63.6619987  38.2505006  41.4505017
  64.6119987  37.3105006  42.6255017  63.0759987  36.6645006  42.0025017
  63.5999987  39.4795006  43.9065017  63.0649987  39.9255006  44.7455017
  64.6069987  39.2055006  44.2225017  63.6589987  40.1995006  43.0905017
  60.3959987  36.5055006  43.8105017  60.4499987  36.9235006  44.9695017
  60.2399987  35.2195006  43.5125017  60.0139987  34.9335006  42.5705017
  60.2879987  34.1955006  44.5555017  60.3149987  34.6555006  45.5435017
  59.0819987  33.2405006  44.4905017  59.0599987  32.7605006  43.5115017
  59.1909987  32.1765006  45.5745017  59.2129987  32.6555006  46.5535017
  58.3319987  31.5085006  45.5165017  60.1069987  31.6025006  45.4305017
  57.7909987  34.0255006  44.6445017  57.7129987  34.7575006  43.8415017
  56.9419987  33.3435006  44.5975017  57.7899987  34.5395006  45.6055017
  61.6159987  33.4495006  44.4565017  62.5419987  33.7005006  45.2415017
  61.7119987  32.5485006  43.4815017  60.8919987  32.2715006  42.9605017
  62.9779987  31.9135006  43.1615017  63.5089987  31.6885006  44.0865017
  62.7779987  30.6045006  42.3785017  63.6569987  29.9775006  42.5315017
  61.8979987  30.0995006  42.7775017  62.5999987  30.8385006  40.9925017
  62.4789987  30.0005006  40.5395017  63.7799987  32.9235006  42.3475017
  63.2009987  33.8345006  41.7565017  65.1099987  32.7675006  42.3165017
  65.8769987  31.7445006  43.0515017  65.6739987  30.7625006  42.6235017
  65.5779987  31.7515006  44.0995017  67.2949987  32.1715006  42.8605017
  67.9479987  31.2995006  42.8325017  67.6009987  32.8275006  43.6755017
  67.3029987  32.8975006  41.5625017  67.3249987  32.1995006  40.7255017
  68.1349987  33.5955006  41.4755017  65.9829987  33.6595006  41.5665017
  66.0259987  34.5985006  42.1175017  65.5299987  33.9325006  40.1265017
  65.0149987  33.0255006  39.4695017  65.7189987  35.1735006  39.6655017
  66.1049987  35.8625006  40.2955017  65.4069987  35.5845006  38.2945017
  64.9849987  34.7415006  37.7485017  64.3969987  36.7275006  38.2825017
  64.8889987  37.4945006  38.8815017  64.3109987  37.0715006  37.2515017
  63.0009987  36.4575006  38.8475017  63.0889987  36.1005006  39.8735017
  62.1829987  37.7385006  38.8255017  62.0939987  38.0965006  37.7995017
  61.1889987  37.5425006  39.2285017  62.6779987  38.4965006  39.4325017
  62.2779987  35.3555006  38.0835017  62.8539987  34.4325006  38.1455017
  61.2909987  35.1975006  38.5195017  62.1709987  35.6475006  37.0385017
  66.6569987  36.0675006  37.5805017  67.4879987  36.7465006  38.1775017
  66.7689987  35.7205006  36.2985017  66.0959987  35.0765006  35.9065017
  67.8119987  36.2515006  35.4225017  68.6589987  36.5755006  36.0265017
  68.2879987  35.2155006  34.3855017  67.4199987  34.7965006  33.8765017
  69.2069987  35.8735006  33.3635017  70.0749987  36.2925006  33.8715017
  69.5349987  35.1295006  32.6375017  68.6679987  36.6695006  32.8495017
  69.0249987  34.0595006  35.0705017  70.0119987  34.4295006  35.3495017
  68.4629987  33.8105006  35.9705017  69.1749987  32.8175006  34.2085017
  69.7369987  33.0655006  33.3085017  69.7069987  32.0485006  34.7685017
  68.1889987  32.4465006  33.9295017  67.2319987  37.4365006  34.6665017
  66.4059987  37.2525006  33.7795017  67.6719987  38.6445006  35.0075017
  68.3489987  38.7435006  35.7505017  67.1949987  39.8545006  34.3375017
  66.1359987  39.7715006  34.0935017  67.4319987  41.1335006  35.1795017
  68.5039987  41.3195006  35.2435017  66.7449987  42.3355006  34.5395017
  65.6729987  42.1505006  34.4755017  66.9239987  43.2225006  35.1465017
  67.1459987  42.4935006  33.5385017  66.9609987  40.9415006  36.6315017
  67.7089987  40.3185006  37.1215017  66.9549987  41.9305006  37.0905017
  65.5919987  40.3045006  36.7855017  65.5969987  39.3155006  36.3275017
  65.3509987  40.2125006  37.8445017  64.8439987  40.9275006  36.2955017
  67.9439987  39.9745006  33.0225017  69.1759987  39.9165006  33.0015017
  67.1909987  40.1405006  31.9375017  66.1879987  40.2015006  32.0365017
  67.7589987  40.1745006  30.5865017  68.8319987  39.9875006  30.6325017
  67.1109987  39.0985006  29.7015017  67.2579987  38.1275006  30.1745017
  66.0439987  39.3085006  29.6285017  67.6789987  39.0815006  28.4035017
  67.2539987  38.4005006  27.8775017  67.6059987  41.5475006  29.9295017
  66.5099987  42.0945006  29.8275017  68.7259987  42.1015006  29.4955017
  69.6169987  41.6905006  29.7365017  68.7199987  43.2955006  28.6815017
  67.7289987  43.7485006  28.7065017  69.7369987  44.3165006  29.1945017
  69.3289987  44.8785006  30.0345017  70.6459987  43.8035006  29.5085017
  70.1469987  45.3215006  28.1665017  69.2909987  46.2935006  27.6945017
  69.9189987  47.0315006  26.7965017  69.4099987  47.8595006  26.3025017
  71.1499987  46.5715006  26.6695017  71.8609987  46.9425006  26.0555017
  71.3169987  45.4985006  27.5115017  72.2729987  44.9755006  27.5445017
  69.0729987  42.8505006  27.2785017  70.1989987  42.4225006  27.0225017
  68.1009987  42.9345006  26.3785017  67.1699987  43.2015006  26.6655017
  68.3249987  42.6175006  24.9805017  68.8809987  41.6835006  24.8945017
  66.9869987  42.4585006  24.2565017  66.4229987  41.6995006  24.7985017
  66.4719987  43.4165006  24.3315017  67.0999987  42.0575006  22.7945017
  67.7109987  42.8085006  22.2935017  67.6009987  41.0905006  22.7455017
  65.7499987  41.9635006  22.1065017  64.8749987  41.2135006  22.6025017
  65.5729987  42.6385006  21.0645017  69.1529987  43.7325006  24.3485017
  68.7469987  44.8965006  24.3655017  70.3129987  43.3685006  23.8045017
  70.5959987  42.4005006  23.8515017  71.2209987  44.3255006  23.1785017
  71.1259987  45.2925006  23.6725017  72.6869987  43.8645006  23.2325017
  72.7959987  42.9475006  22.6525017  73.5959987  44.9425006  22.6535017
  73.4879987  45.8595006  23.2325017  74.6319987  44.6065006  22.6965017
  73.3189987  45.1335006  21.6165017  73.1049987  43.5455006  24.6715017
  73.0189987  44.4685006  25.2445017  72.3979987  42.8115006  25.0575017
  74.5149987  43.0035006  24.7965017  75.2229987  43.7375006  24.4105017
  74.7359987  42.8025006  25.8445017  74.6019987  42.0805006  24.2235017
  70.8129987  44.5535006  21.7285017  71.3229987  43.9035006  20.8155017
  69.8909987  45.4955006  21.5465017  69.5389987  45.9735006  22.3635017
  69.3339987  45.8475006  20.2455017  69.5969987  45.0965006  19.5005017
  67.8089987  45.9115006  20.3575017  67.4029987  46.1715006  19.3795017
  67.4349987  44.9325006  20.6575017  67.3379987  46.9415006  21.3675017
  68.0829987  47.8405006  21.7685017  66.0929987  46.8125006  21.7925017
  65.7219987  47.4675006  22.4655017  65.5189987  46.0595006  21.4425017
  69.8829987  47.1825006  19.7435017  70.7419987  47.7815006  20.3865017
  69.3789987  47.6505006  18.6015017  68.7529987  47.0655006  18.0665017
  69.7629987  48.9535006  18.0415017  70.7799987  48.9065006  17.6525017
  68.8159987  49.3355006  16.8955017  68.7719987  48.4865006  16.2135017
  67.8309987  49.5025006  17.3305017  69.2499987  50.5785006  16.1305017
  69.1609987  51.4325006  16.8025017  70.2899987  50.4625006  15.8265017
  68.4099987  50.8455006  14.8935017  67.9459987  49.9195006  14.2245017
  68.2219987  52.1255006  14.5735017  67.6719987  52.3645006  13.7605017
  68.6309987  52.8515006  15.1455017  69.8099987  50.0795006  19.0895017
  70.7059987  50.9215006  19.0695017  68.8519987  50.0735006  20.0095017
  68.1569987  49.3405006  19.9955017  68.7279987  51.1245006  21.0125017
  69.0249987  52.0835006  20.5875017  67.2719987  51.2285006  21.4865017
  66.9249987  50.2105006  21.6635017  67.2859987  51.7765006  22.4285017
  66.3279987  51.9245006  20.5075017  65.3649987  52.0665006  20.9975017
  66.7569987  52.8955006  20.2625017  66.1059987  51.1485006  19.2125017
  65.8759987  49.9375006  19.2245017  66.1669987  51.8515006  18.0855017
  66.0279987  51.3905006  17.1975017  66.3519987  52.8435006  18.1225017
  69.6439987  50.9045006  22.2125017  69.7009987  51.7425006  23.1005017
  70.3549987  49.7845006  22.2515017  70.2839987  49.1095006  21.5035017
  71.2269987  49.4725006  23.3875017  70.7209987  49.7095006  24.3235017
  71.5779987  47.9795006  23.3845017  70.6479987  47.4105006  23.4055017
  72.1179987  47.7585006  22.4635017  72.3779987  47.6195006  24.4995017
  72.5759987  46.6805006  24.4615017  72.5219987  50.2965006  23.3685017
  73.0149987  50.6445006  22.2925017  73.0739987  50.6135006  24.5595017
  72.3789987  50.6855006  25.8555017  72.4419987  49.7215006  26.3605017
  71.3319987  50.9445006  25.6975017  73.1289987  51.7605006  26.5745017
  73.0729987  51.5905006  27.6495017  72.6949987  52.7315006  26.3375017
  74.5279987  51.6715006  26.0835017  75.0879987  50.9595006  26.6895017
  75.0289987  52.6395006  26.1055017  74.4319987  51.1655006  24.6435017
  74.5019987  51.9635006  23.9045017  75.5399987  50.1365006  24.3905017
  76.7089987  50.5015006  24.3515017  75.1829987  48.8675006  24.2405017
  74.2259987  48.5915006  24.4115017  76.1499987  47.8315006  23.8955017
  77.1659987  48.2075006  24.0175017  75.9609987  46.6255006  24.8195017
  74.9859987  46.1555006  24.6935017  76.7439987  45.8995006  24.6025017
  76.0859987  46.9685006  26.2675017  77.3169987  46.9315006  26.8945017
  78.1949987  46.6275006  26.3255017  77.4419987  47.2735006  28.2265017
  78.4159987  47.2305006  28.7145017  76.3269987  47.6715006  28.9415017
  76.4199987  47.9455006  29.9925017  75.0929987  47.7215006  28.3205017
  74.2099987  48.0325006  28.8795017  74.9809987  47.3765006  26.9885017
  74.0109987  47.4245006  26.4925017  76.0189987  47.4225006  22.4265017
  76.5549987  46.3935006  22.0045017  75.3229987  48.2435006  21.6445017
  74.9169987  49.0865006  22.0245017  75.0709987  47.9265006  20.2485017
  74.5599987  46.9665006  20.1715017  74.1899987  49.0005006  19.6155017
  73.2659987  49.1005006  20.1855017  74.7169987  49.9545006  19.6085017
  73.7909987  48.7195006  18.1965017  74.0439987  49.5015006  17.1065017
  74.5969987  50.4245006  17.2835017  73.5219987  48.9255006  15.9765017
  73.5689987  49.3115006  15.0445017  72.9189987  47.7445006  16.3185017
  72.2499987  46.8105006  15.5205017  72.1689987  47.0035006  14.4505017
  71.7339987  45.7015006  16.1405017  71.2069987  44.9515006  15.5505017
  71.8689987  45.5075006  17.5255017  71.4559987  44.6235006  18.0115017
  72.5339987  46.4375006  18.3185017  72.6159987  46.2385006  19.3875017
  73.0679987  47.5805006  17.7125017  76.3719987  47.7765006  19.4655017
  76.5219987  46.8285006  18.6915017  77.3129987  48.6925006  19.6895017
  77.1299987  49.4505006  20.3315017  78.5919987  48.6835006  18.9705017
  78.5289987  48.0295006  18.1015017  78.9309987  50.1005006  18.4935017
  78.9249987  50.7455006  19.3715017  79.9369987  50.0675006  18.0745017
  77.9659987  50.6515006  17.4525017  77.4819987  49.8095006  16.9575017
  77.2189987  51.2315006  17.9945017  78.6359987  51.5365006  16.4095017
  79.8179987  51.2995006  16.0645017  77.9679987  52.4665006  15.9165017
  79.7719987  48.1185006  19.7775017  80.9229987  48.4575006  19.5055017
  79.4969987  47.2495006  20.7485017  78.5379987  47.0135006  20.9605017
  80.5539987  46.6655006  21.5745017  81.5169987  47.0985006  21.3055017
  80.2929987  46.8865006  23.0785017  79.2869987  46.5415006  23.3175017
  81.3089987  46.1155006  23.9195017  82.3149987  46.4605006  23.6815017
  81.1079987  46.2845006  24.9775017  81.2299987  45.0505006  23.7005017
  80.3599987  48.3805006  23.4015017  81.3519987  48.7255006  23.1095017
  79.6079987  48.8735006  22.7855017  80.1179987  48.7155006  24.8565017
  80.8699987  48.2225006  25.4735017  80.1839987  49.7945006  24.9975017
  79.1259987  48.3715006  25.1495017  80.7069987  45.1755006  21.2875017
  79.7869987  44.3875006  21.5115017  81.8829987  44.8075006  20.7915017
  82.5719987  45.5165006  20.5845017  82.2229987  43.4155006  20.5275017
  81.3189987  42.8375006  20.3355017  83.1279987  43.3295006  19.2995017
  83.3569987  42.2815006  19.1065017  82.5979987  43.7485006  18.4445017
  84.3349987  44.0465006  19.5045017  84.8849987  43.9775006  18.7205017
  82.9469987  42.8225006  21.7275017  83.3869987  43.5565006  22.6135017
  83.0779987  41.4965006  21.7445017  82.6059987  40.9385006  21.0475017
  83.8799987  40.8075006  22.7615017  83.3859987  40.8815006  23.7305017
  84.0459987  39.3275006  22.4085017  83.0489987  38.9205006  22.2385017
  84.6209987  39.2765006  21.4845017  84.7489987  38.5145006  23.4895017
  85.7389987  38.9415006  23.6475017  84.1689987  38.5955006  24.4085017
  84.8839987  37.0515006  23.1035017  83.9479987  36.7145006  22.6575017
  85.6899987  36.9495006  22.3765017  85.1949987  36.2065006  24.3245017
  86.0779987  36.6155006  24.8155017  84.3459987  36.2545006  25.0065017
  85.4479987  34.7915006  23.9475017  86.2349987  34.7465006  23.3155017
  85.6519987  34.2535006  24.7775017  84.6289987  34.4125006  23.4935017
  85.2659987  41.4365006  22.8885017  85.7909987  41.6005006  23.9955017
  85.8439987  41.7755006  21.7375017  85.3659987  41.5555006  20.8755017
  87.1579987  42.4005006  21.6585017  87.8869987  41.7335006  22.1185017
  87.5409987  42.6085006  20.2015017  86.8259987  43.2825006  19.7295017
  88.5389987  43.0425006  20.1465017  87.5329987  41.6495006  19.6825017
  87.2129987  43.7275006  22.4025017  88.1059987  43.9425006  23.2195017
  86.2529987  44.6055006  22.1165017  85.5259987  44.3465006  21.4645017
  86.2469987  45.9725006  22.6615017  87.2489987  46.3985006  22.6065017
  85.2939987  46.8605006  21.8575017  84.3539987  46.3175006  21.7555017
  85.1279987  47.7675006  22.4395017  85.8159987  47.2315006  20.4815017
  86.5949987  47.9835006  20.6025017  86.2379987  46.3445006  20.0095017
  84.7349987  47.7945006  19.5755017  83.6459987  47.2275006  19.4615017
  85.0329987  48.9095006  18.9175017  84.3499987  49.3265006  18.3015017
  85.9409987  49.3355006  19.0365017  85.8779987  46.0585006  24.1435017
  86.3029987  46.9895006  24.8295017  85.0999987  45.0945006  24.6335017
  84.8419987  44.3165006  24.0435017  84.5049987  45.1805006  25.9685017
  83.7639987  45.9795006  25.9865017  83.8139987  43.8615006  26.3495017
  83.0479987  43.7435006  25.5835017  84.5409987  43.0545006  26.2625017
  83.1619987  43.8145006  27.7355017  83.9409987  43.8935006  28.4935017
  82.1709987  44.9555006  27.9065017  81.3909987  44.8765006  27.1495017
  81.7209987  44.9015006  28.8975017  82.6899987  45.9075006  27.7955017
  82.4819987  42.4755006  27.9625017  83.2199987  41.6765006  27.8925017
  82.0249987  42.4625006  28.9525017  81.7119987  42.3255006  27.2055017
  85.4899987  45.6035006  27.0605017  85.2569987  46.5965006  27.7465017
  86.6049987  44.8705006  27.2105017  87.1959987  43.8845006  26.2955017
  87.7459987  44.3945006  25.5045017  86.4109987  43.2705006  25.8545017
  88.0889987  43.1025006  27.2025017  88.9209987  42.6945006  26.6285017
  87.5239987  42.2865006  27.6525017  88.5649987  44.0625006  28.2485017
  89.5169987  44.4915006  27.9375017  88.6829987  43.5835006  29.2205017
  87.4999987  45.1635006  28.3335017  86.9089987  45.1065006  29.2475017
  88.1589987  46.5355006  28.2395017  88.5209987  47.1035006  29.2715017
  88.3059987  47.0445006  27.0115017  88.0479987  46.4715006  26.2205017
  88.9019987  48.3635006  26.7515017  89.6669987  48.5785006  27.4975017
  89.5519987  48.3895006  25.3605017  90.2859987  47.5865006  25.2865017
  88.7849987  48.2515006  24.5985017  90.2439987  49.7315006  25.1475017
  89.5109987  50.5345006  25.2205017  91.0109987  49.8705006  25.9095017
  90.8889987  49.7565006  23.7665017  91.6229987  48.9545006  23.6925017
  90.1229987  49.6185006  23.0035017  91.5809987  51.0995006  23.5545017
  90.8479987  51.9025006  23.6265017  92.3479987  51.2385006  24.3165017
  92.2039987  51.1235006  22.2235017  91.4939987  50.9945006  21.5165017
  92.6619987  52.0125006  22.0825017  92.8839987  50.3795006  22.1565017
  87.8949987  49.5235006  26.8895017  88.2669987  50.6935006  26.7455017
  86.6309987  49.1995006  27.1605017  86.3429987  48.2315006  27.1415017
  85.6279987  50.2145006  27.4745017  85.8109987  51.1045006  26.8725017
  84.2129987  49.7045006  27.1775017  84.3149987  48.8145006  26.5565017
  83.7629987  49.4305006  28.1315017  83.3269987  50.7155006  26.4715017
  82.3009987  50.3495006  26.5085017  83.3979987  51.6525006  27.0235017
  83.7309987  50.9485006  25.0205017  84.0119987  49.9665006  24.2965017
  83.7619987  52.1205006  24.5945017  85.7619987  50.5545006  28.9505017
  86.1159987  49.6935006  29.7575017  85.4849987  51.8055006  29.2995017
  85.2399987  52.4825006  28.5915017  85.5769987  52.2555006  30.6845017
  85.9969987  51.4635006  31.3045017  86.4849987  53.4905006  30.7835017
  87.4849987  53.2355006  30.4335017  86.0779987  54.2915006  30.1665017
  86.5569987  53.9495006  32.2205017  85.5569987  54.2045006  32.5725017
  86.9649987  53.1485006  32.8375017  87.4589987  55.1775006  32.3185017
  86.9129987  56.3055006  32.1875017  88.6859987  54.9755006  32.5245017
  84.1719987  52.5555006  31.2115017  83.7779987  53.7185006  31.3165017
  83.4269987  51.4995006  31.5375017  83.8239987  50.5735006  31.4665017
  82.0179987  51.6245006  31.9415017  81.8069987  52.6515006  32.2405017
  81.0999987  51.2565006  30.7765017  80.1029987  51.3675006  31.2035017
  81.2509987  52.0135006  30.0065017  81.2369987  49.8625006  30.1555017
  82.2849987  49.7205006  29.8915017  80.7939987  48.7465006  31.0885017
  79.7459987  48.8875006  31.3525017  80.9159987  47.7855006  30.5895017
  81.4019987  48.7655006  31.9925017  80.4269987  49.8075006  28.8695017
  80.7999987  50.5575006  28.1715017  80.5199987  48.8175006  28.4225017
  79.3789987  50.0085006  29.0905017  81.6429987  50.7795006  33.1525017
  82.3699987  49.8685006  33.5485017  80.4729987  51.0815006  33.7035017
  79.9009987  51.7905006  33.2685017  79.9809987  50.4475006  34.9185017
  80.3579987  49.4275006  34.9975017  80.4709987  51.2455006  36.1315017
  81.5589987  51.2585006  36.0715017  80.0889987  52.2585006  36.0065017
  80.0439987  50.7055006  37.4915017  78.9549987  50.7195006  37.5255017
  80.3959987  49.6775006  37.5715017  80.5979987  51.5225006  38.6505017
  81.5229987  52.3435006  38.4325017  80.1119987  51.3425006  39.7855017
  78.4519987  50.4085006  34.8925017  77.8049987  51.4265006  34.6525017
  77.8789987  49.2375006  35.1385017  78.4479987  48.4305006  35.3495017
  76.4309987  49.0785006  35.1325017  75.9389987  49.8955006  34.6055017
  76.0319987  47.7435006  34.4915017  76.6439987  46.9495006  34.9195017
  74.5589987  47.4415006  34.7455017  73.9459987  48.2345006  34.3175017
  74.2969987  46.4905006  34.2825017  74.3789987  47.3835006  35.8195017
  76.3499987  47.7795006  32.9975017  75.6849987  48.5125006  32.5415017
  77.3829987  48.1115006  32.8925017  76.1779987  46.4455006  32.3075017
  75.1449987  46.1125006  32.4115017  76.4209987  46.5485006  31.2505017
  76.8429987  45.7115006  32.7625017  75.9139987  49.0885006  36.5525017
  76.2809987  48.2235006  37.3355017  75.0549987  50.0475006  36.8845017
  74.8569987  50.8025006  36.2445017  74.4419987  50.0835006  38.2075017
  74.9989987  49.4435006  38.8915017  74.3889987  51.4985006  38.7945017
  74.0089987  52.1795006  38.0335017  73.4799987  51.5475006  40.0205017
  73.8599987  50.8665006  40.7825017  73.4599987  52.5625006  40.4185017
  72.4709987  51.2485006  39.7375017  75.7959987  51.9305006  39.1685017
  76.4269987  51.9245006  38.2795017  75.7689987  52.9365006  39.5875017
  76.2039987  51.2405006  39.9075017  73.0559987  49.4825006  38.1705017
  72.2069987  49.8855006  37.3805017  72.8449987  48.5355006  39.0745017
  73.5749987  48.3455006  39.7465017  71.6539987  47.7115006  39.1035017
  70.9379987  47.9495006  38.3165017  72.0509987  46.2255006  38.9765017
  73.0809987  46.1225006  39.3175017  71.1549987  45.3135006  39.7935017
  70.1249987  45.4155006  39.4535017  71.4769987  44.2795006  39.6685017
  71.2179987  45.5885006  40.8465017  72.0509987  45.8335006  37.5075017
  72.7669987  46.4515006  36.9665017  72.3309987  44.7845006  37.4105017
  71.0549987  45.9835006  37.0905017  70.9019987  48.0165006  40.3875017
  71.4949987  48.0245006  41.4665017  69.6059987  48.2895006  40.2585017
  69.1529987  48.1695006  39.3635017  68.8109987  48.7835006  41.3745017
  69.3449987  48.6345006  42.3125017  68.4709987  50.2725006  41.2095017
  67.7209987  50.3825006  40.4265017  67.9269987  50.8375006  42.5155017
  68.6769987  50.7285006  43.2995017  67.6899987  51.8935006  42.3845017
  67.0249987  50.2955006  42.7985017  69.7049987  51.0615006  40.7635017
  70.4679987  50.9215006  41.5285017  70.0459987  50.6205006  39.8265017
  69.4559987  52.5425006  40.5635017  69.1159987  52.9845006  41.5005017
  70.3799987  53.0275006  40.2485017  68.6929987  52.6835006  39.7975017
  67.5159987  48.0075006  41.5025017  66.7179987  47.9485006  40.5655017
  67.3139987  47.4245006  42.6765017  68.0219987  47.4915006  43.3935017
  66.1039987  46.6785006  42.9715017  65.4909987  46.5985006  42.0735017
  66.4479987  45.2745006  43.4535017  67.0809987  44.8705006  42.6635017
  67.0259987  45.3575006  44.3745017  65.2619987  44.3435006  43.6805017
  64.5119987  44.8605006  44.2785017  64.6539987  43.9345006  42.3495017
  65.4039987  43.4175006  41.7505017  63.8079987  43.2695006  42.5245017
  64.3129987  44.8225006  41.8165017  65.6889987  43.1205006  44.4795017
  66.0809987  43.4365006  45.4465017  64.8299987  42.4675006  44.6315017
  66.4629987  42.5805006  43.9335017  65.3479987  47.4285006  44.0485017
  65.8849987  47.6765006  45.1285017  64.1049987  47.7905006  43.7395017
  63.7059987  47.4725006  42.8675017  63.2909987  48.6285006  44.6055017
  63.7649987  48.7135006  45.5835017  63.1319987  50.0335006  44.0145017
  62.7639987  49.8985006  42.9975017  62.3699987  50.5325006  44.6125017
  64.3909987  50.8825006  43.9885017  64.6539987  51.1065006  45.0225017
  65.1879987  50.2975006  43.5305017  64.2089987  52.1825006  43.2185017
  63.5729987  52.1885006  42.1445017  64.7149987  53.2155006  43.6815017
  61.9079987  48.0275006  44.7805017  61.1469987  47.8845006  43.8195017
  61.5779987  47.6895006  46.0155017  62.2629987  47.7105006  46.7575017
  60.2239987  47.2785006  46.3395017  59.5169987  47.9045006  45.7955017
  60.0839987  46.2375006  46.0495017  59.9629987  47.4145006  47.8165017
  60.8149987  47.8905006  48.5595017  58.7829987  46.9785006  48.2375017
  58.1429987  46.5435006  47.5885017  58.3569987  47.1525006  49.6095017
  58.9529987  47.9265006  50.0925017  56.9019987  47.5705006  49.6445017
  56.3269987  46.8495006  49.0635017  56.5679987  47.5495006  50.6815017
  56.6939987  48.9535006  49.0765017  56.9359987  49.6875006  49.8455017
  57.3619987  49.0855006  48.2255017  55.0009987  49.1985006  48.5405017
  55.2709987  50.4845006  47.3185017  55.9389987  50.1135006  46.5415017
  54.3179987  50.7685006  46.8725017  55.7199987  51.3535006  47.7985017
  58.5509987  45.8895006  50.4215017  58.1569987  44.8105006  50.0105017
  59.1749987  46.0515006  51.5785017  59.5969987  46.9465006  51.7825017
  59.2809987  45.0005006  52.5695017  59.7799987  44.0995006  52.2115017
  60.0379987  45.5245006  53.8085017  59.4919987  46.3725006  54.2205017
  60.1629987  44.4345006  54.8715017  60.7099987  43.5855006  54.4605017
  60.6999987  44.8275006  55.7345017  59.1689987  44.1105006  55.1795017
  61.4019987  46.0925006  53.4015017  61.2589987  46.9145006  52.6995017
  61.9229987  46.4575006  54.2865017  61.9949987  45.3105006  52.9285017
  57.8609987  44.5835006  52.9535017  57.0309987  45.4275006  53.2695017
  57.5619987  43.2935006  52.9175017  58.2559987  42.5865006  52.7235017
  56.1659987  42.8795006  53.0375017  55.5789987  43.3665006  52.2585017
  56.0119987  41.3595006  52.8905017  56.7359987  41.0295006  52.1455017
  56.2539987  40.9125006  53.8545017  54.6119987  40.9255006  52.4655017
  53.9189987  41.2965006  53.2215017  54.3999987  41.4075006  51.5115017
  54.4459987  39.4165006  52.3205017  55.4339987  38.6735006  52.5265017
  53.3169987  38.9665006  51.9945017  55.5079987  43.3725006  54.3345017
  54.3509987  43.7865006  54.3085017  56.2429987  43.3565006  55.4495017
  57.2209987  43.1085006  55.4015017  55.6469987  43.6065006  56.7805017
  54.6459987  43.1755006  56.7515017  56.4459987  42.9065006  57.8675017
  57.4479987  43.3335006  57.9155017  55.9479987  43.0395006  58.8285017
  56.5159987  41.8425006  57.6395017  55.5039987  45.0845006  57.1165017
  54.4549987  45.5235006  57.5685017  56.5769987  45.8415006  56.9425017
  57.4779987  45.4175006  56.7725017  56.4969987  47.2915006  56.9965017
  55.6869987  47.5935006  57.6605017  57.8159987  47.9425006  57.4945017
  57.6379987  49.0005006  57.6855017  58.2949987  47.2705006  58.7735017
  58.4739987  46.2125006  58.5835017  59.2199987  47.7405006  59.1065017
  57.5349987  47.3775006  59.5475017  58.8519987  47.8535006  56.5015017
  59.6529987  48.2635006  56.8365017  56.1959987  47.7065006  55.5715017
  56.8429987  47.2345006  54.6485017  55.2279987  48.5865006  55.3675017
  54.6949987  48.9715006  56.1335017  54.9059987  49.0265006  54.0065017
  54.6149987  48.1445006  53.4365017  54.0599987  49.7105006  54.0735017
  56.0519987  49.7255006  53.2875017  55.8989987  50.1115006  52.1285017
  57.2009987  49.8405006  53.9655017  57.2919987  49.3065006  54.8175017
  58.3049987  50.7185006  53.5755017  57.9199987  51.6875006  53.2575017
  59.2439987  50.9315006  54.7675017  59.6189987  49.9495006  55.0565017
  60.0719987  51.5465006  54.4145017  58.5919987  51.6005006  55.9705017
  58.2769987  52.5995006  55.6695017  57.7169987  51.0125006  56.2485017
  59.6979987  51.7295006  57.3955017  58.8609987  52.9725006  58.3825017
  57.8629987  52.6195006  58.6415017  59.4289987  53.1555006  59.2945017
  58.7819987  53.8975006  57.8115017  59.1139987  50.1905006  52.3975017
  59.3629987  48.9965006  52.3035017  59.5419987  51.1075006  51.5275017
  59.3879987  52.0835006  51.7375017  60.2249987  50.7665006  50.2805017
  59.8469987  49.8185006  49.8985017  60.0239987  51.8455006  49.2025017
  60.4579987  52.7815006  49.5555017  60.6969987  51.4335006  47.8915017
  60.2629987  50.4985006  47.5385017  60.5419987  52.2105006  47.1435017
  61.7659987  51.2975006  48.0585017  58.6229987  52.0525006  48.9725017
  58.5049987  52.7265006  48.2995017  61.7159987  50.6175006  50.4955017
  62.3459987  51.4715006  51.1145017  62.2689987  49.5355006  49.9495017
  61.6749987  48.9095006  49.4255017  63.6909987  49.2065006  50.0675017
  64.1599987  49.8505006  50.8115017  63.8659987  47.7525006  50.5015017
  63.6409987  47.6375006  51.5615017  63.2179987  47.0965006  49.9195017
  65.5449987  47.1255006  50.2755017  65.3009987  45.9035006  50.7405017
  64.3739987  49.4035006  48.7305017  63.7489987  49.2575006  47.6815017
  65.6579987  49.7335006  48.7705017  66.1109987  49.8985006  49.6575017
  66.4409987  49.8995006  47.5545017  65.8799987  49.5145006  46.7025017
  66.7559987  51.3825006  47.3055017  65.8029987  51.8895006  47.1525017
  67.2289987  51.7645006  48.2105017  67.6659987  51.6395006  46.1095017
  68.6519987  51.2235006  46.3195017  67.2319987  51.1285006  45.2505017
  67.8219987  53.1105006  45.7705017  68.8789987  53.7115006  45.9885017
  66.7749987  53.6965006  45.2175017  66.8199987  54.6745006  44.9695017
  65.9349987  53.1635006  45.0445017  67.7189987  49.0995006  47.7015017
  68.5979987  49.4775006  48.4775017  67.8159987  47.9905006  46.9745017
  67.0169987  47.6405006  46.4655017  69.0559987  47.2185006  46.9325017
  69.6959987  47.5045006  47.7675017  68.7699987  45.7305006  47.0275017
  68.1369987  45.4275006  46.1935017  69.7079987  45.1765006  46.9915017
  68.2589987  45.5175006  47.9665017  69.8129987  47.5415006  45.6515017
  69.2159987  47.6185006  44.5735017  71.1249987  47.7355006  45.7855017
  71.5609987  47.5585006  46.6795017  71.9659987  48.1795006  44.6835017
  71.3939987  48.1775006  43.7555017  72.4699987  49.5935006  44.9415017
  72.9649987  49.5765006  45.9125017  73.2029987  49.8115006  44.1645017
  71.3989987  50.6645006  44.9395017  70.9819987  50.7485006  43.9365017
  70.6109987  50.3815006  45.6375017  71.9879987  52.0015006  45.3565017
  72.7739987  52.2825006  44.6565017  71.2049987  52.7595006  45.3465017
  72.5589987  51.9365006  46.7005017  73.5439987  51.7185006  46.7575017
  71.8859987  52.1405006  47.8325017  70.5929987  52.4385006  47.8235017
  70.1009987  52.5145006  46.9445017  70.1059987  52.5885006  48.6955017
  72.5169987  52.0445006  48.9945017  73.5009987  51.8175006  49.0145017
  72.0109987  52.1985006  49.8545017  73.1749987  47.2865006  44.5235017
  73.6209987  46.6545006  45.4735017  73.7099987  47.2485006  43.3095017
  73.1959987  47.6375006  42.5315017  75.0039987  46.6265006  43.0425017
  75.7039987  46.9055006  43.8295017  74.9009987  45.1015006  42.9975017
  74.5479987  44.7465006  43.9655017  74.1839987  44.8225006  42.2255017
  76.1599987  44.5125006  42.7085017  76.0689987  43.5575006  42.6855017
  75.5429987  47.1515006  41.7225017  74.8659987  47.8895006  41.0025017
  76.7669987  46.7645006  41.4105017  77.2599987  46.1055006  41.9955017
  77.4489987  47.2995006  40.2595017  76.7339987  47.7395006  39.5645017
  78.4209987  48.3855006  40.7115017  77.8539987  49.2995006  40.8885017
  78.8859987  48.0615006  41.6425017  79.4229987  48.6335006  39.7455017
  80.0129987  49.3205006  40.0655017  78.1779987  46.1915006  39.5235017
  78.5829987  45.1975006  40.1195017  78.3149987  46.3645006  38.2175017
  77.8449987  47.1345006  37.7625017  79.1259987  45.4815006  37.4075017
  79.6719987  44.7915006  38.0505017  78.2549987  44.6715006  36.4525017
  77.7009987  45.3735006  35.8295017  78.9179987  44.0755006  35.8255017
  77.2889987  43.7635006  37.1665017  77.7309987  42.6055006  37.7895017
  78.7909987  42.3575006  37.7475017  76.8519987  41.7725006  38.4555017
  77.2139987  40.8695006  38.9465017  75.5149987  42.0905006  38.4995017
  74.6459987  41.2635006  39.1595017  75.0779987  40.4995006  39.5495017
  75.0519987  43.2295006  37.8825017  73.9909987  43.4785006  37.9115017
  75.9399987  44.0605006  37.2225017  75.5789987  44.9665006  36.7355017
  80.0729987  46.3595006  36.6305017  79.6349987  47.1155006  35.7635017
  81.3609987  46.2975006  36.9715017  81.6509987  45.8185006  37.8115017
  82.3749987  47.0005006  36.1895017  81.9259987  47.8745006  35.7185017
  83.6119987  47.4355006  37.0085017  84.3919987  47.7765006  36.3285017
  83.2359987  48.5645006  37.9535017  82.4559987  48.2245006  38.6345017
  84.1119987  48.8655006  38.5275017  82.8699987  49.4145006  37.3775017
  84.2179987  46.2705006  37.7935017  83.6029987  46.1175006  38.6805017
  84.1669987  45.3855006  37.1595017  85.6539987  46.5095006  38.2105017
  85.7059987  47.3945006  38.8455017  86.0209987  45.6445006  38.7625017
  86.2699987  46.6625006  37.3245017  82.7819987  46.1235006  35.0205017
  82.5239987  44.9155006  35.0195017  83.4099987  46.7505006  34.0305017
  83.6309987  47.7295006  34.1455017  83.6689987  46.1275006  32.7295017
  82.7419987  45.8915006  32.2065017  84.5139987  47.0675006  31.8375017
  83.9639987  47.9985006  31.7015017  85.8799987  47.3685006  32.4655017
  86.4309987  46.4375006  32.6015017  86.4439987  48.0315006  31.8095017
  85.7379987  47.8505006  33.4325017  84.6879987  46.4755006  30.5465017
  85.2119987  47.0605006  29.9945017  84.2929987  44.7165006  32.8095017
  83.9709987  43.8445006  31.9955017  85.1529987  44.4995006  33.8075017
  85.3739987  45.2645006  34.4285017  85.8349987  43.2135006  34.0155017
  86.1759987  42.8085006  33.0625017  87.0499987  43.4205006  34.9225017
  87.6279987  42.4965006  34.9475017  87.6629987  44.2205006  34.5075017
  86.6519987  43.7645006  36.2385017  87.4309987  43.8885006  36.7865017
  84.9619987  42.1025006  34.6195017  85.3639987  40.9385006  34.6325017
  83.7859987  42.4635006  35.1285017  83.5169987  43.4365006  35.1065017
  82.8809987  41.5085006  35.7695017  83.4239987  40.6075006  36.0545017
  82.2799987  42.1385006  37.0315017  81.7979987  43.0695006  36.7325017
  81.5289987  41.4475006  37.4145017  83.3109987  42.4265006  38.1235017
  83.4809987  41.4775006  38.6325017  84.2329987  42.7485006  37.6405017
  82.8759987  43.4765006  39.1385017  81.9689987  44.2865006  38.8425017
  83.4679987  43.5085006  40.2405017  81.7739987  41.0705006  34.8115017
  80.8729987  40.3345006  35.1905017  81.8589987  41.5275006  33.5665017
  82.6219987  42.1465006  33.3325017  80.8869987  41.2085006  32.5305017
  79.9589987  40.8175006  32.9465017  80.5819987  42.4665006  31.6835017
  81.4979987  42.7765006  31.1815017  79.5019987  42.1875006  30.6435017
  78.5849987  41.8775006  31.1455017  79.3109987  43.0915006  30.0655017
  79.8359987  41.3935006  29.9755017  80.1779987  43.6295006  32.6005017
  79.3349987  43.2845006  33.1995017  81.0279987  43.8315006  33.2525017
  79.7909987  44.8975006  31.8695017  78.9399987  44.6965006  31.2185017
  79.5199987  45.6665006  32.5935017  80.6329987  45.2435006  31.2705017
  81.4489987  40.0805006  31.6485017  82.2199987  40.3325006  30.7165017
  81.0619987  38.8415006  31.9405017  80.3919987  38.6815006  32.6795017
  81.6219987  37.6785006  31.2455017  82.6889987  37.8255006  31.0795017
  81.4269987  36.4095006  32.0805017  80.3569987  36.2185006  32.0035017
  81.9749987  35.6085006  31.5845017  81.8289987  36.4645006  33.5525017
  81.0709987  37.0165006  34.1085017  81.9499987  35.0575006  34.1195017
  82.7079987  34.5055006  33.5645017  82.2369987  35.1115006  35.1695017
  80.9909987  34.5465006  34.0315017  83.1339987  37.2185006  33.7395017
  83.0209987  38.2385006  33.3725017  83.3929987  37.2405006  34.7985017
  83.9259987  36.7185006  33.1825017  80.9989987  37.4735006  29.8635017
  79.8129987  37.1585006  29.7525017  81.7909987  37.6355006  28.8085017
  82.7549987  37.9165006  28.9145017  81.2749987  37.4285006  27.4585017
  80.2389987  37.7655006  27.4105017  82.0859987  38.2045006  26.4335017
  82.1349987  39.2525006  26.7295017  83.0959987  37.8045006  26.3435017
  81.4869987  38.1745006  25.0545017  81.3569987  37.0855006  24.2275017
  81.7169987  36.1305006  24.6115017  80.7739987  37.4585006  23.0415017
  80.5689987  36.8435006  22.2675017  80.5179987  38.8045006  23.0775017
  79.9429987  39.6345006  22.1175017  79.6249987  39.1965006  21.1715017
  79.8139987  40.9595006  22.4285017  79.3689987  41.6385006  21.7015017
  80.2409987  41.4705006  23.6655017  80.1319987  42.5295006  23.9015017
  80.8099987  40.6495006  24.6185017  81.1239987  41.0935006  25.5635017
  80.9569987  39.2895006  24.3305017  81.3139987  35.9575006  27.0995017
  82.3559987  35.3185006  27.2095017  80.1819987  35.4355006  26.6395017
  79.3499987  36.0085006  26.6115017  80.0889987  34.0565006  26.1685017
  79.2779987  33.9975006  25.4425017  81.0299987  33.7965006  25.6835017
  79.8229987  33.0705006  27.2865017  80.3349987  31.9535006  27.2625017
  78.9959987  33.4825006  28.2495017  78.5619987  34.3905006  28.1615017
  78.7129987  32.6935006  29.4435017  79.0819987  31.6755006  29.3225017
  79.4119987  33.3255006  30.6425017  79.3179987  34.4065006  30.5425017
  78.8779987  32.9955006  31.5335017  80.8689987  32.9575006  30.7655017
  81.8259987  33.5635006  29.9665017  81.5119987  34.3105006  29.2375017
  83.1669987  33.2315006  30.0845017  83.9109987  33.7185006  29.4535017
  83.5609987  32.2785006  31.0125017  84.8899987  31.9355006  31.1385017
  85.4609987  32.4165006  30.5345017  82.6239987  31.6625006  31.8155017
  82.9289987  30.9125006  32.5445017  81.2889987  32.0025006  31.6905017
  80.5429987  31.5205006  32.3225017  77.2229987  32.5775006  29.7455017
  76.4229987  33.3995006  29.3085017  76.8729987  31.5495006  30.5155017
  77.5969987  30.9145006  30.8205017  75.4999987  31.3015006  30.9585017
  74.8779987  32.1695006  30.7395017  74.9189987  30.0885006  30.2345017
  75.7579987  29.4205006  30.0385017  74.2339987  29.6145006  30.9375017
  74.1889987  30.3795006  28.9335017  73.4139987  31.1265006  29.1035017
  74.8939987  30.7505006  28.1895017  73.5519987  29.0945006  28.4305017
  74.1579987  28.2545006  28.7695017  72.5519987  29.0155006  28.8565017
  73.4459987  29.0385006  26.9785017  73.5599987  29.9085006  26.4775017
  73.2089987  27.9285006  26.2795017  73.0459987  26.7565006  26.8855017
  73.1019987  26.7005006  27.8925017  72.8669987  25.9275006  26.3365017
  73.1369987  27.9905006  24.9575017  73.2619987  28.8765006  24.4895017
  72.9579987  27.1515006  24.4245017  75.4519987  31.0105006  32.4535017
  76.3559987  30.3645006  32.9935017  74.3809987  31.4525006  33.1075017
  73.7029987  32.0365006  32.6395017  74.1819987  31.1595006  34.5225017
  75.1069987  31.3525006  35.0655017  73.0729987  32.0305006  35.1205017
  72.2639987  32.1415006  34.3985017  72.6849987  31.5785006  36.0335017
  73.5179987  33.4155006  35.4825017  74.2599987  33.6365006  36.6325017
  74.5179987  32.7905006  37.2695017  74.6739987  34.9155006  36.9765017
  75.2599987  35.0725006  37.8825017  74.3439987  35.9895006  36.1725017
  74.6659987  36.9965006  36.4395017  73.6009987  35.7825006  35.0235017
  73.3389987  36.6265006  34.3865017  73.1899987  34.5015006  34.6825017
  72.6029987  34.3405006  33.7785017  73.8509987  29.6835006  34.7275017
  73.1019987  29.0865006  33.9525017  74.4209987  29.1045006  35.7785017
  75.0549987  29.6375006  36.3565017  74.1609987  27.7175006  36.1365017
  74.1259987  27.0925006  35.2445017  75.2569987  27.1795006  37.0705017
  75.0949987  27.5815006  38.0705017  75.2229987  25.6585006  37.1235017
  75.3849987  25.2555006  36.1235017  76.0069987  25.3005006  37.7905017
  74.2529987  25.3285006  37.4945017  76.5399987  27.6165006  36.6075017
  77.2229987  27.2795006  37.1925017  72.8169987  27.6075006  36.8565017
  72.5569987  28.3655006  37.7845017  71.9579987  26.6615006  36.4355017
  72.0909987  25.8295006  35.2225017  72.9449987  25.1635006  35.3425017
  72.2559987  26.4795006  34.3635017  70.7849987  25.0855006  35.1375017
  70.9849987  24.0565006  34.8395017  70.1549987  25.5645006  34.3885017
  70.1519987  25.1485006  36.4825017  70.4549987  24.2915006  37.0835017
  69.0639987  25.1805006  36.4195017  70.6779987  26.4425006  37.1175017
  70.0489987  27.3065006  36.9035017  70.7959987  26.2615006  38.6325017
  71.8189987  25.7865006  39.1325017  69.7359987  26.6505006  39.3385017
  68.9509987  27.0495006  38.8435017  69.6589987  26.5525006  40.8015017
  70.4869987  25.9725006  41.2095017  69.6629987  27.9515006  41.4615017
  69.5219987  27.8335006  42.5355017  70.9769987  28.6705006  41.1985017
  71.1179987  28.7895006  40.1245017  70.9559987  29.6515006  41.6725017
  71.7999987  28.0865006  41.6105017  68.4959987  28.7945006  40.9665017
  67.5579987  28.2965006  41.2115017  68.5239987  29.7725006  41.4475017
  68.5689987  28.9185006  39.8865017  68.4069987  25.8175006  41.2865017
  68.3709987  25.3475006  42.4265017  67.3899987  25.7285006  40.4245017
  67.5129987  26.0775006  39.4845017  66.0829987  25.1775006  40.7955017
  65.9049987  25.3465006  41.8575017  64.9559987  25.8435006  39.9985017
  65.4719987  26.3525006  39.1845017  64.3259987  25.0525006  39.5915017
  64.0899987  26.8435006  40.7545017  64.7029987  27.6785006  41.0935017
  63.0019987  27.3585006  39.8245017  62.3879987  26.5235006  39.4855017
  62.3769987  28.0755006  40.3575017  63.4599987  27.8455006  38.9635017
  63.4839987  26.2095006  41.9985017  64.2819987  25.8695006  42.6585017
  62.8709987  26.9445006  42.5195017  62.8649987  25.3605006  41.7095017
  65.9849987  23.6775006  40.5845017  66.3759987  23.1615006  39.5385017
  65.4489987  22.9905006  41.5855017  65.2029987  23.4715006  42.4385017
  65.1899987  21.5635006  41.4995017  65.1289987  21.2565006  40.4555017
  66.2759987  20.7225006  42.1975017  66.2879987  19.7305006  41.7455017
  67.6599987  21.3635006  42.0585017  67.6489987  22.3555006  42.5105017
  68.4009987  20.7425006  42.5625017  67.9169987  21.4495006  41.0025017
  65.9539987  20.5705006  43.5845017  66.6329987  20.0465006  44.0155017
  63.8649987  21.2805006  42.1765017  63.4249987  22.0385006  43.0415017
  63.2459987  20.1745006  41.7925017  63.6709987  19.5805006  41.0945017
  61.9439987  19.8025006  42.3115017  61.4259987  20.6785006  42.7035017
  61.1059987  19.2035006  41.1845017  61.2119987  19.9525006  40.4005017
  61.6019987  18.2835006  40.8765017  59.6259987  18.9265006  41.4265017
  59.5409987  18.0025006  41.9985017  58.9529987  20.0565006  42.1865017
  59.0369987  20.9805006  41.6145017  57.8999987  19.8175006  42.3365017
  59.4379987  20.1835006  43.1545017  58.9449987  18.6835006  40.0845017
  59.4049987  17.8265006  39.5925017  57.8849987  18.4845006  40.2445017
  59.0569987  19.5665006  39.4545017  62.1029987  18.8135006  43.4575017
  62.9369987  17.9205006  43.4095017  61.3239987  19.0115006  44.5075017
  60.7329987  19.8305006  44.5285017  61.2819987  18.1025006  45.6405017
  61.8039987  17.1765006  45.3985017  61.9679987  18.7495006  46.8525017
  62.6999987  19.4525006  46.4545017  61.1939987  19.2975006  47.3895017
  62.6599987  17.7815006  47.8065017  62.8279987  18.3055006  48.7475017
  61.9749987  16.9505006  47.9715017  63.9839987  17.2495006  47.2785017
  64.6849987  17.9865006  46.5485017  64.3279987  16.0905006  47.6035017
  59.8009987  17.8505006  45.9075017  58.9509987  18.5165006  45.3135017
  59.4799987  16.9075006  46.7895017  60.1989987  16.3575006  47.2375017
  58.0789987  16.5955006  47.0885017  57.5759987  16.2745006  46.1765017
  57.9719987  15.4735006  48.1285017  58.6659987  14.6885006  47.8285017
  58.2709987  15.8705006  49.0985017  56.5649987  14.8975006  48.2275017
  55.6789987  15.5575006  48.8035017  56.3479987  13.7695006  47.7395017
  57.3319987  17.8355006  47.5765017  57.5869987  18.3365006  48.6675017
  56.4329987  18.3435006  46.7375017  56.3439987  17.9535006  45.8105017
  55.5619987  19.4535006  47.1075017  54.7349987  19.4295006  46.3975017
  55.1909987  19.2175006  48.1045017  56.1639987  20.8515006  47.1205017
  55.4219987  21.8175006  47.3045017  57.4809987  20.9775006  46.9165017
  58.0349987  20.1515006  46.7395017  58.1709987  22.2795006  46.9955017
  57.4759987  23.0845006  46.7545017  58.7129987  22.5075006  48.4175017
  59.0189987  21.5615006  48.8635017  59.5659987  23.1855006  48.3835017
  57.7069987  23.1255006  49.3625017  57.5599987  24.5115006  49.4395017
  58.1849987  25.1445006  48.8095017  56.6329987  25.0885006  50.3045017
  56.5339987  26.1725006  50.3535017  55.8359987  24.2835006  51.1025017
  55.1089987  24.7315006  51.7795017  55.9659987  22.9035006  51.0375017
  55.3389987  22.2685006  51.6635017  56.8969987  22.3295006  50.1735017
  56.9999987  21.2455006  50.1255017  59.3109987  22.3965006  45.9885017
  60.0289987  21.4365006  45.7645017  59.4709987  23.5705006  45.3815017
  58.7879987  24.3025006  45.5155017  60.6279987  23.8455006  44.5135017
  60.8939987  22.9405006  43.9675017  60.3119987  24.9575006  43.4985017
  59.7509987  25.7075006  44.0565017  61.2609987  25.3825006  43.1725017
  59.5139987  24.5275006  42.2935017  60.1319987  23.9445006  41.2025017
  61.2119987  23.7965006  41.2265017  59.4049987  23.5515006  40.0935017
  59.9069987  23.0845006  39.2465017  58.0459987  23.7515006  40.0615017
  57.3229987  23.3605006  38.9585017  57.8669987  22.9615006  38.2755017
  57.4109987  24.3405006  41.1295017  56.3329987  24.5015006  41.1075017
  58.1459987  24.7295006  42.2345017  57.6489987  25.2045006  43.0805017
  61.8239987  24.2995006  45.3565017  61.7399987  25.3295006  46.0165017
  62.9369987  23.5685006  45.3285017  62.9919987  22.7175006  44.7875017
  64.0899987  23.9395006  46.1645017  63.7729987  24.6715006  46.9075017
  64.6739987  22.7295006  46.8905017  63.8499987  22.1735006  47.3385017
  65.1769987  22.1025006  46.1535017  65.6649987  23.1315006  47.9765017
  66.3859987  23.8105006  47.5205017  65.1119987  23.6585006  48.7545017
  66.3949987  21.9565006  48.5855017  65.7619987  20.8995006  48.8135017
  67.6099987  22.1035006  48.8415017  65.2109987  24.6475006  45.4075017
  65.6949987  24.1525006  44.3905017  65.6489987  25.7835006  45.9545017
  65.2099987  26.1095006  46.8035017  66.7159987  26.5935006  45.3715017
  66.8379987  26.3995006  44.3055017  66.4309987  28.0955006  45.5695017
  66.3889987  28.3075006  46.6375017  67.5199987  28.9405006  44.9275017
  67.5619987  28.7285006  43.8595017  67.2979987  29.9965006  45.0795017
  68.4809987  28.7025006  45.3825017  65.0689987  28.4555006  44.9965017
  64.2969987  27.8775006  45.5035017  64.8819987  29.5195006  45.1435017
  65.0509987  28.2285006  43.9305017  68.0609987  26.2445006  46.0115017
  68.1409987  26.0345006  47.2215017  69.1119987  26.1935006  45.1925017
  68.9779987  26.3885006  44.2105017  70.4579987  25.8245006  45.6515017
  70.4289987  25.5315006  46.7015017  70.9849987  24.6395006  44.8255017
  70.2689987  23.8225006  44.9155017  71.0369987  24.9635006  43.7865017
  72.3599987  24.1625006  45.2775017  72.8569987  24.6405006  46.3225017
  72.9359987  23.2985006  44.5795017  71.4029987  27.0135006  45.5335017
  72.0949987  27.1635006  44.5295017  71.4479987  27.8415006  46.5745017
  70.8699987  27.6625006  47.3825017  72.1959987  29.1045006  46.5195017
  71.9419987  29.6365006  45.6025017  71.8579987  30.0055006  47.7215017
  71.8519987  29.4235006  48.6435017  72.6459987  30.7575006  47.7715017
  70.5229987  30.6875006  47.5495017  70.4269987  31.9305006  46.9305017
  71.3379987  32.4225006  46.5895017  69.1969987  32.5435006  46.7445017
  69.1349987  33.5215006  46.2675017  68.0419987  31.9065006  47.1725017
  66.8099987  32.4925006  46.9965017  66.8599987  33.3485006  46.5645017
  68.1169987  30.6725006  47.7785017  67.2109987  30.1705006  48.1175017
  69.3509987  30.0685006  47.9565017  69.4149987  29.0865006  48.4255017
  73.7099987  28.9335006  46.3515017  74.3939987  29.8815006  45.9665017
  74.2279987  27.7325006  46.6105017  73.6669987  27.0205006  47.0565017
  75.6159987  27.4105006  46.2665017  76.2879987  28.0025006  46.8875017
  75.9189987  25.9255006  46.4935017  75.1299987  25.3475006  46.0125017
  76.8779987  25.6795006  46.0375017  75.9699987  25.5475006  47.9625017
  76.5769987  26.2435006  48.7755017  75.3459987  24.4255006  48.3095017
  75.3489987  24.1275006  49.2745017  74.8719987  23.8765006  47.6065017
  75.9039987  27.7275006  44.8095017  76.9859987  28.2005006  44.4845017
  74.9269987  27.4575006  43.9435017  74.0569987  27.0895006  44.3005017
  75.0649987  27.6335006  42.4945017  76.1109987  27.5435006  42.2015017
  74.2569987  26.5525006  41.7655017  73.1959987  26.7515006  41.9145017
  74.4889987  26.6025006  40.7015017  74.5689987  25.2615006  42.2565017
  74.0509987  24.6055006  41.7845017  74.6069987  29.0045006  41.9935017
  74.6309987  29.2605006  40.7905017  74.2069987  29.8835006  42.9095017
  74.3139987  29.6655006  43.8895017  73.5369987  31.1325006  42.5455017
  72.6609987  30.9155006  41.9335017  73.0819987  31.8905006  43.8045017
  72.3059987  31.3255006  44.3205017  73.9279987  32.0405006  44.4755017
  72.5079987  33.2525006  43.5235017  73.3169987  34.3755006  43.5775017
  74.3699987  34.2565006  43.8315017  72.8089987  35.6285006  43.3155017
  73.4589987  36.5025006  43.3605017  71.4729987  35.7775006  42.9955017
  71.0659987  36.7665006  42.7855017  70.6499987  34.6645006  42.9425017
  69.5949987  34.7755006  42.6925017  71.1699987  33.4085006  43.2075017
  70.5239987  32.5315006  43.1685017  74.4169987  32.0205006  41.6775017
  73.9499987  32.5665006  40.6815017  75.6839987  32.1435006  42.0595017
  76.0039987  31.6325006  42.8695017  76.6339987  33.0175006  41.3715017
  76.1149987  33.8725006  40.9365017  77.6679987  33.5305006  42.3695017
  78.1989987  32.6965006  42.8285017  78.3809987  34.1805006  41.8625017
  77.0809987  34.3295006  43.4865017  76.6919987  35.6425006  43.3355017
  76.2129987  36.0935006  44.4795017  75.8479987  37.1175006  44.5655017
  76.2799987  35.1195006  45.3695017  75.9839987  35.1755006  46.3335017
  76.8209987  34.0055006  44.7745017  76.9599987  33.0925006  45.3525017
  77.3739987  32.3385006  40.2135017  78.0569987  33.0065006  39.4315017
  77.2319987  31.0225006  40.1045017  76.5389987  30.5505006  40.6675017
  78.0679987  30.2215006  39.2245017  79.1079987  30.5425006  39.2925017
  77.9809987  28.7555006  39.6435017  77.9259987  28.7335006  40.7315017
  77.0569987  28.3555006  39.2255017  79.1529987  27.9115006  39.1795017
  79.2539987  28.0415006  38.1025017  80.0479987  28.2875006  39.6765017
  78.9799987  26.4355006  39.4975017  78.0119987  26.0695006  40.2005017
  79.8199987  25.6335006  39.0355017  77.6499987  30.3705006  37.7675017
  76.4579987  30.3575006  37.4635017  78.6329987  30.5155006  36.8765017
  79.5849987  30.6065006  37.2005017  78.3849987  30.5285006  35.4265017
  77.3509987  30.2515006  35.2235017  78.6619987  31.8975006  34.7835017
  78.5229987  31.8105006  33.7055017  77.7269987  32.9605006  35.3295017
  77.8659987  33.0485006  36.4065017  77.9469987  33.9175006  34.8555017
  76.6949987  32.6805006  35.1185017  80.0219987  32.2735006  35.0235017
  80.1929987  33.1285006  34.6215017  79.2749987  29.5435006  34.6995017
  80.3029987  29.1135006  35.2255017  78.8679987  29.2135006  33.4775017
  77.9759987  29.5575006  33.1505017  79.6369987  28.3425006  32.5975017
  80.6679987  28.2875006  32.9465017  79.0509987  26.9305006  32.5805017
  79.7459987  26.3325006  31.9915017  79.0399987  26.5665006  33.6085017
  77.6619987  26.8155006  31.9905017  76.5339987  26.8975006  32.7965017
  76.6619987  27.0585006  33.8665017  75.2599987  26.7785006  32.2605017
  74.3829987  26.8475006  32.9045017  75.1049987  26.5715006  30.9015017
  73.8479987  26.4525006  30.3545017  73.1469987  26.5285006  31.0055017
  76.2109987  26.4835006  30.0885017  76.0899987  26.3235006  29.0175017
  77.4789987  26.5985006  30.6325017  78.3569987  26.5185006  29.9905017
  79.6559987  28.9095006  31.1915017  78.7709987  29.6745006  30.8175017
  80.6529987  28.5055006  30.4125017  81.3079987  27.8235006  30.7665017
  80.8779987  29.0545006  29.0785017  80.5819987  30.1025006  29.0425017
  82.3689987  28.9545006  28.7415017  82.9159987  29.1875006  29.6555017
  82.5599987  27.9195006  28.4575017  82.8299987  29.8785006  27.6265017
  82.3219987  29.5795006  26.7095017  82.5299987  30.8915006  27.8935017
  84.3329987  29.8365006  27.4095017  84.9199987  28.7325006  27.4685017
  84.9279987  30.9125006  27.1735017  80.0349987  28.3465006  27.9985017
  79.8179987  27.1265006  28.0625017  79.5519987  29.1215006  27.0245017
  79.6019987  30.1255006  27.1205017  78.9249987  28.5675006  25.8155017
  79.1489987  27.5045006  25.7305017  77.3929987  28.7545006  25.7735017
  77.0499987  28.6165006  24.7485017  76.7019987  27.7505006  26.6765017
  77.0439987  27.8875006  27.7025017  75.6239987  27.9015006  26.6305017
  76.9409987  26.7395006  26.3465017  77.0519987  30.0925006  26.1585017
  76.0989987  30.2005006  26.1295017  79.4679987  29.1885006  24.5415017
  80.0679987  30.2685006  24.5555017  79.2379987  28.4755006  23.4425017
  78.8519987  27.5475006  23.5415017  79.5369987  28.9575006  22.1075017
  80.6089987  29.1195006  21.9945017  79.0879987  27.9165006  21.0765017
  79.5909987  26.9745006  21.2965017  78.0099987  27.7825006  21.1685017
  79.4009987  28.3215006  19.7585017  79.1069987  27.6495006  19.1395017
  78.8099987  30.2835006  21.8885017  77.5889987  30.3545006  22.0055017
  79.5709987  31.3355006  21.6035017  80.5659987  31.2175006  21.4795017
  79.0119987  32.6775006  21.4785017  78.0099987  32.6295006  21.0525017
  78.9299987  33.3695006  22.8495017  79.9409987  33.5175006  23.2275017
  78.2279987  34.7155006  22.7405017  77.2159987  34.5685006  22.3625017
  78.1839987  35.1835006  23.7235017  78.7809987  35.3595006  22.0565017
  78.2119987  32.5345006  23.7635017  78.1609987  32.9665006  24.6195017
  79.8589987  33.5455006  20.5495017  81.0739987  33.6355006  20.7415017
  79.2199987  34.1915006  19.5495017  77.8069987  33.9995006  19.1655017
  77.1669987  34.3595006  19.9715017  77.6229987  32.9375006  19.0035017
  77.6579987  34.8035006  17.9085017  76.6679987  35.2585006  17.8805017
  77.7829987  34.1535006  17.0425017  78.7249987  35.8305006  17.9575017
  78.4099987  36.6855006  18.5555017  79.0249987  36.1705006  16.9665017
  79.8939987  35.1205006  18.6415017  80.4929987  34.5195006  17.9575017
  80.7959987  36.1505006  19.3425017  80.4809987  36.5965006  20.4505017
  81.9059987  36.5095006  18.6925017  82.1519987  36.0225006  17.8425017
  82.8059987  37.5655006  19.1755017  82.7659987  37.6155006  20.2635017
  84.2439987  37.2765006  18.7525017  84.2709987  37.1125006  17.6755017
  84.8669987  38.1345006  19.0045017  84.7319987  36.1295006  19.4145017
  85.6359987  35.9615006  19.1385017  82.4019987  38.9375006  18.6465017
  82.9979987  39.9515006  19.0125017  81.3799987  38.9555006  17.7925017
  80.8709987  38.0995006  17.6265017  80.9699987  40.1515006  17.0745017
  81.8449987  40.7405006  16.8005017  80.2179987  39.7655006  15.7945017
  79.4609987  39.0685006  16.1535017  79.7329987  40.6655006  15.4165017
  81.0249987  39.1075006  14.6655017  81.8899987  39.7395006  14.4615017
  81.4959987  37.7005006  15.0195017  80.6319987  37.0685006  15.2235017
  82.0609987  37.2855006  14.1845017  82.1319987  37.7415006  15.9035017
  80.1929987  39.0705006  13.3945017  79.9279987  40.0865006  13.1035017
  80.7689987  38.6025006  12.5955017  79.2839987  38.4955006  13.5715017
  80.0709987  41.0045006  17.9455017  79.4309987  40.4995006  18.8645017
  80.0289987  42.3005006  17.6545017  80.6699987  42.6895006  16.9775017
  79.0809987  43.1975006  18.3035017  79.1079987  43.0375006  19.3815017
  79.4239987  44.6645006  18.0165017  78.8909987  45.2895006  18.7325017
  80.4979987  44.7995006  18.1455017  79.0559987  45.0375006  16.6985017
  79.2829987  45.9585006  16.5515017  77.6879987  42.8765006  17.7765017
  77.5459987  42.3495006  16.6655017  76.6679987  43.1935006  18.5695017
  76.8439987  43.5655006  19.4915017  75.2809987  42.9605006  18.1685017
  75.1059987  41.8865006  18.1015017  74.3319987  43.5435006  19.2005017
  74.4889987  44.6195006  19.2725017  73.3029987  43.3465006  18.9005017
  74.5219987  43.0835006  20.1705017  75.0039987  43.5535006  16.7865017
  74.3199987  42.9375006  15.9645017  75.5529987  44.7455006  16.5495017
  76.0279987  45.2095006  17.3105017  75.4569987  45.4415006  15.2615017
  74.4149987  45.6535006  15.0235017  76.2229987  46.7685006  15.3365017
  75.6609987  47.4025006  16.0225017  77.1929987  46.5315006  15.7735017
  76.4269987  47.5045006  14.0155017  76.9479987  46.8485006  13.3185017
  75.4549987  47.7735006  13.6025017  77.2519987  48.7685006  14.2375017
  76.5719987  49.6185006  14.1875017  77.6849987  48.7085006  15.2365017
  78.3629987  48.9475006  13.2135017  79.1299987  49.5795006  13.6615017
  78.7819987  47.9635006  13.0015017  77.8889987  49.5665006  11.9485017
  77.5009987  50.4785006  12.1445017  78.6649987  49.6605006  11.3085017
  77.1789987  48.9815006  11.5325017  75.9809987  44.6115006  14.0945017
  75.3769987  44.5895006  13.0175017  77.1139987  43.9495006  14.2995017
  77.6149987  44.0475006  15.1705017  77.7129987  43.1395006  13.2435017
  77.6789987  43.6815006  12.2985017  79.1689987  42.8225006  13.5715017
  79.1939987  42.3925006  14.5725017  79.5139987  42.0825006  12.8495017
  80.0759987  44.0395006  13.5215017  80.1409987  44.3655006  12.4835017
  79.6149987  44.8255006  14.1205017  81.4659987  43.7535006  14.0485017
  81.9489987  42.6125006  13.8785017  82.0749987  44.6755006  14.6345017
  76.9139987  41.8605006  12.9935017  76.8809987  41.3555006  11.8715017
  76.2629987  41.3475006  14.0325017  76.4349987  41.6925006  14.9655017
  75.3449987  40.2265006  13.8685017  75.8559987  39.4075006  13.3615017
  74.8449987  39.7255006  15.2245017  74.9979987  40.5705006  15.8955017
  73.7809987  39.4945006  15.1695017  75.6049987  38.5075006  15.7565017
  76.6559987  38.6065006  15.4855017  75.4789987  38.4015006  17.2685017
  74.4279987  38.3025006  17.5395017  76.0279987  37.5275006  17.6195017
  75.8899987  39.2985006  17.7315017  75.1159987  37.2335006  15.0745017
  75.2789987  37.3105006  13.9995017  75.6669987  36.3775006  15.4645017
  74.0519987  37.1005006  15.2715017  74.1679987  40.5955006  12.9705017
  73.7339987  39.7935006  12.1455017  73.6569987  41.8105006  13.1295017
  73.9769987  42.3995006  13.8845017  72.5829987  42.3075006  12.2705017
  71.7429987  41.6155006  12.3305017  72.1189987  43.6755006  12.7435017
  72.9469987  44.3825006  12.6805017  71.2989987  44.0195006  12.1125017
  71.7779987  43.6065006  13.7765017  73.0219987  42.3725006  10.8035017
  72.2759987  41.9725006   9.9095017  74.2329987  42.8745006  10.5675017
  74.7679987  43.2525006  11.3365017  74.7969987  42.9675006   9.2135017
  74.1389987  43.5605006   8.5785017  76.1749987  43.6385006   9.2525017
  76.7769987  43.0975006   9.9825017  76.6169987  43.5255006   8.2625017
  76.1329987  45.1155006   9.6235017  75.5909987  45.6355006   8.8335017
  75.5869987  45.2115006  10.5615017  77.5149987  45.7285006   9.7775017
  78.4249987  45.0515006  10.3065017  77.6909987  46.8965006   9.3735017
  74.8999987  41.6015006   8.5155017  74.6799987  41.4985006   7.3055017
  75.2379987  40.5625006   9.2755017  75.5559987  40.7145006  10.2215017
  75.2049987  39.1875006   8.7655017  75.7699987  39.1325006   7.8355017
  75.8199987  38.2065006   9.7715017  75.3259987  38.4685006  10.7065017
  75.5269987  37.1995006   9.4755017  77.3359987  38.2595006   9.9645017
  77.6249987  39.2665006  10.2645017  77.7579987  37.2705006  11.0395017
  77.4699987  36.2625006  10.7405017  78.8389987  37.3145006  11.1705017
  77.2679987  37.5235006  11.9795017  78.0609987  37.9815006   8.6585017
  77.7769987  38.7295006   7.9185017  79.1379987  38.0255006   8.8235017
  77.7899987  36.9905006   8.2955017  73.7769987  38.7535006   8.4475017
  73.5389987  38.0785006   7.4465017  72.8359987  39.1395006   9.3065017
  73.1039987  39.6285006  10.1485017  71.4249987  38.8075006   9.1165017
  71.3639987  37.7345006   8.9355017  70.6289987  39.1345006  10.3745017
  70.6729987  40.2065006  10.5645017  69.5909987  38.8325006  10.2365017
  71.0529987  38.5985006  11.2235017  70.8169987  39.5135006   7.8965017
  70.0349987  38.9055006   7.1625017  71.1749987  40.7875006   7.6925017
  71.7589987  41.2435006   8.3785017  70.7169987  41.5745006   6.5295017
  69.6299987  41.6495006   6.5465017  71.3079987  42.9955006   6.5535017
  72.3669987  42.9145006   6.7975017  71.1969987  43.4425006   5.5655017
  70.6419987  43.9035006   7.5755017  69.5939987  43.5805006   8.1345017
  71.2499987  45.0605006   7.8125017  70.8559987  45.7065006   8.4815017
  72.1029987  45.2885006   7.3225017  71.0739987  40.9265006   5.1925017
  70.2599987  40.9185006   4.2655017  72.2949987  40.4075006   5.0995017
  72.9629987  40.5605006   5.8415017  72.7369987  39.6845006   3.9075017
  72.3769987  40.1955006   3.0145017  74.2659987  39.6155006   3.8485017
  74.6239987  39.4225006   4.8595017  74.5309987  38.7775006   3.2035017
  74.9089987  40.8845006   3.3185017  74.3739987  41.1835006   2.4175017
  74.8029987  41.6595006   4.0775017  76.3829987  40.6915006   2.9925017
  76.5339987  39.6645006   2.6605017  76.6539987  41.3765006   2.1895017
  77.2559987  40.9465006   4.1415017  77.5249987  41.9105006   4.2775017
  77.7159987  40.0295006   4.9975017  77.3959987  38.7445006   4.8775017
  76.7919987  38.4455006   4.1255017  77.7579987  38.0735006   5.5395017
  78.5069987  40.4115006   5.9945017  78.7519987  41.3865006   6.0955017
  78.8599987  39.7255006   6.6465017  72.1369987  38.2765006   3.8245017
  71.9109987  37.7685006   2.7245017  71.8829987  37.6595006   4.9825017
  72.1559987  38.1105006   5.8445017  71.2829987  36.3175006   5.0565017
  71.8499987  35.6615006   4.3965017  71.3699987  35.7725006   6.4775017
  70.7989987  36.4145006   7.1485017  70.9609987  34.7625006   6.5055017
  72.4119987  35.7505006   6.7955017  69.8299987  36.3085006   4.5795017
  69.4269987  35.4295006   3.8145017  69.0499987  37.2865006   5.0375017
  69.4059987  37.9315006   5.7285017  67.6539987  37.4195006   4.6175017
  67.1669987  36.4445006   4.6465017  66.8979987  38.3715006   5.5475017
  67.2409987  38.1745006   6.5635017  67.1699987  39.3885006   5.2635017
  65.3879987  38.2145006   5.4835017  65.0409987  38.6655006   4.5545017
  65.1649987  37.1475006   5.4745017  64.6839987  38.8665006   6.6545017
  64.8769987  40.0805006   6.8625017  63.9339987  38.1655006   7.3655017
  67.5549987  37.8995006   3.1665017  66.6369987  37.5105006   2.4445017
  68.5089987  38.7275006   2.7405017  69.1979987  39.0765006   3.3905017
  68.5489987  39.2145006   1.3555017  67.5389987  39.4285006   1.0065017
  69.3789987  40.4995006   1.2715017  69.0299987  41.1905006   2.0385017
  70.4249987  40.2515006   1.4545017  69.2539987  41.1075006  -0.0034983
  69.7829987  41.9085006  -0.0294983  69.0939987  38.1805006   0.3525017
  69.0209987  38.4015006  -0.8604983  69.6279987  37.0645006   0.8555017
  69.6589987  36.9515006   1.8585017  70.2269987  36.0165006   0.0175017
  70.7159987  36.4615006  -0.8494983  71.2769987  35.2395006   0.8285017
  71.9389987  35.9445006   1.3315017  70.7489987  34.6435006   1.5725017
  72.1179987  34.3115006  -0.0264983  72.4899987  34.6415006  -1.1514983
  72.4389987  33.1455006   0.5175017  72.9979987  32.4855006  -0.0034983
  72.1229987  32.9235006   1.4505017  69.1899987  35.0445006  -0.5514983
  67.9839987  35.2195006  -0.3774983  69.5449987  34.0705006  -1.2124983
  17.6099987  59.1975006  39.7905017  18.0589987  59.4185006  40.6675017
  16.6639987  58.8955006  39.9765017  17.7809987  59.9505006  39.1395017
  18.2949987  58.0085006  39.2055017  17.5639987  57.2065006  39.1025017
  18.9049987  58.3285006  37.8255017  18.1189987  58.6675006  37.1505017
  19.9539987  59.4245006  37.9755017  20.7399987  59.0855006  38.6505017
  20.3849987  59.6515006  37.0005017  19.4869987  60.3215006  38.3835017
  19.5589987  57.0745006  37.2565017  18.8099987  56.2905006  37.1495017
  20.3449987  56.7365006  37.9315017  20.1619987  57.3895006  35.8925017
  20.9119987  58.1735006  35.9985017  20.6299987  56.4925006  35.4855017
  19.3759987  57.7275006  35.2165017  19.3919987  57.4965006  40.1475017
  20.0459987  58.2705006  40.8485017  19.5779987  56.1805006  40.1665017
  18.9989987  55.5825006  39.5945017  20.5909987  55.5595006  41.0105017
  20.5529987  55.9905006  42.0115017  20.3469987  54.0495006  41.1175017
  19.3399987  53.9235006  41.5155017  20.3879987  53.6535006  40.1025017
  21.3389987  53.2965006  41.9965017  21.2539987  52.2325006  41.7765017
  22.3429987  53.6395006  41.7475017  21.1099987  53.5045006  43.4825017
  20.2759987  54.3095006  43.8935017  21.8549987  52.7715006  44.2975017
  21.7469987  52.8665006  45.2975017  22.5269987  52.1215006  43.9155017
  21.9639987  55.8175006  40.4175017  22.1709987  55.6545006  39.2145017
  22.8969987  56.2285006  41.2645017  22.6399987  56.5435006  42.1895017
  24.2899987  56.3295006  40.8645017  24.3719987  56.1455006  39.7935017
  24.8639987  57.7245006  41.1685017  25.8879987  57.7105006  40.7955017
  24.2719987  58.4225006  40.5765017  24.8609987  58.1675006  42.6335017
  23.9769987  57.7535006  43.1185017  25.7569987  57.7755006  43.1155017
  24.8419987  59.6885006  42.7555017  23.8999987  60.0615006  42.3535017
  24.9189987  59.9575006  43.8095017  25.9469987  60.3215006  42.0275017
  26.8279987  59.8275006  42.0445017  25.8789987  61.4815006  41.3655017
  24.7489987  62.1835006  41.3015017  23.9179987  61.8395006  41.7605017
  24.7279987  63.0565006  40.7935017  26.9599987  61.9455006  40.7465017
  27.8219987  61.4205006  40.7805017  26.9139987  62.8215006  40.2455017
  25.0889987  55.2245006  41.5415017  24.6279987  54.5885006  42.4915017
  26.2799987  54.9895006  41.0085017  26.5429987  55.5065006  40.1815017
  27.2229987  54.0135006  41.5435017  26.6939987  53.1485006  41.9445017
  28.1449987  53.5425006  40.4125017  27.5349987  53.3985006  39.5215017
  28.8269987  54.3785006  40.2545017  28.9419987  52.2875006  40.6855017
  28.3659987  51.1795006  41.3025017  27.3199987  51.2305006  41.6045017
  29.0969987  50.0295006  41.5335017  28.6379987  49.1735006  42.0285017
  30.4079987  49.9665006  41.1295017  31.1299987  48.8255006  41.3555017
  30.6219987  48.1415006  41.7985017  30.9989987  51.0435006  40.5065017
  32.0409987  50.9945006  40.1905017  30.2619987  52.1915006  40.2825017
  30.7199987  53.0435006  39.7795017  28.0399987  54.6445006  42.6575017
  28.3179987  54.0125006  43.6735017  28.4129987  55.9035006  42.4485017
  28.1209987  56.3545006  41.5935017  29.2359987  56.6605006  43.3815017
  29.3439987  56.1595006  44.3435017  30.6409987  56.9055006  42.7925017
  30.5339987  57.3825006  41.8185017  31.4669987  57.7995006  43.7065017
  31.5749987  57.3235006  44.6805017  32.4529987  57.9565006  43.2685017
  30.9659987  58.7605006  43.8255017  31.3499987  55.5825006  42.5415017
  30.7699987  54.9865006  41.8375017  32.3399987  55.7735006  42.1265017
  31.4489987  55.0395006  43.4815017  28.5799987  58.0045006  43.6915017
  28.1269987  58.7175006  42.7935017  28.5409987  58.3465006  44.9695017
  28.8829987  57.7095006  45.6745017  27.9949987  59.6205006  45.3995017
  27.0859987  59.8465006  44.8425017  27.6549987  59.5605006  46.8815017
  28.5539987  59.2315006  47.4025017  27.4059987  60.5745006  47.1935017
  26.5039987  58.6295006  47.2205017  25.5589987  59.1055006  46.9585017
  26.6089987  57.6995006  46.6625017  26.5239987  58.3315006  48.7075017
  27.2259987  57.5165006  48.8845017  26.8649987  59.2245006  49.2315017
  25.2219987  57.9495006  49.2355017  24.4109987  58.1755006  48.6775017
  25.0379987  57.3365006  50.4045017  26.0729987  57.0165006  51.1785017
  27.0109987  57.2395006  50.8795017  25.9149987  56.5525006  52.0615017
  23.8079987  57.0285006  50.7995017  23.0189987  57.2605006  50.2125017
  23.6669987  56.5635006  51.6855017  28.9829987  60.7575006  45.1595017
  30.1929987  60.5365006  45.0445017  28.4609987  61.9815006  45.1185017
  27.4619987  62.1035006  45.2075017  29.2839987  63.1625006  44.8785017
  29.8379987  63.0455006  43.9475017  28.4049987  64.4085006  44.7705017
  27.8349987  64.4855006  45.6965017  29.0689987  65.2685006  44.6805017
  27.4469987  64.3805006  43.5855017  27.8079987  63.6385006  42.8735017
  26.4629987  64.0855006  43.9495017  27.3479987  65.7365006  42.8995017
  26.4559987  65.7375006  42.2725017  27.2509987  66.5015006  43.6695017
  28.5749987  66.0335006  42.0385017  28.6659987  67.1155006  41.9435017
  29.4509987  65.6395006  42.5535017  28.4799987  65.4235006  40.6835017
  27.6689987  65.7885006  40.2055017  29.3109987  65.6475006  40.1545017
  28.3959987  64.4205006  40.7705017  30.3379987  63.3525006  45.9635017
  31.4139987  63.8945006  45.7085017  30.0269987  62.8965006  47.1735017
  29.1019987  62.5295006  47.3485017  30.9529987  63.0045006  48.2985017
  31.5449987  63.9145006  48.1965017  30.1939987  63.0585006  49.6415017
  30.8959987  63.3665006  50.4165017  29.4149987  63.8135006  49.5355017
  29.5619987  61.7295006  50.0295017  30.2369987  60.6875006  49.8875017
  28.3969987  61.7365006  50.4895017  31.9919987  61.8885006  48.3115017
  32.9269987  61.9415006  49.1005017  31.8139987  60.8725006  47.4695017
  30.9629987  60.8085006  46.9295017  32.8259987  59.8285006  47.2975017
  33.0649987  59.8065006  46.2345017  33.7009987  60.1545006  47.8595017
  32.4439987  58.4295006  47.7465017  33.0549987  57.4555006  47.3045017
  31.4469987  58.3175006  48.6195017  31.0199987  59.1425006  49.0165017
  30.9969987  57.0085006  49.0915017  31.8599987  56.4145006  49.3915017
  30.0609987  57.1465006  50.2875017  29.2369987  57.7965006  49.9925017
  29.6739987  56.1555006  50.5235017  30.7509987  57.7265006  51.5125017
  31.7909987  57.3995006  51.5035017  30.7119987  58.8135006  51.4415017
  30.0919987  57.2795006  52.8045017  29.0389987  57.5615006  52.7765017
  30.1749987  56.1955006  52.8835017  30.7579987  57.9275006  54.0085017
  31.8379987  57.8405006  53.8925017  30.4789987  58.9815006  54.0305017
  30.3419987  57.2785006  55.2805017  30.5999987  56.3025006  55.2605017
  30.8019987  57.7325006  56.0565017  29.3409987  57.3595006  55.3885017
  30.3249987  56.2065006  47.9845017  29.7519987  56.7735006  47.0565017
  30.4009987  54.8835006  48.1055017  30.7749987  54.4905006  48.9575017
  29.9799987  53.9715006  47.0505017  29.7609987  54.5245006  46.1375017
  31.0939987  52.9815006  46.7625017  31.3649987  52.4165006  47.6545017
  30.8169987  52.2905006  45.9665017  32.5989987  53.7985006  46.2125017
  33.3139987  52.6875006  46.0635017  28.7329987  53.2055006  47.4315017
  28.6699987  52.6185006  48.5095017  27.7609987  53.1935006  46.5225017
  27.9019987  53.6815006  45.6495017  26.4779987  52.5465006  46.7525017
  26.2059987  52.6155006  47.8055017  25.3939987  53.2355006  45.9225017
  25.7089987  53.2265006  44.8795017  24.4579987  52.6855006  46.0235017
  25.1599987  54.6675006  46.3445017  25.2049987  54.9925006  47.5285017
  24.8919987  55.5335006  45.3755017  24.7269987  56.5045006  45.6015017
  24.8539987  55.2185006  44.4165017  26.5029987  51.0575006  46.4225017
  25.8829987  50.6205006  45.4575017  27.2159987  50.2835006  47.2375017
  27.7199987  50.7065006  48.0045017  27.3119987  48.8355006  47.0595017
  26.4499987  48.4225006  46.5355017  28.5889987  48.4485006  46.2895017
  29.4519987  48.8585006  46.8145017  28.7289987  46.9345006  46.1885017
  27.8669987  46.5235006  45.6635017  29.6389987  46.6885006  45.6405017
  28.7819987  46.5065006  47.1895017  28.5999987  49.0955006  44.9075017
  28.5669987  50.1795006  45.0135017  29.5099987  48.8105006  44.3795017
  27.7309987  48.7595006  44.3415017  27.3309987  48.1365006  48.4085017
  27.9699987  48.6045006  49.3465017  26.6239987  47.0175006  48.5025017
  26.0179987  46.7415006  47.7425017  26.6479987  46.1895006  49.7035017
  27.3749987  46.5955006  50.4075017  25.2749987  46.1495006  50.3855017
  24.4869987  45.9135006  49.6705017  25.2919987  45.3925006  51.1695017
  24.8839987  47.4425006  51.0445017  25.8039987  48.3125006  51.5955017
  25.1729987  49.3505006  52.1135017  25.7279987  50.1555006  52.5955017
  23.8759987  49.1855006  51.9235017  23.1479987  49.8225006  52.2135017
  23.6669987  47.9985006  51.2615017  22.6529987  47.6815006  51.0175017
  27.1039987  44.7915006  49.3405017  26.7309987  44.2525006  48.3005017
  27.9249987  44.2105006  50.1995017  28.1929987  44.6875006  51.0485017
  28.5059987  42.9145006  49.9285017  28.4499987  42.6835006  48.8645017
  29.9659987  42.9365006  50.3445017  30.0169987  43.0865006  51.4225017
  30.4899987  42.0175006  50.0805017  30.7279987  44.0565006  49.7215017
  31.2469987  43.9825006  48.4475017  31.8509987  45.1205006  48.1555017
  32.3369987  45.2575006  47.1895017  31.7319987  45.9345006  49.1885017
  32.0979987  46.8735006  49.2515017  31.0229987  45.2965006  50.1775017
  30.8069987  45.8125006  51.1125017  27.7219987  41.8445006  50.6645017
  27.9679987  41.5805006  51.8355017  26.7659987  41.2405006  49.9665017
  26.6479987  41.4645006  48.9885017  25.8719987  40.2575006  50.5615017
  25.8519987  40.4275006  51.6375017  24.8749987  40.4155006  50.1505017
  26.2929987  38.8265006  50.2965017  27.0179987  38.5415006  49.3445017
  25.8119987  37.9235006  51.1455017  25.2829987  38.2435006  51.9445017
  26.0969987  36.4955006  51.0315017  25.7179987  35.9785006  51.9125017
  25.4339987  35.8955006  49.7895017  25.8369987  36.3675006  48.8935017
  25.6569987  34.8285006  49.7685017  23.9309987  36.0755006  49.7965017
  23.1939987  35.1845006  50.2145017  23.4669987  37.2405006  49.3515017
  22.4719987  37.4115006  49.3355017  24.1119987  37.9485006  49.0315017
  27.5839987  36.2045006  51.0385017  28.0759987  35.4145006  50.2365017
  28.2919987  36.8595006  51.9545017  27.8759987  37.6245006  52.4655017
  29.6739987  36.5155006  52.2345017  30.2209987  36.3035006  51.3165017
  30.4009987  37.6405006  52.9915017  29.8429987  37.8735006  53.8985017
  31.8169987  37.2125006  53.3615017  32.3749987  36.9795006  52.4545017
  32.3139987  38.0225006  53.8965017  31.7749987  36.3295006  53.9985017
  30.4279987  38.9025006  52.1515017  29.4069987  39.2185006  51.9365017
  30.9449987  39.6915006  52.6975017  30.9509987  38.7055006  51.2155017
  29.6469987  35.2395006  53.0715017  29.4929987  35.2885006  54.2955017
  29.7649987  34.0955006  52.4015017  29.8509987  34.1095006  51.3955017
  29.6899987  32.7995006  53.0725017  28.7689987  32.7365006  53.6515017
  29.7019987  31.6605006  52.0455017  28.8709987  31.7875006  51.3515017
  30.6419987  31.6785006  51.4935017  29.5619987  30.3235006  52.7665017
  30.3929987  30.1955006  53.4605017  28.6219987  30.3045006  53.3185017
  29.5739987  29.1915006  51.7445017  28.7429987  29.3185006  51.0505017
  30.5139987  29.2085006  51.1925017  29.4389987  27.8775006  52.4095017
  29.3559987  27.8515006  53.4155017  29.4219987  26.7265006  51.7415017
  29.5249987  26.6785006  50.4165017  29.6199987  27.5345006  49.8895017
  29.5079987  25.7865006  49.9435017  29.2969987  25.6015006  52.4405017
  29.2189987  25.6415006  53.4465017  29.2809987  24.7125006  51.9615017
  30.8219987  32.6225006  54.0955017  30.5909987  32.1165006  55.1935017
  32.0299987  33.0625006  53.7455017  32.1529987  33.5195006  52.8535017
  33.2119987  32.8485006  54.5845017  33.0339987  32.0285006  55.2805017
  34.4149987  32.4945006  53.7095017  34.4479987  33.2045006  52.8825017
  35.3139987  32.6025006  54.3165017  34.3419987  31.0815006  53.1605017
  34.5029987  30.4045006  53.9995017  33.3419987  30.9255006  52.7555017
  35.3689987  30.8055006  52.0865017  35.4289987  31.5785006  51.1075017
  36.1079987  29.8075006  52.2135017  33.5229987  34.0615006  55.4485017
  34.5069987  34.7575006  55.2315017  32.6839987  34.2945006  56.4455017
  31.9209987  33.6575006  56.6265017  32.7999987  35.4895006  57.2765017
  32.9549987  36.3625006  56.6435017  31.5189987  35.6965006  58.0905017
  31.6649987  36.5315006  58.7755017  30.3509987  35.9945006  57.1735017
  30.2039987  35.1595006  56.4885017  29.4489987  36.1385006  57.7685017
  30.5579987  36.8995006  56.6025017  31.2339987  34.5055006  58.8305017
  30.4319987  34.6315006  59.3425017  33.9869987  35.4745006  58.2465017
  34.3959987  36.5265006  58.7265017  34.5409987  34.2985006  58.5385017
  34.1439987  33.4485006  58.1645017  35.7059987  34.1905006  59.4345017
  35.4279987  34.5305006  60.4325017  36.2039987  32.7405006  59.5315017
  36.9399987  32.7195006  60.3345017  35.3669987  32.0915006  59.7885017
  36.8429987  32.2545006  58.2495017  38.1709987  32.5425006  57.9625017
  38.7529987  33.1095006  58.6885017  38.7569987  32.1245006  56.7815017
  39.8019987  32.3535006  56.5725017  38.0089987  31.4065006  55.8635017
  38.5949987  30.9995006  54.6925017  39.5139987  31.2665006  54.6205017
  36.6859987  31.1055006  56.1175017  36.0969987  30.5375006  55.3975017
  36.1079987  31.5325006  57.3015017  35.0619987  31.3075006  57.5095017
  36.8649987  35.0765006  58.9755017  37.6549987  35.5245006  59.8005017
  36.9699987  35.3105006  57.6635017  36.2919987  34.9025006  57.0355017
  38.0679987  36.1025006  57.0855017  39.0169987  35.6075006  57.2935017
  37.9169987  36.2525006  55.5735017  37.0389987  36.8715006  55.3925017
  38.8049987  36.7665006  55.2055017  37.7609987  34.9295006  54.8465017
  38.2539987  34.1535006  55.4315017  36.6979987  34.7025006  54.7655017
  38.3709987  34.9825006  53.4665017  38.1479987  35.9595006  53.0375017
  39.4499987  34.8705006  53.5715017  37.8799987  33.9505006  52.5595017
  37.1799987  33.3105006  52.9075017  38.2989987  33.8115006  51.3045017
  39.2279987  34.6255006  50.8035017  39.6189987  35.3565006  51.3805017
  39.5359987  34.5075006  49.8485017  37.7939987  32.8515006  50.5425017
  37.0929987  32.2295006  50.9185017  38.1129987  32.7465006  49.5895017
  38.1579987  37.4805006  57.7105017  39.2499987  38.0225006  57.8655017
  37.0059987  38.0325006  58.0745017  36.1389987  37.6015006  57.7875017
  36.9429987  39.2885006  58.8105017  37.4539987  40.0745006  58.2545017
  35.4809987  39.7015006  59.0115017  34.9939987  38.8875006  59.5485017
  35.4789987  40.5975006  59.6315017  34.7269987  39.9785006  57.7175017
  35.1329987  40.9915006  56.8555017  36.0029987  41.5915006  57.1225017
  34.4529987  41.2445006  55.6755017  34.7939987  42.0355006  55.0075017
  33.3389987  40.4925006  55.3465017  32.6559987  40.7515006  54.1755017
  33.0399987  41.4715006  53.6685017  32.9139987  39.4855006  56.1875017
  32.0379987  38.8895006  55.9335017  33.6069987  39.2335006  57.3605017
  33.2779987  38.4365006  58.0275017  37.6829987  39.2005006  60.1615017
  38.3059987  40.1765006  60.6045017  37.6209987  38.0275006  60.7965017
  37.0139987  37.3025006  60.4425017  38.3629987  37.7705006  62.0375017
  38.3629987  38.6745006  62.6475017  37.7379987  36.6315006  62.8505017
  37.9619987  35.7655006  62.2275017  38.3019987  36.5645006  63.7815017
  36.2309987  36.6605006  63.1645017  35.6789987  36.2305006  62.3285017
  35.9519987  35.8505006  64.4275017  36.5029987  36.2795006  65.2645017
  34.8839987  35.8735006  64.6465017  36.2689987  34.8185006  64.2755017
  35.6689987  38.0715006  63.3165017  35.8199987  38.6255006  62.3895017
  34.6029987  38.0165006  63.5365017  36.1819987  38.5815006  64.1315017
  39.8249987  37.4485006  61.7655017  40.6749987  37.7315006  62.5965017
  40.1209987  36.8585006  60.6105017  39.3839987  36.5695006  59.9835017
  41.5049987  36.5545006  60.2415017  41.9519987  35.9515006  61.0315017
  41.6039987  35.7795006  58.9165017  41.3909987  36.4585006  58.0905017
  42.9909987  35.2005006  58.7475017  43.2049987  34.5215006  59.5725017
  43.0449987  34.6555006  57.8055017  43.7239987  36.0075006  58.7425017
  40.6589987  34.7095006  58.9075017  40.7259987  34.2305006  58.0785017
  42.3649987  37.8115006  60.1355017  43.4669987  37.8415006  60.6815017
  41.8919987  38.8375006  59.4285017  41.1909987  38.7015006  58.7145017
  42.5629987  40.1515006  59.5105017  43.4359987  40.0435006  60.1545017
  43.0239987  40.7145006  58.1425017  43.6369987  41.5875006  58.3655017
  43.6359987  39.9585006  57.6505017  41.8939987  41.1145006  57.2325017
  40.8499987  40.4355006  57.2415017  42.0739987  42.1045006  56.4865017
  41.7389987  41.1335006  60.3505017  41.1619987  42.1075006  59.8635017
  41.7299987  40.8325006  61.6425017  42.2029987  39.9925006  61.9435017
  41.0019987  41.6035006  62.6315017  39.9359987  41.6745006  62.4155017
  41.2029987  40.9935006  64.0425017  41.0379987  39.9175006  63.9845017
  42.6089987  41.2635006  64.5615017  42.7749987  42.3395006  64.6205017
  42.7219987  40.8245006  65.5525017  43.3379987  40.8205006  63.8835017
  40.1319987  41.5005006  65.0205017  40.5039987  41.3265006  66.0305017
  40.0199987  42.5725006  64.8545017  38.7859987  40.8205006  64.8535017
  38.8969987  39.7485006  65.0195017  38.0799987  41.2285006  65.5765017
  38.4129987  40.9945006  63.8445017  41.3799987  43.0925006  62.6365017
  40.5189987  43.9485006  62.8435017  42.6519987  43.4115006  62.4085017
  43.3489987  42.7055006  62.2165017  43.0859987  44.8055006  62.5105017
  42.8159987  45.1875006  63.4945017  44.5929987  44.9595006  62.3245017
  45.1119987  44.2045006  62.9155017  44.8749987  44.8565006  61.2765017
  45.1119987  46.2925006  62.7795017  45.2499987  46.5685006  64.1375017
  44.9809987  45.8005006  64.8625017  45.7209987  47.7965006  64.5725017
  45.8299987  47.9955006  65.6385017  46.0539987  48.7755006  63.6465017
  46.4239987  49.7435006  63.9835017  45.9149987  48.5195006  62.2875017
  46.1749987  49.2855006  61.5575017  45.4429987  47.2835006  61.8605017
  45.3289987  47.0825006  60.7955017  42.3489987  45.6805006  61.5085017
  41.9049987  46.7745006  61.8445017  42.1999987  45.1845006  60.2845017
  42.6779987  44.3375006  60.0115017  41.4579987  45.9155006  59.2685017
  41.8789987  46.9195006  59.2045017  41.5509987  45.2495006  57.8715017
  40.9819987  44.3205006  57.8855017  40.9949987  46.1645006  56.8045017
  41.5639987  47.0945006  56.7895017  41.0699987  45.6775006  55.8325017
  39.9489987  46.3825006  57.0215017  42.9189987  44.9815006  57.5385017
  42.9629987  44.5695006  56.6725017  39.9979987  46.1225006  59.7245017
  39.5159987  47.2495006  59.6675017  39.3079987  45.0785006  60.2065017
  39.7199987  44.1575006  60.2625017  37.9189987  45.2575006  60.6895017
  37.3009987  45.6095006  59.8635017  37.2729987  43.9865006  61.2835017
  36.3759987  44.2885006  61.8245017  36.9099987  42.9865006  60.2405017
  37.8059987  42.6835006  59.6995017  36.4599987  42.1135006  60.7145017
  36.1979987  43.4295006  59.5445017  38.1689987  43.3845006  62.2125017
  37.7659987  42.5945006  62.5805017  37.8369987  46.2925006  61.8025017
  36.9029987  47.0895006  61.8345017  38.7949987  46.2625006  62.7255017
  39.5319987  45.5735006  62.6725017  38.7799987  47.1725006  63.8655017
  37.8389987  47.0665006  64.4055017  39.9269987  46.8665006  64.8205017
  40.6379987  46.2985006  64.2205017  40.3959987  47.7895006  65.1615017
  39.5029987  46.0375006  66.0255017  38.7269987  45.3385006  65.7125017
  40.6829987  45.2615006  66.6025017  41.4589987  45.9595006  66.9165017
  40.3499987  44.6785006  67.4615017  41.0839987  44.5905006  65.8425017
  38.8639987  46.9515006  67.0665017  37.9909987  47.4405006  66.6345017
  38.5589987  46.3615006  67.9305017  39.5849987  47.7065006  67.3795017
  38.8509987  48.6285006  63.4375017  37.9759987  49.4175006  63.7755017
  39.8929987  48.9775006  62.6925017  40.6159987  48.3025006  62.4865017
  40.0789987  50.3585006  62.2325017  39.9289987  51.0785006  63.0375017
  41.4809987  50.5725006  61.6365017  41.5499987  51.5815006  61.2305017
  42.5299987  50.3895006  62.7135017  42.4619987  49.3805006  63.1205017
  43.5209987  50.5425006  62.2855017  42.3629987  51.1135006  63.5105017
  41.7379987  49.6355006  60.4645017  40.9999987  49.8185006  59.6835017
  42.7379987  49.8145006  60.0685017  41.6609987  48.6015006  60.8015017
  39.0179987  50.8225006  61.2255017  38.7929987  52.0275006  61.0615017
  38.3759987  49.8635006  60.5565017  38.6849987  48.9065006  60.6545017
  37.2709987  50.1465006  59.6355017  37.4869987  51.0555006  59.0745017
  37.0749987  48.9895006  58.6405017  37.2119987  48.0545006  59.1845017
  36.0509987  49.0475006  58.2715017  38.0489987  49.0385006  57.4565017
  39.0979987  49.7225006  57.5255017  37.7519987  48.3715006  56.4435017
  35.9469987  50.4125006  60.3575017  35.0059987  50.8995006  59.7365017
  35.8719987  50.0945006  61.6505017  36.6599987  49.6505006  62.1005017
  34.6449987  50.3025006  62.4375017  33.7929987  49.8765006  61.9075017
  34.7579987  49.6245006  63.8105017  35.8069987  49.7535006  64.0775017
  34.1339987  50.1805006  64.5105017  34.3959987  48.1445006  63.8715017
  34.7869987  47.6605006  62.9765017  34.9729987  47.4685006  65.1065017
  34.5819987  47.9515006  66.0015017  34.6909987  46.4155006  65.1105017
  36.0599987  47.5535006  65.0935017  32.8869987  48.0025006  63.8415017
  32.4989987  48.4375006  62.9205017  32.6199987  46.9465006  63.8845017
  32.4559987  48.5215006  64.6975017  34.2589987  51.7755006  62.6475017
  35.0589987  52.6925006  62.4605017  33.0159987  51.9875006  63.0575017
  32.3559987  51.2245006  63.1105017  32.5619987  53.3195006  63.4255017
  32.8909987  54.0345006  62.6715017  31.0329987  53.3825006  63.5255017
  30.7679987  53.0025006  64.5115017  30.7579987  54.4345006  63.4565017
  30.2849987  52.5905006  62.4575017  30.6469987  52.9115006  61.4805017
  30.5099987  51.5335006  62.5985017  28.7829987  52.8035006  62.5355017
  28.2969987  52.0135006  61.9625017  28.4829987  52.7305006  63.5805017
  28.3679987  54.1575006  61.9835017  28.6139987  54.9215006  62.7215017
  28.9289987  54.3435006  61.0675017  26.9089987  54.2035006  61.6895017
  26.3889987  54.0315006  62.5385017  26.6669987  55.1145006  61.3255017
  26.6809987  53.4965006  61.0055017  33.1999987  53.6395006  64.7695017
  33.4969987  52.7325006  65.5465017  33.4099987  54.9235006  65.0395017
  33.1589987  55.6215006  64.3535017  34.1039987  55.3635006  66.2625017
  35.0959987  54.9135006  66.2995017  34.2569987  56.8945006  66.2925017
  33.4469987  57.3495006  65.7225017  34.2519987  57.2895006  67.3085017
  35.5279987  57.3505006  65.6645017  35.6849987  57.9145006  64.4315017
  34.7829987  58.0685006  63.8395017  37.0129987  58.1755006  64.2005017
  37.3939987  58.5905006  63.3625017  37.7399987  57.7775006  65.2925017
  39.1129987  57.8365006  65.5315017  39.7589987  58.2615006  64.7635017
  39.5639987  57.3525006  66.7275017  40.6299987  57.3835006  66.9545017
  38.6819987  56.8135006  67.6755017  39.0539987  56.4275006  68.6245017
  37.3269987  56.7545006  67.4405017  36.6879987  56.3205006  68.2095017
  36.8339987  57.2475006  66.2305017  33.4549987  54.8725006  67.5525017
  34.1419987  54.4135006  68.4665017  32.1369987  54.9675006  67.6245017
  31.6099987  55.4435006  66.9065017  31.4199987  54.4485006  68.7735017
  31.6509987  55.0515006  69.6515017  29.9019987  54.4875006  68.5365017
  29.4339987  54.2325006  69.4875017  29.6569987  55.5175006  68.2765017
  29.3849987  53.5515006  67.4485017  29.8189987  53.8595006  66.4975017
  29.7119987  52.5385006  67.6855017  27.8669987  53.5835006  67.3465017
  27.5339987  52.6765006  66.8425017  27.4519987  53.6115006  68.3545017
  27.3709987  54.7405006  66.6045017  28.0619987  55.3895006  66.2545017
  26.0859987  54.9885006  66.3605017  25.1329987  54.1645006  66.7975017
  25.3849987  53.3385006  67.3215017  24.1639987  54.3695006  66.6025017
  25.7479987  56.0735006  65.6755017  26.4659987  56.7025006  65.3445017
  24.7739987  56.2655006  65.4885017  31.8739987  53.0235006  69.1005017
  32.0169987  52.6685006  70.2655017  32.1169987  52.2205006  68.0705017
  31.9849987  52.5525006  67.1255017  32.4579987  50.8205006  68.2685017
  31.9349987  50.4235006  69.1385017  32.0439987  50.0205006  67.0475017
  32.4669987  50.4495006  66.1395017  32.3739987  48.9865006  67.1475017
  30.5599987  49.9795006  66.8505017  29.7399987  49.3845006  67.8025017
  30.1929987  48.9475006  68.6925017  28.3709987  49.3425006  67.6335017
  27.7399987  48.8705006  68.3865017  27.8009987  49.9005006  66.5065017
  26.7199987  49.8705006  66.3705017  28.6029987  50.4985006  65.5495017
  28.1539987  50.9365006  64.6575017  29.9759987  50.5405006  65.7255017
  30.6069987  51.0175006  64.9755017  33.9239987  50.5805006  68.6185017
  34.2329987  49.6395006  69.3535017  34.8229987  51.4165006  68.1045017
  34.5689987  52.0585006  67.3675017  36.2069987  51.4145006  68.5765017
  36.6139987  50.4085006  68.4795017  37.0839987  52.3735006  67.7815017
  36.4899987  53.2475006  67.5155017  37.9269987  52.6825006  68.3995017
  37.6159987  51.7495006  66.5175017  36.8559987  51.4385006  65.6065017
  38.9269987  51.5545006  66.4555017  39.3339987  51.1395006  65.6295017
  39.5119987  51.8225006  67.2345017  36.2519987  51.8105006  70.0335017
  36.8099987  51.0985006  70.8565017  35.6429987  52.9465006  70.3535017
  35.2159987  53.5165006  69.6375017  35.6449987  53.4435006  71.7235017
  36.6699987  53.5295006  72.0825017  34.9849987  54.8195006  71.7965017
  34.0049987  54.6585006  71.3465017  34.8609987  55.1225006  72.8365017
  35.7249987  55.9195006  71.0295017  35.9619987  55.5535006  70.0305017
  34.8649987  57.1735006  70.9205017  34.6279987  57.5395006  71.9195017
  35.4099987  57.9415006  70.3725017  33.9419987  56.9365006  70.3925017
  37.0729987  56.2255006  71.6755017  37.6889987  55.3265006  71.6765017
  37.5769987  57.0095006  71.1115017  36.9169987  56.5595006  72.7015017
  34.9659987  52.4705006  72.6835017  35.3209987  52.4155006  73.8595017
  34.0029987  51.7025006  72.1815017  33.7179987  51.8115006  71.2185017
  33.3229987  50.6995006  72.9945017  33.0229987  51.1435006  73.9435017
  32.0749987  50.1685006  72.2875017  31.6389987  51.0255006  71.7735017
  32.3549987  49.4105006  71.5565017  31.0549987  49.5855006  73.2575017
  31.5469987  49.2295006  74.1625017  30.0819987  50.6975006  73.6145017
  29.5889987  51.0535006  72.7105017  29.3339987  50.3175006  74.3095017
  30.6249987  51.5205006  74.0795017  30.3299987  48.3805006  72.6765017
  31.0529987  47.6005006  72.4385017  29.6139987  48.0005006  73.4055017
  29.8029987  48.6755006  71.7695017  34.2689987  49.5435006  73.2695017
  34.5489987  49.2095006  74.4195017  34.7549987  48.9435006  72.1945017
  34.4039987  49.1955006  71.2815017  35.7219987  47.8665006  72.2865017
  35.3149987  47.0185006  72.8365017  36.1469987  47.4065006  70.8705017
  36.3569987  48.2915006  70.2695017  37.3839987  46.5185006  70.9165017
  37.1739987  45.6335006  71.5165017  37.6519987  46.2155006  69.9045017
  38.2119987  47.0705006  71.3615017  34.9819987  46.6645006  70.1995017
  34.9479987  45.6645006  70.6325017  34.0699987  47.2025006  70.4575017
  35.0959987  46.5585006  68.6955017  36.0079987  46.0205006  68.4365017
  34.2329987  46.0205006  68.3025017  35.1289987  47.5575006  68.2615017
  36.9209987  48.3175006  73.1325017  37.3699987  47.5985006  74.0245017
  37.4099987  49.5245006  72.8795017  37.0339987  50.0845006  72.1275017
  38.5399987  50.0505006  73.6335017  39.4159987  49.4275006  73.4515017
  38.8689987  51.4885006  73.2225017  38.7929987  51.5885006  72.1395017
  38.1799987  52.1855006  73.7005017  40.2559987  51.9285006  73.5985017
  40.5279987  52.3885006  74.8795017  39.7219987  52.4215006  75.6125017
  41.8059987  52.8035006  75.2325017  42.0059987  53.1615006  76.2425017
  42.8269987  52.7615006  74.2985017  43.8319987  53.0855006  74.5675017
  42.5659987  52.3045006  73.0175017  43.3679987  52.2705006  72.2795017
  41.2869987  51.8905006  72.6725017  41.0839987  51.5305006  71.6635017
  38.2399987  49.9745006  75.1245017  39.0319987  49.4255006  75.8855017
  37.0889987  50.4935006  75.5405017  36.4679987  50.9615006  74.8955017
  36.7059987  50.4335006  76.9525017  37.4619987  50.8915006  77.5895017
  35.3559987  51.1235006  77.2175017  34.6239987  50.7615006  76.4955017
  34.8709987  50.8175006  78.6305017  35.6019987  51.1805006  79.3525017
  33.9149987  51.3125006  78.8025017  34.7479987  49.7405006  78.7475017
  35.4629987  52.6275006  76.9985017  35.7609987  52.8245006  75.9685017
  34.4969987  53.0935006  77.1915017  36.2079987  53.0425006  77.6775017
  36.6109987  48.9955006  77.4505017  37.0659987  48.6865006  78.5515017
  36.0169987  48.1275006  76.6355017  35.6749987  48.4375006  75.7375017
  35.7809987  46.7395006  77.0245017  35.3239987  46.7085006  78.0135017
  34.8449987  46.0485006  76.0315017  35.2549987  46.2065006  75.0345017
  34.8539987  44.9835006  76.2635017  33.4159987  46.5645006  76.0785017
  33.2759987  47.1005006  77.0175017  33.2719987  47.2505006  75.2435017
  32.2039987  45.2355006  75.9695017  32.4639987  44.3915006  77.5345017
  32.2749987  45.0825006  78.3565017  31.7819987  43.5445006  77.6085017
  33.4929987  44.0355006  77.5895017  37.0619987  45.9325006  77.1505017
  37.2529987  45.2175006  78.1335017  37.9339987  46.0475006  76.1545017
  37.7299987  46.6455006  75.3665017  39.1789987  45.2805006  76.1385017
  38.9749987  44.2095006  76.1305017  40.0449987  45.6265006  74.9105017
  40.1519987  46.7095006  74.8495017  41.4179987  44.9875006  75.0205017
  41.3109987  43.9045006  75.0805017  42.0109987  45.2455006  74.1425017
  41.9189987  45.3535006  75.9175017  39.3639987  45.1685006  73.6325017
  38.3989987  45.6655006  73.5365017  39.9899987  45.4205006  72.7765017
  39.2139987  44.0895006  73.6665017  39.9649987  45.5355006  77.4205017
  40.5149987  44.6075006  78.0185017  39.9959987  46.7995006  77.8365017
  39.6009987  47.5225006  77.2525017  40.6879987  47.1965006  79.0555017
  41.6569987  46.7005006  79.1075017  40.9119987  48.7155006  79.0775017
  40.0139987  49.1795006  78.6695017  41.0359987  49.0175006  80.1175017
  42.1179987  49.1595006  78.2765017  41.9979987  49.5335006  76.9435017
  41.0109987  49.5075006  76.4815017  43.0999987  49.9335006  76.2025017
  42.9869987  50.2285006  75.1595017  44.3399987  49.9665006  76.7965017
  45.4339987  50.3575006  76.0675017  45.2179987  50.5845006  75.1595017
  44.4919987  49.5975006  78.1195017  45.4759987  49.6185006  78.5875017
  43.3839987  49.1995006  78.8515017  43.4959987  48.9105006  79.8965017
  39.9759987  46.7155006  80.3335017  40.6249987  46.1745006  81.2225017
  38.6589987  46.8895006  80.4265017  38.1439987  47.3485006  79.6885017
  37.9289987  46.4875006  81.6425017  38.4509987  46.8825006  82.5145017
  36.4819987  47.0095006  81.6575017  35.9209987  46.4675006  82.4195017
  36.4459987  48.4925006  81.9635017  37.0059987  49.0345006  81.2015017
  35.4119987  48.8375006  81.9685017  36.8939987  48.6735006  82.9405017
  35.8869987  46.7865006  80.3795017  34.9839987  47.1115006  80.3865017
  37.8949987  44.9735006  81.8685017  37.9429987  44.5255006  83.0135017
  37.8069987  44.1865006  80.7955017  37.6599987  44.5765006  79.8755017
  37.8229987  42.7215006  80.9375017  37.2399987  42.3905006  81.7975017
  37.3319987  41.9585006  79.6845017  37.3889987  40.8865006  79.8755017
  35.8949987  42.3405006  79.3605017  35.8379987  43.4115006  79.1685017
  35.5639987  41.7955006  78.4765017  35.2519987  42.0885006  80.2045017
  38.2579987  42.1755006  78.4945017  39.2579987  41.8205006  78.7425017
  37.8799987  41.6235006  77.6335017  38.2989987  43.2375006  78.2545017
  39.1929987  42.1805006  81.3245017  39.2679987  41.2165006  82.0735017
  40.2729987  42.7715006  80.8235017  40.2139987  43.5085006  80.1355017
  41.5939987  42.3115006  81.2315017  41.6469987  41.2295006  81.1135017
  42.7519987  42.9515006  80.4345017  43.6889987  42.7585006  80.9565017
  42.8239987  42.3715006  79.0385017  41.8869987  42.5645006  78.5155017
  43.6459987  42.8355006  78.4935017  42.9899987  41.2965006  79.0995017
  42.5739987  44.3685006  80.3535017  43.2989987  44.7545006  79.8565017
  41.7749987  42.5975006  82.7135017  42.1089987  41.7035006  83.4855017
  41.5239987  43.8385006  83.1105017  41.2889987  44.5505006  82.4335017
  41.6639987  44.2325006  84.5075017  42.6819987  44.0355006  84.8425017
  41.3689987  45.7275006  84.6865017  40.4119987  45.9555006  84.2175017
  41.3289987  45.9965006  85.7415017  42.3789987  46.6265006  84.0545017
  43.7229987  46.4115006  83.9595017  44.1029987  45.4805006  84.3805017
  44.3289987  47.4695006  83.3225017  45.3159987  47.5475006  83.1255017
  43.3799987  48.3975006  83.0015017  43.5129987  49.6245006  82.3575017
  44.5069987  49.9405006  82.0395017  42.3799987  50.3605006  82.1635017
  42.4429987  51.3255006  81.6615017  41.1299987  49.9015006  82.5975017
  40.2319987  50.4995006  82.4385017  40.9929987  48.6735006  83.2425017
  39.9979987  48.3565006  83.5555017  42.1369987  47.9025006  83.4515017
  40.7749987  43.3935006  85.4355017  41.1789987  43.0915006  86.5595017
  39.5759987  43.0265006  84.9805017  39.2359987  43.3705006  84.0935017
  38.7229987  42.1175006  85.7435017  38.6479987  42.4745006  86.7705017
  37.3159987  42.0315006  85.1525017  37.5089987  42.0455006  84.0795017
  36.9289987  41.0535006  85.4395017  36.2879987  43.1055006  85.4975017
  36.6939987  44.0905006  85.2665017  35.0289987  42.8705006  84.6755017
  34.6219987  41.8855006  84.9065017  34.2889987  43.6345006  84.9165017
  35.2719987  42.9225006  83.6145017  35.9609987  43.1105006  86.9855017
  36.8679987  43.3065006  87.5565017  35.2259987  43.8875006  87.1935017
  35.5539987  42.1405006  87.2715017  39.3219987  40.7285006  85.7335017
  39.4929987  40.1045006  86.7815017  39.6389987  40.2475006  84.5345017
  39.4629987  40.7985006  83.7065017  40.1679987  38.9025006  84.3685017
  39.4239987  38.1815006  84.7065017  40.5119987  38.6015006  82.9065017
  39.5769987  38.5325006  82.3505017  41.1499987  39.3595006  82.4515017
  41.2119987  37.2915006  82.7315017  40.5269987  36.0995006  82.9585017
  39.4729987  36.1365006  83.2325017  41.1669987  34.8825006  82.8405017
  40.6219987  33.9545006  83.0145017  42.5109987  34.8445006  82.4985017
  43.0159987  33.8845006  82.3965017  43.2129987  36.0255006  82.2865017
  44.2709987  35.9935006  82.0245017  42.5669987  37.2425006  82.4085017
  43.1179987  38.1695006  82.2515017  41.3959987  38.6565006  85.2465017
  41.5209987  37.5995006  85.8595017  42.3049987  39.6205006  85.2955017
  42.2319987  40.4355006  84.7035017  43.4769987  39.4935006  86.1575017
  43.8679987  38.4785006  86.0925017  44.5789987  40.4705006  85.7375017
  44.1399987  41.4115006  85.4075017  45.2559987  40.6585006  86.5705017
  45.4239987  39.9685006  84.6015017  46.4279987  39.0425006  84.8315017
  46.5959987  38.6805006  85.8455017  47.2129987  38.5775006  83.7925017
  48.0019987  37.8515006  83.9865017  46.9959987  39.0355006  82.5045017
  47.6099987  38.6675006  81.6825017  45.9989987  39.9605006  82.2615017
  45.8259987  40.3275006  81.2495017  45.2199987  40.4205006  83.3065017
  44.4319987  41.1495006  83.1185017  43.0899987  39.7115006  87.6125017
  43.5959987  39.0385006  88.4995017  42.1819987  40.6495006  87.8445017
  41.8019987  41.1775006  87.0715017  41.7069987  40.9505006  89.1825017
  42.5359987  41.3665006  89.7545017  40.9119987  41.6925006  89.1045017
  41.1739987  39.7315006  89.9025017  41.3749987  39.5875006  91.1105017
  40.4919987  38.8525006  89.1685017  40.2479987  39.0605006  88.2105017
  39.9809987  37.6195006  89.7615017  39.5849987  37.8375006  90.7535017
  38.8589987  36.9975006  88.9095017  38.5039987  36.1235006  89.4555017
  38.0629987  37.7395006  88.8565017  39.2639987  36.5865006  87.5015017
  39.1079987  37.4525006  86.8585017  40.3259987  36.3445006  87.5325017
  38.3519987  35.1755006  86.8315017  38.9869987  33.8255006  87.8285017
  38.7709987  34.0165006  88.8795017  38.5109987  32.8935006  87.5235017
  40.0649987  33.7455006  87.6885017  41.1279987  36.6335006  90.0055017
  41.1339987  35.9275006  91.0095017  42.1139987  36.6145006  89.1075017
  42.0639987  37.1965006  88.2835017  43.2729987  35.7315006  89.2645017
  42.9459987  34.7225006  89.5165017  44.1599987  35.6835006  87.9995017
  44.5249987  36.6885006  87.7855017  45.3449987  34.7465006  88.2085017
  44.9809987  33.7415006  88.4215017  45.9569987  34.7265006  87.3065017
  45.9449987  35.1005006  89.0465017  43.3509987  35.2495006  86.7665017
  42.4259987  35.8265006  86.7825017  43.9399987  35.5315006  85.8935017
  43.0229987  33.7725006  86.6975017  42.4339987  33.4895006  87.5695017
  42.4509987  33.5685006  85.7925017  43.9469987  33.1945006  86.6805017
  44.1179987  36.1965006  90.4475017  44.6869987  35.3745006  91.1505017
  44.2009987  37.5115006  90.6525017  43.8309987  38.1435006  89.9575017
  44.8499987  38.0865006  91.8445017  45.8439987  37.6525006  91.9565017
  44.9899987  39.6145006  91.7335017  44.0759987  40.0425006  91.3225017
  45.1829987  40.0465006  92.7155017  46.1079987  40.0575006  90.8435017
  46.0009987  40.7085006  89.6485017  44.9929987  40.9365006  89.3025017
  47.2449987  40.9425006  89.1235017  47.4379987  41.4075006  88.2475017
  48.1849987  40.4425006  89.9805017  49.5699987  40.4395006  89.8815017
  50.0309987  40.8945006  89.0045017  50.2729987  39.8605006  90.9005017
  51.3619987  39.8395006  90.8605017  49.6199987  39.2865006  92.0075017
  50.1899987  38.8255006  92.8135017  48.2439987  39.2895006  92.1065017
  47.7839987  38.8275006  92.9795017  47.5029987  39.8785006  91.0775017
  44.0679987  37.7545006  93.1095017  44.6529987  37.4995006  94.1615017
  42.7439987  37.7765006  92.9995017  42.3129987  38.0905006  92.1415017
  41.8799987  37.3845006  94.1025017  42.1669987  37.9215006  95.0065017
  40.4199987  37.7155006  93.7795017  40.3259987  38.7705006  93.5235017
  40.0599987  37.1075006  92.9495017  39.4939987  37.4695006  94.9205017
  39.2239987  38.3175006  95.9455017  39.7349987  39.2795006  95.9335017
  38.3269987  37.7485006  96.8075017  37.9649987  38.1765006  97.6475017
  38.0029987  36.4995006  96.3485017  37.1399987  35.5335006  96.8825017
  36.6159987  35.7615006  97.8105017  37.0079987  34.3515006  96.1975017
  36.3439987  33.5775006  96.5825017  37.7119987  34.1135006  95.0045017
  37.6019987  33.1735006  94.4635017  38.5709987  35.0725006  94.4785017
  39.0979987  34.8385006  93.5535017  38.7229987  36.2905006  95.1575017
  42.0149987  35.8935006  94.3835017  41.9629987  35.4535006  95.5365017
  42.1919987  35.1255006  93.3145017  42.2869987  35.5515006  92.4035017
  42.1939987  33.6775006  93.3995017  41.3509987  33.3405006  94.0025017
  42.0739987  33.0615006  92.0015017  41.4499987  33.7655006  91.4505017
  43.0689987  33.0325006  91.5575017  41.4509987  31.6755006  91.9385017
  42.0969987  30.9675006  92.4575017  40.0829987  31.6905006  92.5985017
  39.4359987  32.3985006  92.0795017  39.6439987  30.6935006  92.5485017
  40.1849987  31.9905006  93.6415017  41.3509987  31.2125006  90.4935017
  42.3469987  31.1765006  90.0535017  40.9039987  30.2195006  90.4595017
  40.7299987  31.9095006  89.9305017  43.4519987  33.1805006  94.0985017
  43.3739987  32.2975006  94.9525017  44.6019987  33.7555006  93.7445017
  44.6159987  34.4445006  93.0065017  45.8629987  33.4175006  94.4015017
  46.0499987  32.3525006  94.2655017  47.0689987  34.2265006  93.8615017
  46.8739987  35.2905006  93.9955017  48.3329987  33.8455006  94.6105017
  48.5289987  32.7815006  94.4765017  49.1729987  34.4205006  94.2225017
  48.2059987  34.0605006  95.6715017  47.3059987  34.0005006  92.3635017
  46.3379987  34.0915006  91.8715017  47.9629987  34.8005006  92.0215017
  47.9219987  32.6595006  92.0205017  47.2649987  31.8595006  92.3615017
  48.0539987  32.5855006  90.9415017  48.8909987  32.5675006  92.5115017
  45.7079987  33.7185006  95.8875017  46.1149987  32.9295006  96.7365017
  45.1059987  34.8645006  96.1905017  44.8249987  35.4935006  95.4525017
  44.8969987  35.2835006  97.5745017  45.8599987  35.2405006  98.0845017
  44.3829987  36.7165006  97.6245017  43.4149987  36.7735006  97.1255017
  44.2749987  37.0285006  98.6635017  45.0899987  37.3745006  97.1205017
  43.9439987  34.3585006  98.3165017  44.0499987  34.2165006  99.5275017
  43.0129987  33.7425006  97.5915017  42.9649987  33.9085006  96.5965017
  42.0239987  32.8535006  98.1935017  41.7029987  33.2535006  99.1545017
  40.7999987  32.7245006  97.2835017  40.4289987  33.7295006  97.0845017
  41.1449987  32.2745006  96.3525017  39.6829987  31.8805006  97.8695017
  39.1019987  32.2205006  99.0885017  39.4649987  33.1025006  99.6155017
  38.0819987  31.4615006  99.6315017  37.6359987  31.7385006 100.5865017
  37.6249987  30.3465006  98.9525017  36.6139987  29.5985006  99.5015017
  36.3089987  29.9415006 100.3445017  38.1809987  29.9875006  97.7385017
  37.8199987  29.1085006  97.2045017  39.2019987  30.7525006  97.2015017
  39.6429987  30.4775006  96.2435017  42.5979987  31.4715006  98.4585017
  42.4639987  30.9385006  99.5605017  43.2269987  30.9025006  97.4375017
  43.3019987  31.4095006  96.5675017  43.7799987  29.5495006  97.5025017
  43.0469987  28.8465006  97.8975017  44.2479987  29.0755006  96.1085017
  44.9009987  29.8365006  95.6815017  45.0019987  27.7545006  96.2045017
  44.3489987  26.9925006  96.6305017  45.3199987  27.4435006  95.2095017
  45.8769987  27.8805006  96.8425017  43.0409987  28.9435006  95.1655017
  42.5749987  27.9795006  95.3705017  42.3449987  29.7445006  95.4175017
  43.3969987  29.0285006  93.6975017  44.0919987  28.2275006  93.4445017
  42.4929987  28.9265006  93.0975017  43.8629987  29.9925006  93.4915017
  44.9449987  29.4955006  98.4855017  45.1499987  28.4875006  99.1605017
  45.6979987  30.5885006  98.5535017  45.5239987  31.3385006  97.8995017
  46.7999987  30.7375006  99.5015017  47.4729987  29.8815006  99.4405017
  47.5909987  32.0085006  99.1625017  47.8719987  31.9265006  98.1125017
  46.9029987  32.8445006  99.2895017  48.8309987  32.2445006 100.0005017
  48.5299987  32.4355006 101.0305017  49.4559987  31.3525006  99.9655017
  49.6139987  33.4295006  99.4755017  50.1299987  33.1465006  98.5585017
  48.9309987  34.2535006  99.2675017  50.6029987  33.8765006 100.4495017
  50.3599987  34.6785006 101.0135017  51.7899987  33.3035006 100.6385017
  52.1579987  32.2485006  99.9175017  51.5319987  31.8755006  99.2185017
  53.0619987  31.8245006 100.0725017  52.6179987  33.7885006 101.5585017
  52.3429987  34.5885006 102.1095017  53.5179987  33.3545006 101.7025017
  46.3129987  30.7955006 100.9525017  47.0319987  30.3855006 101.8595017
  45.1009987  31.3065006 101.1615017  44.5439987  31.5845006 100.3665017
  44.5359987  31.4845006 102.5015017  43.4609987  31.3175006 102.4355017
  44.9809987  30.7335006 103.1545017  44.7869987  32.8635006 103.0905017
  44.5659987  33.0755006 104.2805017  45.2489987  33.8015006 102.2575017
  45.4639987  33.5495006 101.3035017  45.4719987  35.1925006 102.6785017
  46.2229987  35.2125006 103.4685017  45.9619987  36.0635006 101.5145017
  45.2549987  35.9205006 100.6975017  45.9449987  37.1065006 101.8315017
  47.3599987  35.7005006 101.0425017  48.0689987  34.9485006 101.7365017
  47.7659987  36.1925006  99.9705017  44.1899987  35.7985006 103.2195017
  44.2059987  36.5455006 104.2035017  43.0829987  35.4635006 102.5665017
  43.1429987  34.8325006 101.7805017  41.7789987  35.9935006 102.9265017
  41.7879987  37.0805006 102.8485017  40.7009987  35.4445006 101.9885017
  40.6709987  34.3665006 102.1455017  39.7559987  35.8835006 102.3085017
  40.9219987  35.7375006 100.5055017  41.9489987  35.4555006 100.2755017
  40.2369987  35.0975006  99.9495017  40.6559987  37.4525006 100.0205017
  38.8969987  37.6215006 100.3365017  38.6969987  37.4295006 101.3905017
  38.5779987  38.6325006 100.0845017  38.3469987  36.9045006  99.7265017
  41.4509987  35.6185006 104.3615017  41.0109987  36.4565006 105.1365017
  41.6919987  34.3595006 104.7145017  42.0769987  33.7205006 104.0335017
  41.3169987  33.8305006 106.0305017  40.2819987  34.0905006 106.2515017
  41.4549987  32.3015006 106.0545017  42.4449987  32.0455006 105.6765017
  41.3659987  31.9755006 107.0905017  40.3939987  31.6055006 105.2105017
  40.4149987  31.7225006 103.9625017  39.5349987  30.9335006 105.8075017
  42.0939987  34.4605006 107.1955017  41.5439987  34.6325006 108.2845017
  43.3629987  34.7965006 106.9655017  43.7979987  34.5365006 106.0915017
  44.1759987  35.4945006 107.9655017  43.6349987  35.5315006 108.9105017
  45.5099987  34.7785006 108.1935017  46.2009987  35.0115006 107.3835017
  45.9449987  35.0915006 109.1425017  45.3979987  33.2915006 108.2445017
  45.7539987  32.4865006 107.1855017  45.5489987  31.2235006 107.5085017
  45.7679987  30.4265006 106.7985017  45.0759987  31.1805006 108.7405017
  44.8279987  30.3465006 109.2535017  44.9719987  32.4615006 109.2225017
  44.5969987  32.6355006 110.2315017  44.4359987  36.9425006 107.5445017
  45.4059987  37.2335006 106.8435017  43.5409987  37.8375006 107.9515017
  42.6589987  37.5135006 108.3215017  43.7589987  39.2815006 107.8385017
  44.6799987  39.4755006 107.2885017  42.5799987  39.9835006 107.1315017
  41.6739987  39.8295006 107.7175017  42.8479987  41.4785006 106.9945017
  43.7529987  41.6335006 106.4075017  42.0049987  41.9545006 106.4935017
  42.9769987  41.9175006 107.9835017  42.3459987  39.3635006 105.7495017
  43.1919987  39.6485006 105.1245017  42.3409987  38.2815006 105.8815017
  41.0569987  39.7965006 105.0825017  41.0619987  40.8785006 104.9495017
  40.9699987  39.3115006 104.1105017  40.2099987  39.5115006 105.7075017
  43.9719987  39.8915006 109.2235017  44.5379987  40.9715006 109.3485017
  43.5129987  39.1915006 110.2585017  42.9489987  38.3715006 110.0885017
  43.7469987  39.5955006 111.6415017  43.7299987  40.6825006 111.7185017
  42.6549987  39.0225006 112.5555017  41.6779987  39.3635006 112.2135017
  42.6899987  37.9335006 112.5265017  42.8859987  39.4955006 113.9705017
  43.8629987  39.1555006 114.3145017  42.8499987  40.5845006 114.0005017
  41.7999987  38.9255006 114.8795017  42.0279987  37.8095006 115.4195017
  40.7529987  39.6115006 115.0265017  45.1279987  39.1575006 112.1485017
  45.5239987  39.5425006 113.2515017  45.8499987  38.3565006 111.3605017
  45.4649987  38.0345006 110.4845017  47.1759987  37.8735006 111.7555017
  47.3689987  38.1355006 112.7955017  47.2599987  36.3565006 111.6115017
  46.9209987  36.0995006 110.6075017  48.3019987  36.0595006 111.7295017
  46.4099987  35.6295006 112.6325017  46.6419987  35.8255006 113.8455017
  45.5159987  34.8585006 112.2225017  48.2779987  38.5385006 110.9365017
  48.3439987  38.3535006 109.7175017  49.1499987  39.3135006 111.6085017
  49.2019987  39.5105006 113.0735017  49.3219987  38.5425006 113.5595017
  48.2709987  39.9705006 113.4055017  50.3919987  40.4115006 113.2775017
  51.2449987  39.8165006 113.6035017  50.1559987  41.1555006 114.0385017
  50.6539987  41.0625006 111.9585017  51.7229987  41.2605006 111.8805017
  50.0999987  41.9835006 111.7775017  50.2469987  40.0005006 110.9375017
  49.8749987  40.4085006 109.9975017  51.4149987  39.0555006 110.6545017
  52.2219987  39.3135006 109.7535017  51.5079987  37.9855006 111.4445017
  50.9059987  37.9225006 112.2535017  52.4739987  36.9175006 111.2175017
  53.4879987  37.2905006 111.3575017  52.2289987  35.7825006 112.2125017
  52.5939987  34.8495006 111.7825017  52.7729987  35.9945006 113.1325017
  50.8449987  35.6615006 112.4985017  50.7089987  34.9455006 113.1235017
  52.3619987  36.4155006 109.7825017  53.3609987  36.3065006 109.0645017
  51.1309987  36.1345006 109.3695017  50.3699987  36.1385006 110.0335017
  50.8339987  35.8155006 107.9855017  51.4289987  34.9615006 107.6635017
  49.3549987  35.4645006 107.8345017  49.1039987  34.6375006 108.4985017
  48.7309987  36.3255006 108.0765017  48.9799987  35.0405006 106.4695017
  48.7319987  35.8485006 105.4095017  48.8159987  36.9215006 105.5805017
  48.4159987  35.1015006 104.3095017  48.2019987  35.4665006 103.3925017
  48.4429987  33.7775006 104.6515017  48.1909987  32.6395006 103.8825017
  47.9219987  32.7665006 102.8335017  48.2989987  31.4275006 104.5015017
  48.1099987  30.5155006 103.9355017  48.6469987  31.3275006 105.8455017
  48.7289987  30.3545006 106.3305017  48.8979987  32.4525006 106.6035017
  49.1689987  32.3145006 107.6505017  48.7969987  33.7045006 106.0065017
  51.1659987  37.0275006 107.1295017  50.8689987  38.1615006 107.5105017
  51.8009987  36.7865006 105.9865017  52.1929987  35.8725006 105.8115017
  52.0249987  37.8385006 104.9955017  51.4369987  38.7275006 105.2255017
  53.5169987  38.2435006 104.8995017  53.5779987  39.2415006 104.4655017
  54.1919987  38.2455006 106.2905017  54.1319987  37.2475006 106.7255017
  55.2379987  38.5345006 106.1865017  53.6819987  38.9565006 106.9415017
  54.2159987  37.3625006 104.0105017  55.1379987  37.6245006 103.9605017
  51.4769987  37.3505006 103.6405017  51.6279987  36.1795006 103.2985017
  50.8169987  38.2365006 102.8775017  50.5959987  39.6725006 103.1235017
  51.4719987  40.2335006 102.7995017  50.4339987  39.8365006 104.1885017
  49.3739987  39.9845006 102.3025017  49.6479987  40.7215006 101.5475017
  48.6159987  40.4055006 102.9625017  48.8899987  38.7125006 101.6755017
  48.5749987  38.9065006 100.6505017  48.0739987  38.2405006 102.2235017
  50.1139987  37.8015006 101.6785017  49.8849987  36.7425006 101.8015017
  50.9099987  38.0025006 100.3955017  52.0189987  38.5405006 100.4425017
  50.3399987  37.5665006  99.2655017  49.4699987  37.0545006  99.3085017
  50.9309987  37.8255006  97.9475017  51.9469987  37.4305006  97.9365017
  50.1439987  37.1785006  96.8105017  49.0849987  37.1555006  97.0685017
  50.2819987  37.7565006  95.8975017  50.5949987  35.4695006  96.4645017
  50.9449987  39.2985006  97.6935017  51.9709987  39.8485006  97.3105017
  49.7829987  39.9205006  97.8845017  48.9679987  39.3735006  98.1225017
  49.6319987  41.3595006  97.7535017  50.5849987  41.8355006  97.5255017
  48.6179987  41.7315006  96.6505017  47.6879987  41.1935006  96.8345017
  48.3439987  43.2305006  96.6415017  49.2729987  43.7695006  96.4565017
  47.6269987  43.4645006  95.8555017  47.9359987  43.5315006  97.6065017
  49.1259987  41.2835006  95.2895017  49.2669987  40.2025006  95.2915017
  48.3989987  41.5535006  94.5235017  50.0759987  41.7725006  95.0765017
  49.1539987  41.9125006  99.0805017  48.0579987  41.5855006  99.5225017
  49.9909987  42.7345006  99.7115017  50.9109987  42.8915006  99.3255017
  49.6329987  43.4225006 100.9405017  49.4589987  42.6835006 101.7225017
  50.7369987  44.3835006 101.4095017  50.7119987  45.2825006 100.7935017
  50.5249987  44.7615006 102.8625017  50.5499987  43.8635006 103.4795017
  51.3149987  45.4425006 103.1805017  49.5569987  45.2505006 102.9735017
  52.0149987  43.7535006 101.2765017  52.7009987  44.3565006 101.5705017
  48.3749987  44.2175006 100.6895017  48.2769987  44.9265006  99.7005017
  47.4109987  44.0655006 101.5885017  47.5679987  43.4125006 102.3425017
  46.0899987  44.6765006 101.4645017  45.4529987  44.3515006 102.2875017
  46.2019987  46.2015006 101.5055017  46.7909987  46.5465006 100.6555017
  45.1979987  46.6205006 101.4445017  46.8549987  46.6945006 102.7795017
  46.3879987  46.3995006 103.8765017  47.9469987  47.4345006 102.6415017
  48.4209987  47.7885006 103.4605017  48.2999987  47.6415006 101.7185017
  45.2829987  44.1985006 100.2485017  45.2309987  44.8635006  99.2195017
  44.6799987  43.0195006 100.3885017  44.9869987  42.4115006 101.1345017
  43.6249987  42.5445006  99.4965017  43.3019987  43.3635006  98.8545017
  44.1109987  41.3885006  98.6105017  44.7849987  40.8195006  99.2515017
  43.2279987  40.7885006  98.3905017  44.8239987  41.7405006  97.3075017
  45.7649987  42.2405006  97.5365017  45.1019987  40.4785006  96.5135017
  44.1609987  39.9785006  96.2845017  45.6109987  40.7375006  95.5855017
  45.7339987  39.8115006  97.0995017  43.9909987  42.6835006  96.4665017
  43.8089987  43.6035006  97.0225017  44.5239987  42.9165006  95.5445017
  43.0389987  42.2115006  96.2255017  42.4439987  42.1035006 100.3585017
  42.0979987  40.9205006 100.4155017  41.8249987  43.0685006 101.0295017
  42.1489987  44.0225006 100.9545017  40.7409987  42.7775006 101.9615017
  41.0919987  42.0865006 102.7275017  40.2509987  44.0605006 102.6465017
  40.1469987  44.8425006 101.8945017  39.2799987  43.8645006 103.1015017
  41.2049987  44.5485006 103.7265017  42.4249987  44.4185006 103.6005017
  40.6489987  45.1155006 104.7955017  41.2349987  45.4575006 105.5435017
  39.6439987  45.2005006 104.8535017  39.5579987  42.0395006 101.3335017
  38.8689987  41.2885006 102.0235017  39.3219987  42.2495006 100.0385017
  39.9249987  42.8535006  99.4985017  38.1899987  41.6155006  99.3625017
  38.1059987  40.6045006  99.7595017  37.2989987  42.1845006  99.6275017
  38.2989987  41.5445006  97.8505017  39.3909987  41.6395006  97.2855017
  37.1499987  41.3725006  97.2025017  36.2929987  41.2925006  97.7315017
  37.0869987  41.2045006  95.7545017  37.9159987  40.5815006  95.4175017
  35.7669987  40.5265006  95.3515017  35.6769987  39.5705006  95.8665017
  34.9309987  41.1685006  95.6285017  35.6199987  40.2385006  93.8775017
  34.4579987  39.6235006  93.3955017  33.6589987  39.3525006  94.0855017
  34.3219987  39.3565006  92.0275017  33.4169987  38.8775006  91.6525017
  35.3479987  39.7045006  91.1415017  35.2419987  39.4965006  90.0765017
  36.5099987  40.3195006  91.6225017  37.3099987  40.5895006  90.9325017
  36.6449987  40.5875006  92.9905017  37.5489987  41.0685006  93.3655017
  37.2699987  42.5335006  95.0115017  37.5909987  42.5335006  93.8265017
  37.0869987  43.6545006  95.7085017  36.8609987  43.5935006  96.6905017
  37.2029987  44.9895006  95.1015017  36.8589987  45.0045006  94.0675017
  36.4209987  46.0595006  95.8975017  36.8469987  46.1345006  96.8975017
  36.5029987  47.4195006  95.2065017  36.0769987  47.3455006  94.2065017
  35.9449987  48.1555006  95.7855017  37.5459987  47.7285006  95.1345017
  34.9749987  45.6275006  96.1025017  34.9509987  44.6885006  96.6565017
  34.4419987  46.3945006  96.6645017  34.4959987  45.4895006  95.1335017
  38.6549987  45.4365006  95.0475017  39.1139987  45.9395006  94.0275017
  39.3589987  45.2735006  96.1655017  38.8929987  44.9465006  96.9995017
  40.7709987  45.6155006  96.2525017  40.9029987  46.6885006  96.1145017
  41.3249987  45.2265006  97.6255017  42.3939987  45.0375006  97.5295017
  41.1629987  46.0555006  98.3145017  40.6839987  44.0665006  98.1245017
  41.0489987  43.8445006  98.9845017  41.5799987  44.9505006  95.1385017
  42.5029987  45.5585006  94.6005017  41.2189987  43.7175006  94.7855017
  40.4899987  43.2485006  95.3045017  41.8969987  42.9765006  93.7115017
  42.9579987  42.9585006  93.9615017  41.3899987  41.5455006  93.6435017
  40.3309987  41.5465006  93.3845017  41.9479987  40.9975006  92.8845017
  41.5259987  41.0645006  94.6125017  41.7539987  43.6365006  92.3515017
  42.7179987  43.7085006  91.5925017  40.5519987  44.1045006  92.0415017
  39.7639987  43.9135006  92.6445017  40.3139987  44.8445006  90.8025017
  40.5749987  44.2235006  89.9455017  38.8359987  45.2395006  90.6905017
  38.1979987  44.3675006  90.8335017  38.5979987  45.9905006  91.4435017
  38.4629987  45.8315006  89.3605017  38.5909987  45.0855006  88.2025017
  38.9689987  44.0655006  88.2705017  38.2469987  45.6165006  86.9695017
  38.3519987  45.0125006  86.0685017  37.7709987  46.9105006  86.8815017
  37.5039987  47.3365006  85.9145017  37.6339987  47.6655006  88.0305017
  37.2559987  48.6865006  87.9695017  37.9769987  47.1255006  89.2615017
  37.8659987  47.7205006  90.1675017  41.2079987  46.0895006  90.7125017
  41.7769987  46.3695006  89.6595017  41.3329987  46.8175006  91.8265017
  40.8119987  46.5425006  92.6475017  42.1359987  48.0445006  91.8905017
  41.8789987  48.6985006  91.0575017  41.8679987  48.7925006  93.2005017
  41.7329987  48.0015006  93.9385017  42.7199987  49.4115006  93.4835017
  40.6069987  49.6565006  93.1435017  39.8629987  49.1155006  92.5595017
  40.0369987  49.9765006  94.5205017  40.7809987  50.5175006  95.1055017
  39.1439987  50.5915006  94.4105017  39.7779987  49.0495006  95.0315017
  40.8929987  50.9335006  92.3635017  41.2019987  50.6795006  91.3495017
  39.9919987  51.5465006  92.3255017  41.6899987  51.4905006  92.8565017
  43.6329987  47.7845006  91.7375017  44.3159987  48.4965006  90.9975017
  44.1369987  46.7765006  92.4465017  43.5669987  46.3075006  93.1365017
  45.5209987  46.3455006  92.2835017  46.1939987  47.1765006  92.4945017
  45.8419987  45.2035006  93.2425017  45.7159987  45.5275006  94.2755017
  45.1769987  44.3635006  93.0415017  47.2459987  44.6785006  93.1245017
  48.3179987  45.4115006  93.6065017  48.1279987  46.3815006  94.0675017
  49.6069987  44.9345006  93.5115017  50.4369987  45.5255006  93.8975017
  49.8459987  43.7095006  92.9275017  50.8649987  43.3295006  92.8485017
  48.7909987  42.9625006  92.4415017  48.9779987  41.9935006  91.9785017
  47.4959987  43.4435006  92.5425017  46.6629987  42.8505006  92.1635017
  45.7479987  45.9085006  90.8405017  46.7429987  46.2775006  90.2255017
  44.8079987  45.1425006  90.2975017  44.0389987  44.8095006  90.8605017
  44.8919987  44.6995006  88.9085017  45.7709987  44.0685006  88.7785017
  43.6499987  43.8955006  88.5155017  43.5569987  43.0435006  89.1885017
  42.7729987  44.5345006  88.6155017  43.7469987  43.4335006  87.1795017
  42.9589987  42.9335006  86.9555017  45.0859987  45.8565006  87.9305017
  45.7949987  45.7065006  86.9475017  44.4559987  46.9995006  88.1935017
  43.8769987  47.0855006  89.0165017  44.6009987  48.1625006  87.3245017
  44.6749987  47.8305006  86.2895017  43.4409987  49.1585006  87.4605017
  43.4069987  49.5335006  88.4835017  43.6399987  50.3235006  86.4995017
  43.6729987  49.9495006  85.4765017  42.8129987  51.0255006  86.6025017
  44.5769987  50.8305006  86.7315017  42.0949987  48.4875006  87.1865017
  41.9699987  48.4235006  86.1055017  42.1329987  47.4825006  87.6075017
  40.9269987  49.2425006  87.7855017  40.8889987  50.2475006  87.3645017
  39.9989987  48.7175006  87.5575017  41.0509987  49.3065006  88.8665017
  45.8649987  48.8975006  87.7025017  46.6779987  49.2135006  86.8415017
  46.0049987  49.1875006  88.9965017  45.2379987  49.0045006  89.6275017
  47.2139987  49.7985006  89.5375017  47.2469987  50.8525006  89.2605017
  47.2419987  49.6925006  91.0725017  46.9169987  48.6785006  91.3065017
  48.2859987  49.8135006  91.3595017  46.3809987  50.6955006  91.8445017
  46.8009987  51.6895006  91.6875017  45.3759987  50.6555006  91.4235017
  46.3169987  50.3985006  93.3535017  47.3559987  50.0115006  93.9535017
  45.2249987  50.5565006  93.9515017  48.4639987  49.1295006  88.9505017
  49.4709987  49.7875006  88.7255017  48.3989987  47.8265006  88.6975017
  47.5609987  47.3065006  88.9155017  49.5379987  47.1025006  88.1565017
  50.4579987  47.5145006  88.5725017  49.4579987  45.6145006  88.5215017
  48.6069987  45.1725006  88.0025017  50.7189987  44.8905006  88.1245017
  51.5699987  45.3315006  88.6435017  50.6349987  43.8375006  88.3945017
  50.8649987  44.9775006  87.0475017  49.2889987  45.4805006  89.9335017
  49.2389987  44.5495006  90.1625017  49.6679987  47.2335006  86.6355017
  50.7449987  47.5455006  86.1395017  48.5819987  46.9995006  85.8995017
  47.6979987  46.8045006  86.3475017  48.6539987  46.9135006  84.4345017
  49.5769987  46.4125006  84.1435017  47.4729987  46.1245006  83.8725017
  47.3449987  45.2455006  84.5045017  46.5929987  46.7625006  83.9555017
  47.6469987  45.6855006  82.4205017  48.1679987  46.4885006  81.8985017
  48.2639987  44.7865006  82.4125017  46.3279987  45.4005006  81.7215017
  45.7119987  44.3405006  81.9915017  45.9149987  46.2445006  80.8915017
  48.7509987  48.2735006  83.7505017  49.4269987  48.3935006  82.7345017
  48.0769987  49.2885006  84.2925017  47.4299987  49.1185006  85.0495017
  48.3059987  50.6805006  83.8695017  48.1979987  50.7625006  82.7875017
  47.3409987  51.6675006  84.5335017  47.7179987  52.6795006  84.3865017
  45.9529987  51.5535006  83.9335017  45.5749987  50.5415006  84.0805017
  45.2859987  52.2645006  84.4215017  45.9989987  51.7725006  82.8665017
  47.2939987  51.4045006  85.9395017  46.6899987  52.0205006  86.3605017
  49.6729987  51.1315006  84.3055017  50.2119987  52.0935006  83.7795017
  50.1999987  50.4315006  85.3025017  49.6219987  49.7105006  85.7115017
  51.4839987  50.7245006  85.9265017  51.6999987  50.0045006  86.7155017
  52.6799987  50.7385006  84.9225017  53.5979987  50.5705006  85.4855017
  52.5399987  49.6635006  83.8435017  51.6219987  49.8315006  83.2795017
  53.3949987  49.7115006  83.1685017  52.5029987  48.6805006  84.3125017
  52.8149987  52.0305006  84.3085017  53.5539987  52.0185006  83.6965017
  51.3929987  52.0225006  86.7325017  52.3669987  52.7885006  86.8005017
  50.2359987  52.2745006  87.3435017  49.4119987  51.7385006  87.1095017
  50.0979987  53.3785006  88.2905017  50.7189987  54.2015006  87.9385017
  48.6419987  53.8555006  88.4225017  48.0259987  53.0235006  88.7635017
  48.5449987  54.9975006  89.4165017  49.1599987  55.8295006  89.0755017
  47.5079987  55.3225006  89.4975017  48.8969987  54.6615006  90.3915017
  48.1299987  54.3445006  87.0675017  48.6159987  55.2995006  86.8685017
  48.4479987  53.6145006  86.3235017  46.6269987  54.5175006  86.9945017
  46.3079987  55.2485006  87.7375017  46.3489987  54.8665006  86.0005017
  46.1409987  53.5625006  87.1925017  50.6899987  52.9035006  89.6265017
  51.5389987  53.5795006  90.2145017  50.2829987  51.7195006  90.0695017
  49.4959987  51.2735006  89.6195017  50.9269987  51.0275006  91.1865017
  50.3169987  50.1595006  91.4365017  51.9089987  50.6955006  90.8505017
  51.0929987  51.8835006  92.4205017  52.2079987  52.0285006  92.9255017
  49.9849987  52.4535006  92.9005017  49.1139987  52.3125006  92.4085017
  49.9879987  53.3465006  94.0775017  50.4869987  54.2805006  93.8195017
  48.5559987  53.6665006  94.5475017  48.0419987  52.7075006  94.6135017
  48.6289987  54.1075006  95.5415017  47.7739987  54.5985006  93.6355017
  48.2009987  55.9025006  93.4025017  49.1149987  56.2535006  93.8815017
  47.4819987  56.7505006  92.5755017  47.8269987  57.7685006  92.3975017
  46.3099987  56.2965006  91.9735017  45.5789987  57.1245006  91.1445017
  45.9669987  57.9975006  91.0495017  45.8679987  55.0085006  92.1975017
  44.9529987  54.6495006  91.7255017  46.5919987  54.1725006  93.0245017
  46.2439987  53.1565006  93.2125017  50.7959987  52.7735006  95.2475017
  51.4019987  53.5235006  96.0095017  50.8319987  51.4525006  95.3675017
  50.2359987  50.8665006  94.8005017  51.7259987  50.8135006  96.3135017
  51.9039987  49.7955006  95.9665017  52.6649987  51.3675006  96.3095017
  51.1879987  50.7655006  97.7295017  51.9449987  50.5215006  98.6745017
  49.8919987  51.0155006  97.8955017  49.3539987  51.4805006  97.1785017
  49.2139987  50.6295006  99.1285017  49.8579987  50.8475006  99.9805017
  47.9069987  51.3915006  99.2995017  48.1649987  52.4415006  99.1605017
  47.2259987  51.0775006  98.5075017  47.2329987  51.2105006 100.6465017
  46.4939987  50.0665006 100.9315017  46.4189987  49.2905006 100.1705017
  45.8609987  49.9025006 102.1525017  45.2909987  48.9975006 102.3615017
  45.9539987  50.8915006 103.1045017  45.3239987  50.7215006 104.3135017
  44.8559987  49.8855006 104.3785017  46.6749987  52.0425006 102.8455017
  46.7499987  52.8255006 103.6005017  47.3039987  52.1985006 101.6205017
  47.8659987  53.1075006 101.4085017  48.9619987  49.1395006  99.0005017
  49.0619987  48.4005006  99.9755017  48.6459987  48.7115006  97.7785017
  48.4379987  49.3915006  97.0615017  48.5979987  47.3015006  97.4265017
  48.4169987  46.7145006  98.3265017  47.4839987  47.0045006  96.4155017
  47.6559987  47.6725006  95.5715017  47.6319987  45.9725006  96.0975017
  46.0649987  47.1805006  96.9165017  45.3819987  46.7495006  96.1845017
  45.9619987  46.6515006  97.8645017  45.7329987  48.6405006  97.1165017
  45.7479987  48.8585006  98.1845017  46.4889987  49.2425006  96.6125017
  44.4289987  48.9955006  96.5885017  43.9729987  48.3235006  95.9875017
  43.8089987  50.1445006  96.8415017  44.3509987  51.0685006  97.6345017
  45.2529987  50.9005006  98.0575017  43.8569987  51.9325006  97.8095017
  42.6259987  50.3665006  96.2975017  42.2089987  49.6665006  95.7005017
  42.1439987  51.2345006  96.4815017  49.9469987  46.9585006  96.8055017
  50.2499987  47.4115006  95.6995017  50.7529987  46.1735006  97.5145017
  50.4239987  45.7685006  98.3795017  52.0979987  45.8365006  97.0605017
  52.2709987  46.1825006  96.0415017  53.1759987  46.4355006  97.9715017
  53.2229987  45.8655006  98.8995017  54.5279987  46.3805006  97.2725017
  54.4819987  46.9515006  96.3445017  55.2919987  46.8075006  97.9235017
  54.7799987  45.3435006  97.0485017  52.8219987  47.8605006  98.3585017
  51.8699987  47.8675006  98.8885017  53.5999987  48.2665006  99.0045017
  52.7409987  48.4725006  97.4595017  52.3259987  44.3465006  97.0845017
  51.9869987  43.6895006  98.0505017  52.9389987  43.8245006  96.0345017
  53.0849987  44.3915006  95.2115017  53.2889987  42.4085006  95.9705017
  52.5439987  41.7355006  96.3945017  53.5769987  42.0005006  94.4975017
  52.6519987  42.0925006  93.9275017  54.6509987  42.8845006  93.8695017
  55.5759987  42.7935006  94.4385017  54.8249987  42.5695006  92.8405017
  54.3199987  43.9225006  93.8805017  53.9039987  40.5105006  94.3745017
  54.9569987  40.3825006  94.6235017  53.2919987  39.9765006  95.1015017
  53.6409987  39.9555006  92.9895017  54.2529987  40.4885006  92.2615017
  53.8929987  38.8955006  92.9685017  52.5879987  40.0835006  92.7405017
  54.4469987  42.1345006  96.9565017  55.0349987  43.0815006  97.4745017
  54.7359987  40.8665006  97.2715017  54.1359987  40.1175006  96.9575017
  55.8459987  40.5365006  98.1975017  56.6179987  41.3045006  98.1435017
  55.3689987  40.4105006  99.6815017  56.1149987  39.8475006 100.2425017
  55.1869987  41.7845006 100.3155017  54.4399987  42.3475006  99.7555017
  54.8549987  41.6685006 101.3475017  56.1349987  42.3215006 100.2975017
  54.1339987  39.6885006  99.7615017  53.8599987  39.6235006 100.6795017
  56.6579987  39.2885006  97.7965017  56.3599987  38.6435006  96.7875017
  57.7019987  39.0005006  98.5875017  57.8979987  39.6435006  99.3415017
  58.5469987  37.7955006  98.4565017  59.0019987  37.7785006  97.4665017
  59.6669987  37.7785006  99.5125017  59.1979987  37.5545006 100.4705017
  60.3609987  36.9785006  99.2525017  60.4179987  39.0815006  99.6135017
  60.5379987  39.7845006  98.5895017  60.8989987  39.3935006 100.7255017
  57.7909987  36.4885006  98.6755017  58.0629987  35.4935006  98.0095017
  56.8749987  36.5015006  99.6395017  56.6439987  37.3905006 100.0595017
  56.2759987  35.2945006 100.2005017  57.0349987  34.6815006 100.6865017
  55.2319987  35.6945006 101.2405017  55.6779987  36.3835006 101.9575017
  54.3909987  36.1795006 100.7445017  54.7409987  34.4485006 101.9705017
  54.2949987  33.7585006 101.2545017  55.5809987  33.9625006 102.4675017
  53.6979987  34.8475006 103.0085017  54.1429987  35.5375006 103.7255017
  52.8569987  35.3325006 102.5115017  53.2069987  33.6035006 103.7395017
  52.7609987  32.9135006 103.0235017  54.0469987  33.1185006 104.2365017
  52.2019987  33.9875006 104.7405017  51.4229987  34.4365006 104.2805017
  51.8769987  33.1625006 105.2245017  52.6149987  34.6265006 105.4045017
  55.6669987  34.2795006  99.2065017  55.6679987  33.0815006  99.4945017
  55.1459987  34.7245006  98.0615017  55.0459987  35.7135006  97.8845017
  54.6489987  33.7805006  97.0465017  54.8709987  32.7625006  97.3665017
  53.1419987  33.9085006  96.8395017  52.7979987  33.1175006  96.1735017
  52.6339987  33.8205006  97.7995017  52.6039987  35.5065006  96.1875017
  55.3379987  33.9515006  95.6995017  55.4249987  35.0625006  95.1805017
  55.8369987  32.8445006  95.1275017  56.0299987  31.5045006  95.7165017
  55.0919987  31.1655006  96.1555017  56.7949987  31.5585006  96.4915017
  56.4579987  30.6625006  94.5465017  55.5899987  30.1505006  94.1305017
  57.1899987  29.9255006  94.8775017  57.0579987  31.6025006  93.5615017
  56.8889987  31.1835006  92.5695017  58.1199987  31.8125006  93.6905017
  56.2479987  32.8885006  93.7275017  56.8239987  33.7975006  93.5545017
  55.0239987  32.8795006  92.8105017  55.1019987  33.3385006  91.6715017
  53.9059987  32.3645006  93.3215017  53.9299987  31.9695006  94.2505017
  52.6619987  32.2795006  92.5655017  52.8079987  31.6635006  91.6785017
  51.5559987  31.6455006  93.4275017  51.4389987  32.2695006  94.3135017
  50.6359987  31.6695006  92.8425017  51.8519987  30.2045006  93.8535017
  52.1219987  29.6445006  92.9585017  52.7109987  30.2545006  94.5225017
  50.6929987  29.5035006  94.5635017  49.5179987  29.8895006  94.3635017
  50.9599987  28.5405006  95.3205017  52.2489987  33.6635006  92.0595017
  51.7779987  33.8075006  90.9345017  52.4589987  34.6805006  92.8925017
  52.8509987  34.5025006  93.8065017  52.1399987  36.0615006  92.5315017
  51.1399987  36.0715006  92.0965017  52.1439987  36.6555006  93.4455017
  53.1149987  36.6715006  91.5415017  52.7089987  37.3745006  90.6105017
  54.4029987  36.4025006  91.7345017  54.6889987  35.8165006  92.5065017
  55.4419987  36.9925006  90.8885017  55.3499987  38.0785006  90.9045017
  56.8609987  36.5905006  91.3445017  56.9439987  35.5035006  91.3365017
  57.9049987  37.1875006  90.4055017  57.8219987  38.2745006  90.4135017
  58.9019987  36.8965006  90.7375017  57.7379987  36.8185006  89.3935017
  57.1169987  37.0645006  92.7785017  57.0549987  38.1525006  92.7705017
  56.3149987  36.6595006  93.3965017  58.4539987  36.6395006  93.3455017
  59.2559987  37.0445006  92.7285017  58.5539987  37.0165006  94.3635017
  58.5159987  35.5515006  93.3535017  55.2459987  36.6055006  89.4215017
  55.3319987  37.4535006  88.5345017  54.9809987  35.3245006  89.1755017
  55.0229987  34.6505006  89.9265017  54.7569987  34.8325006  87.8085017
  55.5069987  35.2465006  87.1345017  54.7719987  33.2795006  87.7085017
  54.4239987  32.9865006  86.7175017  56.1779987  32.7385006  87.9325017
  56.5269987  33.0305006  88.9235017  56.1659987  31.6515006  87.8585017
  56.8489987  33.1465006  87.1765017  53.7979987  32.6285006  88.7015017
  54.1889987  31.6345006  88.9205017  53.8199987  33.2345006  89.6075017
  52.3699987  32.5115006  88.2065017  52.3469987  31.9055006  87.3015017
  51.7559987  32.0405006  88.9745017  51.9779987  33.5045006  87.9875017
  53.4839987  35.3915006  87.1755017  53.3479987  35.3735006  85.9545017
  52.5569987  35.8855006  87.9975017  52.6409987  35.7695006  88.9975017
  51.3869987  36.5775006  87.4785017  51.0329987  36.0565006  86.5885017
  50.2549987  36.6305006  88.4925017  50.0029987  35.5875006  88.6825017
  50.6059987  37.0925006  89.4155017  49.0109987  37.3735006  87.9905017
  49.2759987  38.4225006  87.8565017  48.4899987  36.8085006  86.6735017
  48.2249987  35.7595006  86.8075017  47.6089987  37.3685006  86.3605017
  49.2629987  36.8925006  85.9105017  47.9369987  37.3215006  89.0615017
  48.3059987  37.7965006  89.9705017  47.0489987  37.8475006  88.7115017
  47.6839987  36.2825006  89.2725017  51.7679987  37.9855006  87.0865017
  51.5579987  38.3765006  85.9405017  52.3209987  38.7455006  88.0345017
  52.3989987  38.4035006  88.9815017  52.8209987  40.0905006  87.7385017
  51.9819987  40.7805006  87.6535017  53.7489987  40.5855006  88.8435017
  53.1249987  40.6015006  89.7375017  54.5559987  39.8645006  88.9765017
  54.3439987  41.9815006  88.6105017  54.5629987  42.0975006  87.5495017
  53.3729987  43.0615006  89.0475017  53.1539987  42.9465006  90.1095017
  53.8159987  44.0415006  88.8725017  52.4499987  42.9735006  88.4755017
  55.6659987  42.1405006  89.3385017  56.3729987  41.3955006  88.9745017
  56.0639987  43.1385006  89.1555017  55.5109987  42.0025006  90.4085017
  53.5839987  40.0665006  86.4255017  53.4679987  40.9755006  85.6015017
  54.3579987  38.9995006  86.2505017  54.4379987  38.3365006  87.0085017
  55.1419987  38.7695006  85.0485017  55.8039987  39.6145006  84.8595017
  55.9969987  37.5095006  85.2345017  56.1879987  37.4755006  86.3075017
  55.3589987  36.6715006  84.9535017  57.3179987  37.4175006  84.4805017
  57.1129987  37.2275006  83.4265017  58.0959987  38.7105006  84.6185017
  58.3009987  38.9005006  85.6715017  59.0369987  38.6285006  84.0745017
  57.5099987  39.5335006  84.2085017  58.1499987  36.2595006  85.0165017
  57.6009987  35.3265006  84.8885017  59.0909987  36.2045006  84.4695017
  58.3539987  36.4175006  86.0755017  54.2619987  38.6425006  83.8055017
  54.3759987  39.4395006  82.8685017  53.3709987  37.6545006  83.8145017
  53.3309987  37.0315006  84.6085017  52.4339987  37.4335006  82.7095017
  52.9939987  37.1475006  81.8185017  51.4079987  36.3355006  83.0455017
  51.0349987  36.5025006  84.0555017  50.2429987  36.3575006  82.0635017
  50.6159987  36.1895006  81.0535017  49.5329987  35.5725006  82.3235017
  49.7459987  37.3265006  82.1105017  52.0639987  34.9595006  83.0015017
  52.2159987  34.7005006  81.9535017  53.0309987  35.0395006  83.4985017
  51.2409987  33.8835006  83.6715017  50.2739987  33.8025006  83.1745017
  51.7649987  32.9305006  83.6045017  51.0889987  34.1415006  84.7195017
  51.6539987  38.6935006  82.3855017  51.5389987  39.0745006  81.2265017
  51.0969987  39.3095006  83.4245017  51.2159987  38.9205006  84.3485017
  50.2759987  40.5045006  83.2785017  49.3859987  40.2715006  82.6935017
  49.8379987  41.0255006  84.6455017  49.2619987  40.2325006  85.1225017
  50.7429987  41.2135006  85.2225017  49.0019987  42.2935006  84.5865017
  49.6549987  43.1405006  84.3735017  48.2709987  42.1895006  83.7855017
  48.2659987  42.5635006  85.8805017  47.0379987  42.6495006  85.9025017
  49.0139987  42.6925006  86.9705017  48.5749987  42.8735006  87.8615017
  50.0179987  42.6085006  86.9025017  51.0309987  41.5835006  82.5265017
  50.6269987  41.9675006  81.4355017  52.1379987  42.0425006  83.1025017
  52.4049987  41.6895006  84.0105017  52.9559987  43.0975006  82.4995017
  52.4299987  44.0515006  82.5415017  54.2719987  43.2325006  83.2645017
  54.8539987  42.3205006  83.1345017  54.8299987  44.0795006  82.8655017
  54.0209987  43.4405006  84.6465017  54.8549987  43.5235006  85.1145017
  53.2339987  42.8575006  81.0105017  53.1539987  43.7855006  80.1955017
  53.5359987  41.6055006  80.6695017  53.6249987  40.9095006  81.3955017
  53.8049987  41.2045006  79.2855017  54.5429987  41.8515006  78.8105017
  54.3149987  39.7415006  79.2225017  53.6279987  39.1095006  79.7855017
  54.3969987  39.2465006  77.7855017  55.0839987  39.8775006  77.2215017
  54.7579987  38.2175006  77.7745017  53.4079987  39.2885006  77.3295017
  55.6739987  39.6185006  79.9015017  55.5869987  39.9175006  80.9465017
  56.0159987  38.5845006  79.8475017  56.3919987  40.2645006  79.3975017
  52.5629987  41.3595006  78.3995017  52.6249987  41.9845006  77.3455017
  51.4459987  40.7795006  78.8315017  51.4719987  40.2205006  79.6725017
  50.1769987  40.8775006  78.0995017  50.3529987  40.6735006  77.0435017
  49.1499987  39.8745006  78.6265017  49.4299987  39.7385006  79.6715017
  48.1549987  40.3165006  78.5725017  49.1439987  38.5135006  77.9175017
  48.7369987  38.6635006  76.9175017  50.5299987  37.8865006  77.8125017
  50.9379987  37.7355006  78.8125017  50.4569987  36.9265006  77.3015017
  51.1869987  38.5485006  77.2485017  48.1919987  37.5655006  78.6315017
  47.1849987  37.9825006  78.6185017  48.1909987  36.6005006  78.1245017
  48.5169987  37.4325006  79.6635017  49.6079987  42.2775006  78.1825017
  48.8779987  42.7015006  77.2975017  49.9409987  42.9885006  79.2525017
  50.4539987  42.5485006  80.0025017  49.5909987  44.3935006  79.3875017
  48.5069987  44.4955006  79.3395017  49.9469987  44.7565006  80.3515017
  50.2129987  45.2255006  78.2875017  49.6159987  46.1895006  77.8335017
  51.4099987  44.8515006  77.8495017  52.5619987  43.8465006  78.3805017
  52.1149987  42.8595006  78.4995017  52.9009987  44.2105006  79.3505017
  53.6669987  43.8655006  77.3355017  53.4839987  43.1275006  76.5545017
  54.6409987  43.6815006  77.7885017  53.5809987  45.2805006  76.7925017
  53.9909987  45.3635006  75.7855017  54.0829987  45.9915006  77.4485017
  52.0819987  45.5645006  76.7675017  51.9569987  46.6345006  76.9335017
  51.5149987  45.1935006  75.4065017  51.3739987  46.0505006  74.5435017
  51.1889987  43.9215006  75.2175017  51.3149987  43.2555006  75.9665017
  50.6849987  43.4355006  73.9345017  51.2859987  43.8185006  73.1095017
  50.6699987  41.8935006  73.8865017  50.1099987  41.5235006  74.7455017
  50.0209987  41.3875006  72.5995017  50.5809987  41.7565006  71.7405017
  50.0249987  40.2975006  72.5945017  48.9929987  41.7465006  72.5445017
  52.0949987  41.3445006  74.0215017  52.5539987  41.3795006  73.0335017
  52.6379987  42.0055006  74.6975017  52.1469987  39.9275006  74.5525017
  51.6049987  39.2655006  73.8775017  53.1849987  39.6035006  74.6225017
  51.6889987  39.8925006  75.5405017  49.2749987  43.9575006  73.6595017
  48.9579987  44.3255006  72.5265017  48.4299987  43.9685006  74.6875017
  48.7059987  43.5805006  75.5775017  47.0629987  44.4705006  74.5435017
  46.6069987  44.0905006  73.6285017  46.1539987  44.0955006  75.7425017
  46.1959987  43.0145006  75.8745017  46.5889987  44.7815006  77.0325017
  46.5469987  45.8625006  76.9015017  45.9219987  44.4875006  77.8435017
  47.6089987  44.4845006  77.2765017  44.7099987  44.4465006  75.4385017
  44.3799987  43.8975006  74.5565017  44.0829987  44.1775006  76.2885017
  44.6269987  45.5175006  75.2515017  47.0819987  45.9775006  74.3545017
  46.3679987  46.5065006  73.5125017  47.9229987  46.6545006  75.1285017
  48.4839987  46.1545006  75.8035017  48.0289987  48.1005006  75.0815017
  47.0479987  48.5535006  75.2255017  48.9549987  48.5865006  76.1855017
  48.5439987  48.3195006  77.1595017  49.9199987  48.0975006  76.0515017
  49.1609987  50.0715006  76.1435017  50.2759987  50.5495006  75.9445017
  48.0799987  50.8145006  76.3045017  48.1559987  51.8215006  76.2855017
  47.1829987  50.3715006  76.4455017  48.5269987  48.5855006  73.7235017
  48.0379987  49.5845006  73.2005017  49.4929987  47.8715006  73.1545017
  49.9629987  47.1495006  73.6825017  49.9419987  48.1345006  71.7845017
  50.3119987  49.1575006  71.7215017  51.0659987  47.1865006  71.3935017
  50.7079987  46.1585006  71.4425017  51.3929987  47.4085006  70.3775017
  51.9039987  47.3125006  72.0795017  48.7819987  48.0045006  70.8055017
  48.3559987  48.9895006  70.2045017  48.2639987  46.7885006  70.6695017
  48.7259987  46.0105006  71.1185017  47.0969987  46.5105006  69.8195017
  47.3959987  46.4255006  68.7745017  46.4609987  45.1755006  70.2605017
  47.2259987  44.4265006  70.4655017  45.8869987  45.3645006  71.1675017
  45.5009987  44.5535006  69.2595017  45.2799987  45.0865006  67.9865017
  45.8049987  45.9935006  67.6865017  44.3969987  44.4685006  67.1035017
  44.2249987  44.9065006  66.1205017  43.7409987  43.3075006  67.4675017
  43.0529987  42.8245006  66.7735017  43.9599987  42.7605006  68.7145017
  43.4449987  41.8455006  69.0065017  44.8369987  43.3755006  69.5975017
  45.0189987  42.9375006  70.5785017  46.0499987  47.6475006  69.8185017
  45.6589987  48.1285006  68.7515017  45.6329987  48.0985006  71.0015017
  46.0209987  47.7095006  71.8485017  44.5499987  49.0885006  71.1205017
  43.7949987  48.9015006  70.3575017  43.8859987  48.9985006  72.4985017
  44.6629987  49.1995006  73.2365017  43.1339987  49.7865006  72.5385017
  43.2299987  47.6545006  72.8045017  44.0149987  46.9025006  72.7265017
  42.8799987  47.7085006  73.8355017  41.8469987  47.1855006  71.7295017
  42.6529987  46.0885006  70.5615017  43.0879987  45.2435006  71.0965017
  41.9209987  45.7235006  69.8405017  43.4399987  46.6305006  70.0375017
  44.9839987  50.5305006  70.8535017  44.3259987  51.2375006  70.0935017
  46.0629987  50.9815006  71.4865017  46.5169987  50.4245006  72.1965017
  46.5899987  52.3235006  71.2125017  45.8229987  53.0865006  71.3475017
  47.7909987  52.6685006  72.1125017  48.3789987  51.7635006  72.2655017
  48.6709987  53.7475006  71.4835017  48.0839987  54.6525006  71.3305017
  49.5089987  53.9655006  72.1455017  49.0499987  53.3945006  70.5245017
  47.3009987  53.1105006  73.4815017  46.7279987  52.3045006  73.9405017
  48.1559987  53.3535006  74.1135017  46.6679987  53.9915006  73.3745017
  46.9959987  52.4485006  69.7455017  46.6849987  53.4465006  69.0875017
  47.6979987  51.4385006  69.2405017  48.0189987  50.6965006  69.8455017
  48.0259987  51.3645006  67.8215017  48.7439987  52.1455006  67.5725017
  48.4589987  50.3895006  67.5985017  46.7809987  51.5545006  66.9825017
  46.7359987  52.4315006  66.1225017  45.7559987  50.7545006  67.2625017
  45.8629987  50.0385006  67.9675017  44.4859987  50.8335006  66.5415017
  44.6399987  50.5735006  65.4945017  43.4689987  49.8645006  67.1405017
  43.9579987  48.9405006  67.4495017  42.9709987  50.3155006  67.9985017
  42.1579987  49.3805006  65.9985017  41.5199987  48.5825006  66.8495017
  43.9099987  52.2465006  66.5415017  43.3869987  52.7005006  65.5295017
  44.0159987  52.9395006  67.6725017  44.3909987  52.4985006  68.5005017
  43.5729987  54.3355006  67.7675017  42.5419987  54.4175006  67.4225017
  43.6459987  54.8305006  69.2115017  44.6569987  54.6325006  69.5685017
  43.4719987  55.9065006  69.1915017  42.6439987  54.1735006  70.1425017
  42.7159987  53.0945006  70.0025017  42.9239987  54.4255006  71.1655017
  40.9469987  54.6965006  69.8475017  41.1249987  56.4665006  70.0535017
  41.8389987  56.8475006  69.3235017  40.1589987  56.9495006  69.9035017
  41.4859987  56.6815006  71.0595017  44.4129987  55.2565006  66.8955017
  43.8759987  56.0215006  66.0945017  45.7269987  55.1815006  67.0565017
  46.1249987  54.5605006  67.7465017  46.6239987  56.0315006  66.2985017
  46.4519987  57.0735006  66.5665017  48.0839987  55.6865006  66.5905017
  48.3229987  55.9415006  67.6235017  48.2699987  54.6255006  66.4265017
  49.0609987  56.4325006  65.7265017  49.3319987  57.7735006  65.9615017
  48.8319987  58.2825006  66.7855017  50.2279987  58.4655006  65.1605017
  50.4349987  59.5175006  65.3565017  50.8609987  57.8185006  64.1105017
  51.5659987  58.3595006  63.4795017  50.5949987  56.4805006  63.8635017
  51.0879987  55.9675006  63.0375017  49.6999987  55.7955006  64.6695017
  49.4889987  54.7435006  64.4785017  46.3509987  55.9285006  64.8005017
  46.2129987  56.9495006  64.1195017  46.2609987  54.6975006  64.2995017
  46.3589987  53.9005006  64.9115017  46.0449987  54.4535006  62.8715017
  46.8629987  54.8635006  62.2785017  45.9209987  52.9465006  62.5655017
  45.1749987  52.5145006  63.2325017  45.5039987  52.7135006  61.1205017
  46.2499987  53.1445006  60.4525017  45.4239987  51.6425006  60.9325017
  44.5389987  53.1865006  60.9395017  47.2349987  52.2405006  62.8415017
  47.5039987  52.3685006  63.8905017  47.1309987  51.1785006  62.6205017
  48.0159987  52.6665006  62.2125017  44.7739987  55.1615006  62.4125017
  44.7819987  55.8965006  61.4175017  43.7009987  54.9425006  63.1665017
  43.7949987  54.3675006  63.9915017  42.3779987  55.4515006  62.8255017
  42.0999987  55.1395006  61.8185017  41.3489987  54.8945006  63.8125017
  41.6319987  53.8625006  64.0195017  41.4309987  55.4835006  64.7255017
  39.9139987  54.9355006  63.3105017  39.5639987  55.9665006  63.3475017
  39.8979987  54.5845006  62.2785017  39.0039987  54.0605006  64.1575017
  39.2189987  53.0165006  63.9295017  39.2199987  54.2545006  65.2085017
  37.5399987  54.3465006  63.8815017  36.9429987  53.5865006  64.3855017
  37.3009987  55.3275006  64.2925017  37.2349987  54.3315006  62.4255017
  37.4559987  53.4225006  62.0445017  36.2539987  54.5255006  62.2855017
  37.7879987  55.0365006  61.9585017  42.3219987  56.9795006  62.8195017
  41.6299987  57.5825006  61.9945017  43.0379987  57.6075006  63.7465017
  43.5139987  57.0875006  64.4695017  43.0969987  59.0655006  63.7895017
  42.0909987  59.4715006  63.6805017  43.7159987  59.5695006  65.1155017
  44.6689987  59.0645006  65.2695017  43.9399987  61.0745006  65.0795017
  42.9869987  61.5805006  64.9255017  44.3759987  61.4005006  66.0245017
  44.6179987  61.3225006  64.2625017  42.8019987  59.2275006  66.2885017
  41.8879987  59.8075006  66.1645017  42.5699987  58.1645006  66.2165017
  43.4059987  59.5215006  67.6475017  43.6379987  60.5845006  67.7205017
  42.6949987  59.2515006  68.4275017  44.3199987  58.9415006  67.7725017
  43.8869987  59.5945006  62.5835017  43.4489987  60.5385006  61.9195017
  45.0279987  58.9665006  62.2905017  45.2909987  58.1535006  62.8285017
  45.9619987  59.4565006  61.2675017  45.9429987  60.5455006  61.2315017
  47.3869987  59.0015006  61.6095017  48.0829987  59.5255006  60.9545017
  47.5939987  59.2665006  62.6465017  47.5419987  57.5975006  61.4395017
  48.4419987  57.3455006  61.6605017  45.6319987  59.0435006  59.8205017
  46.2649987  59.5375006  58.8845017  44.6609987  58.1495006  59.6305017
  44.1629987  57.7745006  60.4255017  44.3479987  57.6145006  58.2955017
  45.2149987  57.0755006  57.9145017  43.1509987  56.6555006  58.3315017
  43.0069987  56.3015006  57.3105017  43.4429987  55.8195006  58.9675017
  41.8509987  57.2555006  58.8475017  42.0309987  57.6825006  59.8345017
  41.5239987  58.0415006  58.1665017  40.7489987  56.2235006  58.9605017
  40.5979987  55.3745006  58.0825017  39.9699987  56.2935006  60.0365017
  39.2209987  55.6275006  60.1575017  40.1319987  57.0125006  60.7275017
  44.0979987  58.7045006  57.2565017  43.4609987  59.7085006  57.5495017
  44.5879987  58.4925006  56.0305017  45.2049987  57.2405006  55.5635017
  44.5109987  56.4145006  55.7205017  46.1199987  57.0565006  56.1265017
  45.4689987  57.5015006  54.1125017  44.6319987  57.1385006  53.5165017
  46.3809987  56.9885006  53.8075017  45.6229987  58.9745006  53.9905017
  45.3869987  59.3475006  52.9935017  46.6349987  59.2765006  54.2605017
  44.6259987  59.5325006  55.0035017  45.0069987  60.4265006  55.4965017
  43.2989987  59.8565006  54.3155017  43.1149987  60.9855006  53.8735017
  42.3809987  58.8985006  54.2115017  42.5769987  57.9545006  54.5135017
  41.0799987  59.1745006  53.5845017  41.2219987  59.3065006  52.5115017
  40.0819987  58.0335006  53.8095017  39.1469987  58.3315006  53.3345017
  40.4829987  57.1565006  53.3025017  39.8249987  57.7005006  55.2685017
  40.7679987  57.3845006  55.7135017  39.4739987  58.6055006  55.7645017
  38.7909987  56.5975006  55.4365017  38.7889987  55.9945006  54.5285017
  39.0909987  55.9785006  56.2825017  37.3949987  57.1475006  55.6815017
  37.4559987  57.9615006  56.4035017  36.9929987  57.5255006  54.7415017
  36.5009987  56.0825006  56.2105017  36.8729987  55.7325006  57.0815017
  35.5789987  56.4645006  56.3675017  36.4439987  55.3285006  55.5415017
  40.4889987  60.4845006  54.0905017  39.8079987  61.1735006  53.3465017
  40.7719987  60.8185006  55.3475017  41.2989987  60.1695006  55.9145017
  40.2879987  62.0515006  55.9715017  39.1979987  62.0575006  55.9915017
  40.8049987  62.1485006  57.4105017  41.8859987  62.0155006  57.3685017
  40.5769987  63.1555006  57.7615017  40.2079987  61.1335006  58.3655017
  40.2439987  60.1515006  57.8935017  40.8069987  61.1205006  59.2755017
  38.7689987  61.4765006  58.7115017  38.7609987  62.3135006  59.4095017
  38.2419987  61.7585006  57.7995017  38.0769987  60.2825006  59.3465017
  38.2579987  59.4095006  58.7195017  38.5139987  60.1185006  60.3315017
  36.6129987  60.4975006  59.4845017  36.2069987  60.6485006  58.5715017
  36.1919987  59.6835006  59.9095017  36.4449987  61.3055006  60.0665017
  40.6559987  63.3275006  55.2065017  39.8629987  64.2565006  55.1335017
  41.8569987  63.3635006  54.6415017  42.4999987  62.6005006  54.7955017
  42.2989987  64.4865006  53.8145017  42.4049987  65.3775006  54.4335017
  43.6479987  64.1825006  53.1595017  44.3289987  63.8945006  53.9605017
  43.4909987  63.3335006  52.4945017  44.2499987  65.3375006  52.3725017
  45.1259987  64.9755006  51.8355017  43.5089987  65.6975006  51.6585017
  44.6559987  66.4725006  53.2945017  43.7719987  67.0465006  53.5735017
  45.1199987  66.0625006  54.1915017  45.6069987  67.3655006  52.6435017
  46.5819987  67.2045006  52.8535017  45.2919987  68.3595006  51.8205017
  44.0269987  68.6305006  51.5145017  43.2839987  68.0735006  51.9115017
  43.8149987  69.3925006  50.8855017  46.2629987  69.0865006  51.2885017
  47.2259987  68.8795006  51.5125017  46.0359987  69.8445006  50.6615017
  41.2879987  64.7935006  52.7305017  41.0389987  65.9535006  52.4285017
  40.7039987  63.7515006  52.1485017  41.0089987  62.8125006  52.3625017
  39.6769987  63.9295006  51.1235017  40.1939987  64.2315006  50.2125017
  38.9499987  62.6195006  50.8575017  38.4199987  62.3085006  51.7575017
  38.2359987  62.7575006  50.0455017  39.6729987  61.8525006  50.5785017
  38.6699987  65.0335006  51.4705017  38.1409987  65.6825006  50.5735017
  38.4139987  65.2365006  52.7635017  38.7899987  64.5915006  53.4435017
  37.5429987  66.3215006  53.2395017  36.5479987  66.2095006  52.8085017
  37.4209987  66.2895006  54.7715017  38.4349987  66.2865006  55.1705017
  36.9169987  67.2095006  55.0685017  36.6569987  65.0935006  55.3195017
  37.0429987  64.2075006  54.8155017  36.8619987  65.0215006  56.3875017
  35.1529987  65.1895006  55.0965017  34.5429987  66.2225006  55.4755017
  34.5759987  64.2205006  54.5495017  37.9919987  67.7225006  52.8025017
  37.1659987  68.6015006  52.5985017  39.2929987  67.9405006  52.6665017
  39.9689987  67.2515006  52.9625017  39.7829987  69.2295006  52.1895017
  38.9629987  69.9475006  52.1515017  40.8729987  69.7785006  53.1205017
  41.2939987  70.6865006  52.6885017  40.2759987  70.0945006  54.4765017
  39.8549987  69.1865006  54.9095017  41.0529987  70.4835006  55.1345017
  39.4889987  70.8405006  54.3625017  41.9129987  68.8085006  53.2715017
  42.5919987  69.1555006  53.8545017  40.2729987  69.1565006  50.7355017
  41.1149987  69.9555006  50.3135017  39.7329987  68.1925006  49.9855017
  39.1649987  67.4945006  50.4445017  39.9059987  68.1025006  48.5405017
  40.5549987  68.9075006  48.1955017  40.5389987  66.7695006  48.1605017
  39.8959987  66.0255006  48.6315017  40.5169987  66.6355006  47.0785017
  41.9719987  66.5975006  48.6655017  41.9789987  66.7885006  49.7385017
  42.5129987  65.1965006  48.3955017  42.5069987  65.0045006  47.3225017
  43.5329987  65.1215006  48.7715017  41.8859987  64.4605006  48.8995017
  42.8579987  67.6635006  48.0355017  42.4899987  68.6515006  48.3115017
  43.8809987  67.5445006  48.3935017  42.8379987  67.5585006  46.9505017
  38.5269987  68.2045006  47.9255017  37.6549987  67.4145006  48.2545017
  38.3169987  69.1725006  47.0445017  39.0629987  69.7975006  46.7745017
  36.9969987  69.3735006  46.4525017  36.2579987  68.7025006  46.8915017
  36.5009987  70.8185006  46.6065017  35.7049987  70.9995006  45.8835017
  35.9709987  71.0515006  48.0125017  36.7659987  70.8715006  48.7355017
  35.6239987  72.0805006  48.1045017  35.1429987  70.3705006  48.2065017
  37.6049987  71.8125006  46.2755017  37.9319987  71.6635006  45.2465017
  37.2269987  72.8285006  46.3925017  38.4469987  71.6585006  46.9505017
  36.9989987  69.0465006  44.9785017  37.9729987  69.2995006  44.2785017
  35.8969987  68.4805006  44.5125017  35.1929987  68.1265006  45.1445017
  35.6699987  68.3485006  43.0865017  36.5879987  68.5865006  42.5495017
  35.2489987  66.9335006  42.7255017  34.4279987  66.6045006  43.3625017
  34.9369987  66.8945006  41.6815017  36.3369987  65.9325006  42.8825017
  37.3729987  65.8835006  41.9735017  37.3839987  66.5805006  41.1355017
  38.3919987  64.9605006  42.1175017  39.2079987  64.9335006  41.3955017
  38.3759987  64.0715006  43.1775017  39.1759987  63.3395006  43.2915017
  37.3419987  64.1135006  44.0925017  37.3209987  63.4155006  44.9295017
  36.3309987  65.0445006  43.9435017  35.5159987  65.0855006  44.6665017
  34.5759987  69.3185006  42.7085017  33.6849987  69.5895006  43.5115017
  34.6459987  69.8445006  41.4895017  35.4379987  69.6545006  40.8925017
  33.6169987  70.7385006  41.0005017  33.4849987  71.5575006  41.7075017
  33.9849987  71.3225006  39.6425017  33.2669987  72.1045006  39.3945017
  34.9829987  71.7545006  39.7095017  33.9679987  70.3325006  38.6375017
  34.2029987  70.7275006  37.7945017  32.3159987  69.9675006  40.9195017
  32.3079987  68.7445006  40.7685017  31.2199987  70.7005006  41.0215017
  31.2959987  71.7075006  41.0275017  29.9019987  70.1085006  41.1745017
  29.9459987  69.2605006  41.8575017  28.8969987  71.1365006  41.7295017
  29.3379987  71.6055006  42.6095017  28.5519987  72.2175006  40.6925017
  28.1109987  71.7495006  39.8125017  27.8409987  72.9215006  41.1245017
  29.4589987  72.7485006  40.4045017  27.7009987  70.4625006  42.1155017
  27.0719987  71.0995006  42.4615017  29.4009987  69.5595006  39.8415017
  28.6029987  68.6245006  39.8005017  29.8829987  70.1565006  38.7565017
  30.5319987  70.9225006  38.8655017  29.5309987  69.7395006  37.4145017
  28.9069987  68.8465006  37.4475017  28.7539987  70.8485006  36.7265017
  29.3059987  71.7845006  36.8105017  28.5969987  70.6135006  35.6735017
  27.4059987  71.0945006  37.3135017  26.9829987  72.3495006  37.6945017
  25.7509987  72.2695006  38.1635017  25.2319987  73.1615006  38.5155017
  25.3639987  71.0085006  38.1045017  24.4679987  70.6485006  38.4005017
  26.3789987  70.2535006  37.5735017  26.2469987  69.1795006  37.4405017
  30.7649987  69.4555006  36.5805017  31.8449987  69.9755006  36.8445017
  30.5899987  68.6305006  35.5645017  29.7769987  68.0335006  35.5265017
  31.5449987  68.5545006  34.4865017  32.5129987  68.9975006  34.7175017
  31.7589987  67.1115006  34.0735017  30.7989987  66.6565006  33.8295017
  32.4099987  67.0755006  33.1995017  32.2229987  66.5635006  34.8935017
  30.9409987  69.3665006  33.3465017  29.7209987  69.3855006  33.1845017
  31.7809987  70.0425006  32.5685017  32.7699987  70.0505006  32.7745017
  31.3019987  70.8325006  31.4325017  30.2349987  70.6825006  31.2665017
  31.5649987  72.3435006  31.6145017  31.1879987  72.8765006  30.7415017
  30.8669987  72.8585006  32.8635017  31.2439987  72.3255006  33.7365017
  31.0629987  73.9245006  32.9765017  29.7929987  72.6945006  32.7745017
  33.0549987  72.6475006  31.6765017  33.5309987  72.3245006  30.7505017
  33.2029987  73.7195006  31.8045017  33.4999987  72.1165006  32.5185017
  31.9469987  70.3675006  30.1405017  33.0589987  69.8455006  30.1505017
  31.2349987  70.5485006  29.0305017  30.2769987  70.8585006  29.1025017
  31.7719987  70.2585006  27.7005017  32.8159987  69.9585006  27.7895017
  30.9719987  69.1385006  26.9905017  29.9089987  69.3375006  27.1235017
  31.2949987  69.0755006  25.4995017  32.3579987  68.8765006  25.3655017
  30.7149987  68.2785006  25.0345017  31.0429987  70.0275006  25.0325017
  31.2939987  67.7945006  27.6365017  32.3559987  67.6035006  27.4805017
  31.0949987  67.8895006  28.7045017  30.4889987  66.6465006  27.0755017
  30.6869987  66.5505006  26.0085017  30.7709987  65.7235006  27.5815017
  29.4269987  66.8365006  27.2315017  31.7629987  71.5365006  26.8655017
  30.7159987  72.1535006  26.6865017  32.9319987  71.9315006  26.3695017
  33.7829987  71.4655006  26.6505017  33.0349987  73.0825006  25.4775017
  32.1949987  73.0825006  24.7835017  33.0159987  74.3955006  26.2705017
  33.1349987  75.2195006  25.5665017  32.0489987  74.4785006  26.7665017
  34.0489987  74.4495006  27.2385017  34.0019987  75.2845006  27.7105017
  34.2829987  72.9965006  24.6155017  35.1359987  72.1375006  24.8305017
  34.3759987  73.8885006  23.6375017  33.6529987  74.5835006  23.5195017
  35.4699987  73.8565006  22.6705017  35.7589987  72.8245006  22.4705017
  35.0329987  74.5075006  21.3525017  34.5639987  75.4585006  21.6035017
  35.9349987  74.6905006  20.7695017  34.0639987  73.6635006  20.5355017
  33.2699987  73.3165006  21.1975017  33.6359987  74.2925006  19.7545017
  34.8679987  72.2395006  19.7755017  35.8559987  73.0725006  18.5355017
  36.5439987  73.7635006  19.0225017  36.4239987  72.3355006  17.9675017
  35.2029987  73.6255006  17.8615017  36.7299987  74.5385006  23.1995017
  36.6629987  75.6215006  23.7825017  37.8729987  73.8945006  22.9795017
  37.8509987  73.0085006  22.4955017  39.1619987  74.4045006  23.4275017
  39.0769987  75.4655006  23.6615017  39.6279987  73.6615006  24.6835017
  39.2029987  72.6595006  24.6355017  40.7149987  73.5975006  24.6295017
  39.2239987  74.3205006  25.9935017  39.4549987  75.3835006  25.9265017
  38.1499987  74.1905006  26.1235017  39.9569987  73.7155006  27.1855017
  39.4749987  72.7775006  27.4605017  40.9929987  73.5225006  26.9055017
  39.9429987  74.6075006  28.3455017  39.5179987  75.5145006  28.2135017
  40.4489987  74.3105006  29.5425017  41.0269987  73.1305006  29.7685017
  41.0839987  72.4495006  29.0255017  41.4049987  72.9235006  30.6825017
  40.3719987  75.2005006  30.5255017  39.9319987  76.0945006  30.3605017
  40.7539987  74.9795006  31.4335017  40.2019987  74.2395006  22.3315017
  40.6299987  73.1245006  22.0505017  40.6089987  75.3515006  21.7235017
  40.1829987  76.2305006  21.9795017  41.5849987  75.3445006  20.6295017
  41.6009987  76.3195006  20.1435017  42.9979987  75.0385006  21.1665017
  42.8629987  74.4145006  22.0505017  43.5509987  74.4815006  20.4105017
  43.7789987  76.2945006  21.5445017  43.7419987  77.2925006  20.7855017
  44.4589987  76.2725006  22.5935017  41.1899987  74.3595006  19.5165017
  42.0259987  73.6175006  19.0035017  39.9059987  74.3565006  19.1605017
  39.2569987  74.9635006  19.6395017  39.3929987  73.4975006  18.0885017
  38.5139987  74.0005006  17.6855017  40.1709987  73.4605006  17.3255017
  39.0149987  72.0765006  18.4805017  38.4749987  71.3385006  17.6625017
  39.2859987  71.6855006  19.7225017  39.7689987  72.3075006  20.3545017
  38.9169987  70.3605006  20.2045017  38.6089987  69.7345006  19.3665017
  40.1019987  69.6975006  20.8975017  40.3769987  70.3385006  21.7355017
  39.7509987  68.7375006  21.2755017  41.3109987  69.4795006  20.0105017
  41.7189987  70.4525006  19.7365017  42.0569987  68.9195006  20.5745017
  40.9459987  68.7095006  18.7485017  40.0269987  68.1565006  18.9455017
  40.7709987  69.4325006  17.9515017  42.0389987  67.7405006  18.3225017
  41.9719987  66.8675006  18.9715017  41.8299987  67.4455006  17.2945017
  43.4119987  68.3155006  18.4045017  43.6059987  68.5885006  19.3575017
  44.0849987  67.6225006  18.1095017  43.4749987  69.1245006  17.8025017
  37.7619987  70.4445006  21.1805017  37.7039987  71.3485006  22.0095017
  36.8479987  69.4895006  21.0845017  36.9129987  68.8055006  20.3445017
  35.7359987  69.3945006  22.0155017  35.3739987  70.3895006  22.2745017
  34.5939987  68.6115006  21.3685017  34.5499987  69.0155006  20.3575017
  34.8999987  67.5665006  21.3285017  33.2159987  68.7135006  22.0165017
  33.3319987  68.6375006  23.0975017  32.5449987  70.0355006  21.6695017
  32.4289987  70.1115006  20.5885017  31.5649987  70.0815006  22.1445017
  33.1609987  70.8605006  22.0275017  32.3669987  67.5395006  21.5645017
  32.8449987  66.6075006  21.8655017  31.3809987  67.6055006  22.0235017
  32.2639987  67.5615006  20.4795017  36.2299987  68.6785006  23.2685017
  36.7549987  67.5765006  23.1755017  36.0619987  69.2915006  24.4365017
  35.5729987  70.1735006  24.4895017  36.6179987  68.7325006  25.6665017
  37.0139987  67.7335006  25.4835017  37.7489987  69.6215006  26.1585017
  37.4029987  70.6335006  26.3685017  38.2259987  69.2095006  27.0475017
  39.0469987  69.7845006  24.9275017  39.8269987  70.5815006  25.6525017
  35.6069987  68.5635006  26.7885017  34.7279987  69.4065006  26.9665017
  35.7469987  67.4675006  27.5385017  36.3769987  66.7425006  27.2265017
  35.0259987  67.2665006  28.7915017  34.1079987  67.8545006  28.7845017
  34.6629987  65.7985006  28.9775017  34.2229987  65.5175006  28.0205017
  35.5689987  65.2165006  29.1455017  33.6599987  65.5185006  30.1025017
  33.0419987  66.4025006  30.2585017  32.7739987  64.3405006  29.7355017
  33.3909987  63.4555006  29.5805017  32.0659987  64.1525006  30.5425017
  32.2279987  64.5675006  28.8195017  34.3359987  65.2755006  31.4445017
  34.9149987  66.1555006  31.7245017  33.5779987  65.0825006  32.2035017
  34.9999987  64.4145006  31.3665017  35.9309987  67.7215006  29.9255017
  37.0529987  67.2385006  30.0495017  35.4409987  68.6495006  30.7435017
  34.4799987  68.9405006  30.6385017  36.2409987  69.2685006  31.7985017
  37.1969987  68.7525006  31.8895017  36.5069987  70.7345006  31.4705017
  35.5439987  71.1885006  31.2375017  36.9159987  71.1935006  32.3705017
  37.4609987  70.9535006  30.3145017  38.4729987  70.7255006  30.6495017
  37.1869987  70.2785006  29.5035017  37.4029987  72.6505006  29.7175017
  35.8409987  72.6475006  28.8465017  35.0379987  72.4015006  29.5405017
  35.6609987  73.6335006  28.4185017  35.8709987  71.9055006  28.0485017
  35.5399987  69.2155006  33.1405017  34.3419987  69.4895006  33.2385017
  36.2949987  68.8585006  34.1715017  37.1739987  68.3865006  34.0115017
  35.8709987  69.0805006  35.5455017  35.0169987  69.7585006  35.5485017
  35.4629987  67.7755006  36.2405017  35.1019987  67.9975006  37.2445017
  34.6769987  67.2755006  35.6745017  36.5779987  66.7835006  36.3945017
  36.8299987  65.8485006  35.3995017  36.2079987  65.8405006  34.5045017
  37.8569987  64.9335006  35.5355017  38.0479987  64.2045006  34.7475017
  38.6449987  64.9435006  36.6765017  39.4569987  64.2235006  36.7825017
  38.4009987  65.8685006  37.6825017  39.0179987  65.8815006  38.5805017
  37.3679987  66.7775006  37.5405017  37.1649987  67.4995006  38.3315017
  37.0229987  69.7505006  36.2605017  38.1609987  69.6915006  35.7995017
  36.7139987  70.4025006  37.3725017  35.7619987  70.3905006  37.7105017
  37.6949987  71.1745006  38.1095017  38.6479987  71.1745006  37.5795017
  37.2159987  72.6205006  38.2535017  37.2109987  73.0475006  37.2505017
  36.1949987  72.5735006  38.6335017  38.0619987  73.4955006  39.1745017
  38.2159987  72.9605006  40.1115017  39.0249987  73.6705006  38.6935017
  37.3889987  74.8265006  39.4575017  36.3109987  74.6925006  39.3725017
  37.6379987  75.1295006  40.4745017  37.8019987  75.8825006  38.5405017
  38.5699987  75.6865006  37.9145017  37.2289987  77.0795006  38.4845017
  36.2149987  77.3755006  39.2875017  35.8769987  76.6865006  39.9445017
  35.7849987  78.2885006  39.2375017  37.6689987  77.9855006  37.6215017
  38.4399987  77.7615006  37.0085017  37.2309987  78.8945006  37.5815017
  37.9149987  70.5405006  39.4695017  36.9819987  70.0295006  40.0785017
  39.1539987  70.5895006  39.9395017  39.8759987  71.0325006  39.3885017
  39.5219987  70.0115006  41.2215017  38.6519987  69.7035006  41.8015017
  40.4309987  68.7905006  41.0135017  39.9699987  68.1355006  40.2735017
  41.8129987  69.2065006  40.5305017  42.2749987  69.8605006  41.2695017
  42.4319987  68.3205006  40.3925017  41.7229987  69.7365006  39.5825017
  40.5399987  67.9865006  42.2935017  39.5499987  67.6435006  42.5935017
  41.1869987  67.1255006  42.1285017  40.9609987  68.6115006  43.0805017
  40.2469987  71.0585006  42.0525017  40.8549987  71.9645006  41.5015017
  40.1839987  70.9355006  43.3715017  39.6759987  70.1675006  43.7865017
  40.8389987  71.8945006  44.2615017  41.6959987  72.3065006  43.7285017
  40.1249987  72.6915006  44.4705017  41.3119987  71.3015006  45.5715017
  40.9099987  70.2055006  45.9565017  42.1749987  72.0375006  46.2565017
  42.4869987  72.9215006  45.8805017  42.7149987  71.6025006  47.5345017
  42.1109987  70.7905006  47.9385017  44.1519987  71.1005006  47.3515017
  44.1129987  70.1645006  46.7945017  44.6849987  71.8495006  46.7655017
  44.8809987  70.8765006  48.6725017  44.2549987  70.3935006  49.6415017
  46.0959987  71.1805006  48.7355017  42.6719987  72.7795006  48.4885017
  43.3529987  73.7745006  48.2645017  41.8859987  72.6535006  49.5555017
  41.4069987  71.7785006  49.7145017  41.6489987  73.7565006  50.4925017
  41.4649987  74.6795006  49.9435017  40.4309987  73.4535006  51.3585017
  40.6989987  72.5365006  51.8835017  40.3129987  74.2625006  52.0795017
  39.1229987  73.2455006  50.6115017  39.2459987  72.4515006  49.8745017
  38.0379987  72.8555006  51.5985017  37.9149987  73.6485006  52.3355017
  37.0989987  72.7055006  51.0665017  38.3199987  71.9315006  52.1035017
  38.7459987  74.5025006  49.8435017  39.5309987  74.7395006  49.1255017
  37.8079987  74.3375006  49.3145017  38.6289987  75.3325006  50.5395017
  42.8179987  74.0805006  51.4225017  42.8209987  75.1375006  52.0595017
  43.7929987  73.1825006  51.5155017  43.7779987  72.3495006  50.9445017
  44.8979987  73.3605006  52.4455017  44.5889987  74.0065006  53.2675017
  45.3319987  72.0185006  53.0175017  45.4429987  71.3305006  52.1795017
  46.3009987  72.1685006  53.4945017  44.3629987  71.4385006  54.0195017
  43.7599987  72.2495006  54.4285017  43.7149987  70.7295006  53.5045017
  45.0899987  70.7325006  55.1455017  45.3419987  69.7165006  54.8415017
  46.0029987  71.2745006  55.3915017  44.2489987  70.6695006  56.3355017
  44.4559987  71.3225006  57.0775017  43.2379987  69.8215006  56.4995017
  42.9199987  68.9415006  55.5535017  43.4519987  68.9125006  54.6955017
  42.1479987  68.3065006  55.6975017  42.5409987  69.8485006  57.6205017
  42.7799987  70.5115006  58.3445017  41.7719987  69.2065006  57.7495017
  46.0989987  74.0005006  51.7915017  46.2839987  73.8965006  50.5755017
  46.9229987  74.6425006  52.6195017  46.6249987  74.8405006  53.5645017
  48.2309987  75.1315006  52.1885017  48.1329987  75.6105006  51.2145017
  48.8039987  76.1475006  53.1775017  48.5259987  75.8735006  54.1955017
  49.8899987  76.1295006  53.0805017  48.3189987  77.5485006  52.9065017
  48.9699987  78.3115006  52.1965017  47.1559987  77.8875006  53.4475017
  46.7839987  78.8145006  53.2975017  46.6479987  77.2175006  54.0065017
  49.2309987  74.0065006  51.9935017  50.1419987  74.1395006  51.1815017
  49.0739987  72.9105006  52.7395017  48.3879987  72.8985006  53.4805017
  49.9309987  71.7345006  52.5665017  50.9659987  72.0585006  52.4565017
  49.8389987  70.7845006  53.7675017  50.6849987  70.0985006  53.7225017
  49.9039987  71.3815006  54.6775017  48.6289987  70.0435006  53.7735017
  48.6129987  69.4635006  54.5385017  49.5779987  71.0045006  51.2735017
  48.5899987  71.3315006  50.6095017  50.3819987  70.0095006  50.9235017
  51.0729987  69.6545006  51.5695017  50.3339987  69.4415006  49.5825017
  49.6489987  70.0085006  48.9525017  51.7239987  69.5005006  48.9645017
  52.4429987  69.0135006  49.6235017  51.7379987  69.0135006  47.9895017
  52.2139987  70.8925006  48.7535017  51.5179987  71.8115006  48.0015017
  52.1779987  72.9535006  47.9915017  51.7889987  73.8145006  47.4475017
  53.2759987  72.8065006  48.7095017  53.9769987  73.5145006  48.8755017
  53.3189987  71.5265006  49.2025017  54.1529987  71.2115006  49.8305017
  49.8259987  68.0205006  49.5005017  49.7659987  67.2985006  50.4985017
  49.4459987  67.6495006  48.2805017  49.2989987  68.3585006  47.5765017
  49.2109987  66.2685006  47.9225017  49.2039987  65.6425006  48.8155017
  47.8889987  66.0885006  47.1605017  47.9229987  66.6765006  46.2435017
  47.6759987  64.6235006  46.8155017  47.6409987  64.0355006  47.7325017
  46.7359987  64.5095006  46.2755017  48.4979987  64.2735006  46.1905017
  46.7109987  66.6235006  47.9845017  46.9289987  67.6705006  48.1965017
  45.8299987  66.5585006  47.3465017  46.4479987  65.8885006  49.2865017
  47.3289987  65.9535006  49.9255017  45.5969987  66.3415006  49.7945017
  46.2289987  64.8415006  49.0755017  50.3909987  65.8415006  47.0615017
  50.5519987  66.3015006  45.9325017  51.2229987  64.9705006  47.6195017
  50.9909987  64.5885006  48.5255017  52.4769987  64.5685006  47.0025017
  52.8819987  65.3385006  46.3465017  53.5229987  64.2405006  48.0795017
  53.0779987  63.5545006  48.8005017  54.7579987  63.5995006  47.4655017
  55.2029987  64.2845006  46.7445017  55.4809987  63.3785006  48.2505017
  54.4759987  62.6755006  46.9615017  53.8869987  65.5055006  48.8435017
  52.9949987  65.9125006  49.3195017  54.6289987  65.2695006  49.6065017
  54.2979987  66.2415006  48.1535017  52.2569987  63.3615006  46.1025017
  51.5009987  62.4575006  46.4505017  52.9449987  63.3505006  44.9605017
  53.5989987  64.1005006  44.7895017  52.7279987  62.3665006  43.9035017
  53.2699987  62.6755006  43.0095017  53.2199987  60.9685006  44.3185017
  52.8279987  60.7745006  45.3165017  52.7889987  60.2565006  43.6145017
  54.7369987  60.8165006  44.3305017  55.1159987  61.2745006  43.4175017
  55.1189987  61.3595006  45.1945017  55.1979987  59.3605006  44.3995017
  56.3779987  59.1205006  44.7575017  54.3929987  58.4505006  44.0935017
  51.2479987  62.3665006  43.5095017  50.6279987  61.3125006  43.3005017
  50.6889987  63.5705006  43.4145017  51.2299987  64.3985006  43.6165017
  49.2929987  63.7325006  43.0495017  48.6479987  63.1555006  43.7125017
  48.8879987  65.1925006  43.1285017  49.5189987  65.7815006  42.4635017
  47.8459987  65.2975006  42.8275017  49.0079987  65.5485006  44.1515017
  49.0869987  63.2075006  41.6415017  49.9839987  63.3225006  40.8035017
  47.9159987  62.6195006  41.3955017  47.2619987  62.4835006  42.1535017
  47.5499987  62.1265006  40.0645017  47.8709987  62.8495006  39.3145017
  48.2099987  60.7745006  39.7575017  48.5059987  60.7665006  38.7085017
  49.0949987  60.6735006  40.3855017  47.3259987  59.6905006  40.0075017
  47.7689987  58.8635006  39.8055017  46.0429987  61.9785006  39.9395017
  45.3589987  61.6115006  40.8925017  45.5399987  62.2245006  38.7425017
  46.1489987  62.5025006  37.9865017  44.1139987  62.1695006  38.4905017
  43.5519987  61.8295006  39.3605017  43.5859987  63.5525006  38.0445017
  43.8529987  64.2825006  38.8085017  44.1739987  63.9825006  36.7045017
  43.9069987  63.2535006  35.9395017  43.7759987  64.9595006  36.4295017
  45.2589987  64.0425006  36.7855017  42.0519987  63.5655006  37.9935017
  41.7599987  64.4135006  37.3735017  41.7399987  62.6395006  37.5105017
  41.3839987  63.6775006  39.3505017  41.6949987  64.6035006  39.8335017
  40.3009987  63.6795006  39.2245017  41.6749987  62.8295006  39.9705017
  43.8299987  61.1035006  37.4425017  44.4499987  61.0925006  36.3825017
  42.9219987  60.1845006  37.7565017  42.6219987  60.0825006  38.7155017
  42.4029987  59.2335006  36.7565017  42.6849987  59.5755006  35.7605017
  42.9609987  57.8135006  36.9655017  42.6309987  57.2255006  36.1095017
  44.0469987  57.9045006  36.9465017  42.5319987  57.1195006  38.2535017
  42.4649987  57.8615006  39.0495017  41.5539987  56.6635006  38.0995017
  43.5349987  56.0475006  38.6445017  43.6709987  55.3795006  37.7935017
  44.4819987  56.5345006  38.8785017  43.1169987  55.2545006  39.8015017
  43.3899987  55.6095006  40.7065017  42.4219987  54.1145006  39.7475017
  42.0209987  53.5945006  38.5875017  42.2429987  54.0665006  37.7225017
  41.4969987  52.7315006  38.5785017  42.1119987  53.4825006  40.8755017
  42.4029987  53.8675006  41.7625017  41.5869987  52.6205006  40.8395017
  40.8789987  59.2315006  36.7645017  40.2479987  59.5935006  37.7605017
  40.2919987  58.8305006  35.6445017  40.8409987  58.5145006  34.8585017
  38.8509987  58.8965006  35.4945017  38.3889987  58.8825006  36.4815017
  38.4599987  60.1845006  34.7935017  38.9079987  60.2085006  33.8005017
  37.3749987  60.2345006  34.7035017  38.8159987  61.0365006  35.3725017
  38.3269987  57.6895006  34.7355017  38.9029987  57.2805006  33.7355017
  37.2259987  57.1345006  35.2285017  36.7739987  57.5825006  36.0125017
  36.6389987  55.9075006  34.7005017  37.2219987  55.5435006  33.8555017
  36.6329987  54.8275006  35.7955017  36.1869987  55.2905006  36.6755017
  35.9799987  54.0335006  35.4335017  37.9959987  54.2385006  36.1645017
  38.7659987  54.9755006  35.9375017  38.0039987  54.0225006  37.2325017
  38.2739987  52.9575006  35.3855017  37.3729987  52.3455006  35.4295017
  38.4709987  53.2395006  34.3515017  39.4549987  52.1625006  35.9285017
  39.4639987  52.2775006  37.0125017  39.2949987  51.1145006  35.6765017
  40.7599987  52.6125006  35.3715017  40.9089987  53.5835006  35.6055017
  41.5039987  52.0535006  35.7645017  40.7519987  52.5055006  34.3675017
  35.2059987  56.1935006  34.2445017  34.4369987  56.8365006  34.9545017
  34.8499987  55.7255006  33.0565017  35.5289987  55.2745006  32.4605017
  33.4789987  55.8455006  32.5755017  33.0009987  56.7005006  33.0545017
  33.4379987  56.0475006  31.0615017  33.7219987  57.0915006  30.9295017
  34.2029987  55.4055006  30.6245017  32.0989987  55.7915006  30.3655017
  31.8099987  54.7535006  30.5305017  31.0199987  56.7095006  30.9115017
  31.3079987  57.7475006  30.7455017  30.0779987  56.5085006  30.4005017
  30.8979987  56.5325006  31.9805017  32.2499987  55.9835006  28.8695017
  32.9929987  55.2845006  28.4865017  31.2929987  55.7995006  28.3805017
  32.5719987  57.0045006  28.6645017  32.7549987  54.5715006  32.9325017
  33.2099987  53.4815006  32.5865017  31.6179987  54.7165006  33.6005017
  31.2929987  55.6445006  33.8305017  30.8479987  53.5775006  34.0775017
  31.3109987  52.6325006  33.7925017  30.6899987  53.6295006  35.6025017
  30.1829987  54.5545006  35.8775017  29.8729987  52.4385006  36.0885017
  30.3799987  51.5135006  35.8145017  29.7679987  52.4875006  37.1725017
  28.8859987  52.4615006  35.6275017  32.0789987  53.6755006  36.2375017
  32.6099987  52.7855006  35.9005017  32.5749987  54.5635006  35.8465017
  32.0809987  53.7205006  37.7405017  31.5849987  52.8325006  38.1315017
  33.1089987  53.7515006  38.1025017  31.5509987  54.6105006  38.0785017
  29.4769987  53.5095006  33.4045017  28.5949987  54.3375006  33.6555017
  29.3179987  52.5145006  32.5385017  30.1099987  51.9365006  32.2965017
  28.0509987  52.2565006  31.8805017  27.2379987  52.3925006  32.5935017
  27.8329987  53.2095006  30.7015017  26.7549987  53.2745006  30.5565017
  28.2159987  54.1795006  31.0185017  28.4979987  52.8045006  29.3905017
  29.5789987  52.8795006  29.5105017  28.2279987  51.7725006  29.1675017
  28.0529987  53.7005006  28.2515017  28.0949987  54.7385006  28.5835017
  28.7309987  53.5615006  27.4095017  26.6339987  53.3625006  27.8215017
  26.6349987  52.3465006  27.4265017  25.9949987  53.4085006  28.7035017
  26.1169987  54.2965006  26.7855017  26.7089987  54.2535006  25.9685017
  25.1749987  54.0325006  26.5335017  26.1159987  55.2375006  27.1515017
  28.0129987  50.8105006  31.4155017  29.0329987  50.2505006  31.0085017
  26.8229987  50.2215006  31.4735017  26.0259987  50.7465006  31.8035017
  26.6259987  48.8305006  31.1015017  27.3729987  48.2045006  31.5895017
  25.2409987  48.3635006  31.5345017  24.5009987  48.7425006  30.8305017
  25.2159987  47.2735006  31.5345017  24.9449987  48.8425006  32.8335017
  24.0709987  48.5415006  33.0945017  26.7739987  48.6455006  29.6035017
  26.7079987  49.6095006  28.8305017  26.9809987  47.3975006  29.2005017
  27.0909987  46.6545006  29.8755017  27.1329987  47.0765006  27.7945017
  26.4299987  47.6615006  27.2015017  28.5539987  47.4005006  27.3275017
  28.5699987  47.2505006  26.2485017  28.7229987  48.4545006  27.5495017
  29.6519987  46.5635006  27.9725017  29.8539987  46.9685006  28.9645017
  29.2929987  45.5385006  28.0655017  30.9299987  46.5795006  27.1485017
  31.2829987  47.6085006  27.0785017  31.6779987  45.9735006  27.6595017
  30.6989987  46.0265006  25.7495017  29.9139987  45.2725006  25.8065017
  30.3689987  46.8455006  25.1095017  31.9279987  45.4195006  25.1815017
  32.2329987  44.6605006  25.7735017  31.7319987  45.0665006  24.2555017
  32.6549987  46.1185006  25.1285017  26.7939987  45.6245006  27.4995017
  26.6009987  44.8175006  28.4065017  26.7319987  45.3185006  26.2115017
  26.9509987  46.0375006  25.5365017  26.3599987  44.0045006  25.7215017
  26.4139987  43.2675006  26.5225017  24.9189987  44.0585006  25.2025017
  24.4789987  44.9685006  25.6105017  24.9849987  44.1425006  24.1175017
  24.0449987  42.8635006  25.5675017  24.1619987  42.1115006  24.7875017
  24.3739987  42.4515006  26.5215017  22.5639987  43.2265006  25.6775017
  22.1929987  44.1815006  26.3745017  21.7079987  42.4545006  25.0055017
  20.7179987  42.6505006  25.0445017  22.0539987  41.6775006  24.4615017
  27.3269987  43.6345006  24.6005017  27.5589987  44.4255006  23.6915017
  27.9119987  42.4495006  24.6685017  27.7959987  41.8475006  25.4705017
  28.8029987  42.0165006  23.6055017  29.3739987  42.8655006  23.2305017
  29.7949987  40.9235006  24.0795017  30.4849987  40.6995006  23.2665017
  30.5799987  41.3925006  25.2965017  29.8899987  41.6155006  26.1105017
  31.2689987  40.6075006  25.6095017  31.1439987  42.2905006  25.0425017
  29.0969987  39.7175006  24.4075017  29.7259987  39.0525006  24.6985017
  27.9729987  41.5165006  22.4235017  26.8219987  41.1065006  22.5985017
  28.5589987  41.5665006  21.2265017  29.4479987  42.0375006  21.1395017
  27.9659987  40.9685006  20.0205017  27.1579987  41.6025006  19.6545017
  29.0189987  40.8275006  18.9135017  29.6529987  39.9725006  19.1485017
  28.5039987  40.6485006  17.9695017  29.8179987  41.9905006  18.8015017
  30.4639987  41.8685006  18.1025017  27.3979987  39.5865006  20.3115017
  26.3139987  39.2415006  19.8485017  28.1469987  38.8155006  21.0985017
  28.9819987  39.2185006  21.4985017  27.8639987  37.4095006  21.3595017
  27.5169987  36.9245006  20.4465017  29.1349987  36.6915006  21.8445017
  29.4479987  37.1935006  22.7605017  28.8469987  35.6655006  22.0735017
  30.2949987  36.6845006  20.8445017  30.9619987  35.8715006  21.1315017
  29.8719987  36.4765006  19.8615017  31.0809987  37.9925006  20.7935017
  30.9339987  38.8185006  21.7175017  31.8479987  38.1985006  19.8285017
  26.7389987  37.2025006  22.3725017  26.1509987  36.1215006  22.4215017
  26.4549987  38.2185006  23.1865017  27.0219987  39.0535006  23.1645017
  25.3329987  38.1655006  24.1255017  24.5489987  38.7955006  23.7055017
  24.9949987  37.1295006  24.1435017  25.6209987  38.6165006  25.5485017
  24.7029987  38.9885006  26.2735017  26.8849987  38.5995006  25.9575017
  27.6249987  38.3415006  25.3205017  27.2339987  38.8735006  27.3535017
  26.6529987  38.2275006  28.0115017  28.7259987  38.6105006  27.5995017
  28.9689987  37.6565006  27.1305017  29.2819987  39.4085006  27.1075017
  29.1069987  38.5625006  29.0785017  28.8239987  39.5245006  29.5065017
  28.5289987  37.7695006  29.5535017  30.5869987  38.3195006  29.3145017
  30.9529987  37.9625006  30.4575017  31.3829987  38.5015006  28.3675017
  26.8819987  40.2965006  27.7995017  27.3669987  41.2715006  27.2365017
  26.0339987  40.3995006  28.8175017  25.5349987  39.5815006  29.1365017
  25.7749987  41.6715006  29.4835017  25.8409987  42.4875006  28.7635017
  24.3699987  41.6735006  30.0985017  23.6069987  41.6565006  29.3205017
  24.2569987  40.7975006  30.7365017  24.0789987  42.8775006  30.9625017
  23.6629987  44.0765006  30.3925017  23.5529987  44.1425006  29.3105017
  23.3899987  45.1795006  31.1855017  23.0689987  46.1155006  30.7275017
  23.5249987  45.0925006  32.5615017  23.3129987  45.9605006  33.1855017
  23.9289987  43.9025006  33.1445017  24.0319987  43.8305006  34.2275017
  24.2019987  42.8035006  32.3495017  24.5169987  41.8655006  32.8065017
  26.8239987  41.8965006  30.5715017  27.0769987  41.0075006  31.3855017
  27.4209987  43.0905006  30.5835017  27.1809987  43.7625006  29.8685017
  28.4349987  43.4645006  31.5775017  28.6119987  42.6445006  32.2735017
  29.7609987  43.8575006  30.8995017  29.5849987  44.7075006  30.2395017
  30.8029987  44.2355006  31.9475017  30.9799987  43.3865006  32.6075017
  31.7339987  44.5105006  31.4525017  30.4399987  45.0805006  32.5335017
  30.2719987  42.7055006  30.0205017  30.6299987  41.9265006  30.6935017
  29.4169987  42.3325006  29.4555017  31.3809987  43.0935006  29.0615017
  32.2359987  43.4655006  29.6255017  31.6809987  42.2215006  28.4805017
  31.0239987  43.8725006  28.3875017  27.9219987  44.6375006  32.4185017
  27.9019987  45.7635006  31.9415017  27.5059987  44.3745006  33.6685017
  27.6159987  43.0485006  34.3055017  28.6699987  42.7945006  34.4225017
  27.1319987  42.3065006  33.6705017  26.9109987  43.2215006  35.6295017
  27.4369987  42.6545006  36.3975017  25.8869987  42.8565006  35.5465017
  26.9329987  44.6745006  35.9185017  27.8309987  45.0545006  36.4055017
  26.0619987  44.9075006  36.5305017  26.7839987  45.3095006  34.5375017
  25.7469987  45.2455006  34.2075017  27.2209987  46.7855006  34.5715017
  26.4349987  47.6565006  34.2105017  28.4249987  47.0875006  35.0325017
  29.0799987  46.3775006  35.3275017  28.7909987  48.4835006  35.2165017
  28.1499987  49.1205006  34.6075017  28.6239987  48.8815006  36.6815017
  29.1319987  48.0975006  37.2425017  29.1249987  49.8335006  36.8545017
  27.1629987  48.9795006  37.1475017  26.6349987  48.0725006  36.8545017
  27.0979987  49.1375006  38.6555017  27.6259987  50.0445006  38.9495017
  26.0559987  49.2055006  38.9695017  27.5649987  48.2755006  39.1325017
  26.4149987  50.1275006  36.4765017  26.4149987  49.9795006  35.3965017
  25.3879987  50.1535006  36.8395017  26.9079987  51.0705006  36.7135017
  30.1979987  48.6935006  34.7045017  31.1269987  49.0095006  35.4525017
  30.3189987  48.5315006  33.3905017  29.4839987  48.4885006  32.8235017
  31.6069987  48.3535006  32.7365017  32.1659987  47.5555006  33.2245017
  31.4029987  47.9795006  31.2705017  30.5759987  47.2725006  31.2025017
  31.1599987  48.8765006  30.7015017  32.6299987  47.3445006  30.6685017
  33.2159987  46.4345006  31.2535017  33.0339987  47.8225006  29.4985017
  33.8509987  47.4315006  29.0515017  32.5219987  48.5745006  29.0595017
  32.5049987  49.5765006  32.8205017  32.1389987  50.6545006  32.3525017
  33.6859987  49.3955006  33.4025017  33.9309987  48.4885006  33.7735017
  34.6329987  50.4865006  33.5685017  34.1029987  51.4375006  33.6155017
  35.4189987  50.3025006  34.8605017  35.7429987  49.2625006  34.8985017
  36.2919987  50.9525006  34.8055017  34.6249987  50.6295006  36.1075017
  34.4839987  51.7095006  36.1565017  33.6529987  50.1385006  36.0565017
  35.3309987  50.1755006  37.3695017  36.5639987  50.1575006  37.4325017
  34.5529987  49.7955006  38.3825017  34.9709987  49.4835006  39.2475017
  33.5479987  49.8215006  38.2805017  35.5979987  50.5875006  32.3875017
  36.3269987  49.6445006  32.0855017  35.5889987  51.7385006  31.7215017
  34.8769987  52.4255006  31.9255017  36.5589987  52.0405006  30.6825017
  37.2679987  51.2165006  30.5945017  35.8649987  52.2395006  29.3225017
  36.6129987  52.1875006  28.5315017  34.8159987  51.1645006  29.0975017
  34.0669987  51.2165006  29.8875017  34.3359987  51.3215006  28.1315017
  35.2909987  50.1835006  29.1115017  35.2249987  53.5175006  29.2815017
  34.7949987  53.6335006  28.4305017  37.3109987  53.3085006  31.0855017
  36.6959987  54.3545006  31.2905017  38.6319987  53.2165006  31.2175017
  39.0939987  52.3265006  31.0945017  39.4399987  54.3675006  31.6165017
  39.0889987  54.7465006  32.5765017  40.9239987  53.9735006  31.7545017
  40.9859987  52.9835006  32.2075017  41.3219987  53.9345006  30.7405017
  41.7479987  54.9745006  32.5915017  41.3209987  55.3875006  33.6965017
  42.8599987  55.3275006  32.1475017  39.2599987  55.5175006  30.6095017
  39.2979987  55.3005006  29.3955017  39.0099987  56.7185006  31.1395017
  38.8429987  56.7685006  32.1345017  38.9859987  57.9625006  30.3675017
  38.7269987  57.7545006  29.3295017  37.9849987  58.9785006  30.9535017
  38.2569987  59.1865006  31.9885017  38.0059987  60.2725006  30.1545017
  37.7339987  60.0655006  29.1195017  37.2929987  60.9765006  30.5835017
  39.0059987  60.7035006  30.1865017  36.5719987  58.4035006  30.9725017
  36.2189987  58.3665006  29.9415017  36.6349987  57.3905006  31.3705017
  35.6039987  59.2155006  31.8095017  35.5399987  60.2285006  31.4115017
  34.6179987  58.7505006  31.7795017  35.9559987  59.2525006  32.8405017
  40.3809987  58.5995006  30.4095017  40.9879987  58.7465006  31.4735017
  40.8809987  58.9895006  29.2485017  40.3579987  58.8705006  28.3925017
  42.1969987  59.5785006  29.1695017  42.9139987  58.9665006  29.7175017
  42.6429987  59.6655006  27.7125017  42.4919987  58.6955006  27.2385017
  42.0369987  60.4155006  27.2045017  44.0989987  60.0475006  27.5765017
  44.7359987  60.4665006  28.5415017  44.6379987  59.9045006  26.3765017
  45.6079987  60.1455006  26.2295017  44.0769987  59.5555006  25.6125017
  42.1779987  60.9655006  29.7835017  41.3499987  61.7875006  29.4055017
  43.0739987  61.2235006  30.7355017  43.6129987  60.4705006  31.1395017
  43.2259987  62.5695006  31.3005017  42.9009987  63.3325006  30.5935017
  42.4249987  62.7385006  32.6115017  42.6919987  63.6905006  33.0695017
  40.9309987  62.7125006  32.3315017  40.6629987  61.7605006  31.8745017
  40.3829987  62.8325006  33.2665017  40.6739987  63.5255006  31.6535017
  42.7919987  61.6575006  33.6115017  43.8559987  61.7195006  33.8405017
  42.2159987  61.7975006  34.5265017  42.5679987  60.6785006  33.1875017
  44.6959987  62.9515006  31.5155017  45.0319987  63.6745006  32.4535017
  45.5589987  62.4765006  30.6195017  45.2339987  61.8065006  29.9365017
  46.9679987  62.8835006  30.5785017  47.0959987  63.4725006  29.6705017
  47.1349987  63.5185006  31.4485017  47.9879987  61.7565006  30.5855017
  49.1829987  62.0215006  30.7155017  47.5269987  60.5155006  30.4175017
  46.5699987  60.3945006  30.1185017  48.3259987  59.3135006  30.7025017
  48.6609987  59.3175006  31.7395017  47.4659987  58.0665006  30.4695017
  46.4849987  58.2435006  30.9105017  47.3729987  58.0205006  29.3845017
  48.0239987  56.7505006  30.9865017  48.5059987  56.6255006  32.2935017
  48.4949987  57.5025006  32.9405017  48.9929987  55.4125006  32.7735017
  49.3799987  55.3385006  33.7895017  48.9839987  54.2925006  31.9505017
  49.4619987  53.0835006  32.4205017  49.7749987  53.1305006  33.3265017
  48.4939987  54.3915006  30.6565017  48.4859987  53.5155006  30.0085017
  48.0129987  55.6085006  30.1865017  47.6169987  55.6835006  29.1735017
  49.6029987  59.2105006  29.8755017  50.6449987  58.7995006  30.3855017
  49.5269987  59.5975006  28.6095017  48.6599987  59.9585006  28.2385017
  50.6499987  59.4145006  27.6925017  51.2329987  58.5405006  27.9815017
  50.1249987  59.2035006  26.2695017  49.6849987  60.1315006  25.9045017
  50.9859987  58.9435006  25.6535017  49.1019987  58.0995006  26.1955017
  49.4789987  56.7715006  26.3215017  50.5329987  56.5335006  26.4635017
  48.5409987  55.7545006  26.2695017  48.8559987  54.7145006  26.3605017
  47.1999987  56.0605006  26.1025017  46.2499987  55.0625006  26.0535017
  46.6239987  54.1835006  26.1455017  46.8039987  57.3755006  25.9825017
  45.7509987  57.6235006  25.8475017  47.7529987  58.3855006  26.0345017
  47.4449987  59.4275006  25.9485017  51.6709987  60.5605006  27.7425017
  52.7889987  60.4285006  27.2605017  51.2899987  61.6835006  28.3295017
  50.3499987  61.7795006  28.6855017  52.1969987  62.8115006  28.4645017
  53.0929987  62.6325006  27.8705017  51.5249987  64.0895006  27.9625017
  52.2459987  64.9065006  27.9925017  51.0339987  63.9015006  26.5395017
  50.3129987  63.0845006  26.5085017  50.5579987  64.8195006  26.1945017
  51.8779987  63.6655006  25.8915017  50.4069987  64.3915006  28.8005017
  49.9809987  65.1935006  28.4895017  52.6299987  63.0305006  29.9105017
  53.5109987  63.8455006  30.1755017  52.0169987  62.3055006  30.8435017
  51.3569987  61.5895006  30.5755017  52.2709987  62.5145006  32.2645017
  51.8429987  61.6805006  32.8215017  53.3489987  62.5435006  32.4255017
  51.6609987  63.8105006  32.7695017  52.0889987  64.3465006  33.7935017
  50.6609987  64.3145006  32.0525017  50.4309987  63.9115006  31.1555017
  49.9229987  65.4905006  32.4905017  50.5709987  66.1255006  33.0945017
  49.4249987  66.3015006  31.2875017  49.0749987  65.5905006  30.5395017
  48.5929987  66.9265006  31.6125017  50.5149987  67.1815006  30.6815017
  50.9079987  68.1685006  31.3415017  50.9689987  66.9015006  29.5485017
  48.7669987  65.0725006  33.3905017  48.0049987  65.9115006  33.8645017
  48.6349987  63.7715006  33.6205017  49.1069987  63.0995006  33.0335017
  47.7439987  63.2755006  34.6585017  46.8719987  63.9255006  34.7275017
  47.2699987  61.8495006  34.3525017  46.6059987  61.5625006  35.1675017
  46.7109987  61.8635006  33.4165017  48.4059987  60.8465006  34.2485017
  49.5709987  61.2575006  34.0445017  48.1059987  59.6335006  34.3505017
  48.4039987  63.3435006  36.0305017  47.7359987  63.1975006  37.0495017
  49.7139987  63.5605006  36.0575017  50.2519987  63.5185006  35.2035017
  50.4169987  63.8245006  37.3045017  49.9529987  63.2585006  38.1125017
  51.8829987  63.4145006  37.2005017  52.3449987  64.0495006  36.4445017
  52.3439987  63.6085006  38.1685017  52.0849987  61.9515006  36.8265017
  51.7269987  61.3405006  37.6555017  51.4869987  61.7465006  35.9385017
  53.5429987  61.6175006  36.5435017  54.1089987  61.6955006  37.4715017
  53.6039987  60.5965006  36.1655017  54.1339987  62.5175006  35.5575017
  53.5239987  63.2075006  35.1435017  55.4079987  62.4905006  35.1805017
  56.2519987  61.5895006  35.6755017  55.9249987  60.9125006  36.3495017
  57.2159987  61.5865006  35.3755017  55.8389987  63.3735006  34.2905017
  55.1989987  64.0555006  33.9095017  56.8059987  63.3605006  33.9985017
  50.2909987  65.3105006  37.6165017  50.8319987  66.1575006  36.9075017
  49.5589987  65.6205006  38.6785017  49.2029987  64.8855006  39.2725017
  49.2189987  66.9915006  39.0035017  49.2199987  67.6045006  38.1025017
  47.8279987  67.0395006  39.6235017  47.9179987  66.4365006  40.5275017
  47.6159987  68.0735006  39.8965017  46.6929987  66.4985006  38.7635017
  46.8819987  65.4525006  38.5245017  45.3839987  66.6145006  39.5285017
  45.1939987  67.6605006  39.7675017  44.5689987  66.2285006  38.9165017
  45.4489987  66.0375006  40.4515017  46.6139987  67.2405006  37.4395017
  47.5519987  67.1185006  36.8975017  45.7959987  66.8355006  36.8435017
  46.4369987  68.2995006  37.6265017  50.2029987  67.6515006  39.9665017
  50.7389987  67.0055006  40.8765017  50.4419987  68.9425006  39.7255017
  50.2169987  69.2965006  38.8065017  51.0019987  69.8685006  40.7065017
  51.3799987  69.3115006  41.5635017  52.1529987  70.6685006  40.0975017
  53.0089987  70.0275006  39.8895017  51.8069987  71.1235006  39.1695017
  52.6579987  71.7945006  40.9685017  53.1809987  71.5375006  42.2295017
  53.2119987  70.5105006  42.5925017  53.6589987  72.5665006  43.0225017
  54.0609987  72.3525006  44.0125017  53.6259987  73.8685006  42.5565017
  54.0029987  74.6805006  43.1785017  53.1139987  74.1405006  41.2995017
  53.0839987  75.1655006  40.9305017  52.6389987  73.1075006  40.5105017
  52.2439987  73.3185006  39.5165017  49.8459987  70.7775006  41.0845017
  49.5169987  71.7145006  40.3625017  49.2109987  70.4715006  42.2065017
  49.6259987  69.8165006  42.8535017  47.9109987  71.0345006  42.5345017
  47.5009987  71.5755006  41.6815017  46.9579987  69.8975006  42.8955017
  46.9059987  69.3105006  41.9785017  47.4429987  69.3105006  43.6755017
  45.5519987  70.2675006  43.3405017  45.6119987  70.9555006  44.1835017
  44.8049987  70.9285006  42.2015017  44.7439987  70.2405006  41.3585017
  43.7989987  71.1905006  42.5295017  45.3329987  71.8315006  41.8955017
  44.8159987  69.0305006  43.8225017  45.3539987  68.5915006  44.6635017
  43.8099987  69.3055006  44.1395017  44.7549987  68.3045006  43.0115017
  48.0189987  72.0045006  43.6935017  47.9699987  71.5955006  44.8565017
  48.1739987  73.2875006  43.3855017  48.3969987  73.5665006  42.4405017
  48.1299987  74.3195006  44.4205017  48.1059987  73.8665006  45.4115017
  49.3359987  75.2745006  44.3445017  49.3549987  75.7465006  43.3625017
  49.2309987  76.3475006  45.4215017  49.2129987  75.8765006  46.4045017
  50.0899987  77.0145006  45.3555017  48.3149987  76.9205006  45.2765017
  50.6279987  74.4905006  44.5005017  50.7039987  73.7515006  43.7025017
  51.4759987  75.1725006  44.4455017  50.6319987  73.9835006  45.4655017
  46.8019987  75.0655006  44.3205017  45.8789987  74.8205006  45.1105017
  46.7019987  75.9585006  43.3385017  47.5199987  76.2315006  42.8125017
  45.4349987  76.5905006  43.0175017  44.9059987  76.8225006  43.9425017
  45.6319987  77.8935006  42.2245017  44.7539987  78.5215006  42.3755017
  46.5129987  78.4015006  42.6155017  45.8039987  77.6485006  40.8395017
  45.9239987  78.4825006  40.3795017  44.6299987  75.5745006  42.2145017
  45.2059987  74.6585006  41.6285017  43.2999987  75.7295006  42.1865017
  42.5349987  76.7595006  42.9155017  42.7359987  77.7375006  42.4785017
  42.8369987  76.7615006  43.9625017  41.1169987  76.3305006  42.7325017
  40.4639987  77.2025006  42.7015017  40.8149987  75.6805006  43.5535017
  41.1029987  75.5945006  41.4395017  41.0769987  76.2845006  40.5965017
  40.2709987  74.8955006  41.3615017  42.4239987  74.8325006  41.4455017
  42.3829987  73.8975006  42.0035017  42.8709987  74.5485006  40.0065017
  43.3829987  75.4495006  39.3405017  42.6799987  73.3025006  39.5555017
  42.2959987  72.6185006  40.1925017  42.9869987  72.8815006  38.1865017
  43.4079987  73.7205006  37.6325017  43.9959987  71.7385006  38.1805017
  43.5049987  70.9775006  38.7875017  44.0779987  71.3845006  37.1525017
  45.3939987  72.0125006  38.7385017  45.3099987  72.3785006  39.7615017
  46.2119987  70.7305006  38.7245017  46.2969987  70.3645006  37.7015017
  47.2069987  70.9295006  39.1225017  45.7189987  69.9775006  39.3395017
  46.1139987  73.1085006  37.9645017  45.5389987  74.0325006  38.0215017
  47.1019987  73.2695006  38.3955017  46.2169987  72.8095006  36.9215017
  41.7339987  72.3925006  37.4805017  40.9049987  71.7175006  38.0845017
  41.6169987  72.7295006  36.1955017  42.2889987  73.3685006  35.7955017
  40.5689987  72.1915006  35.3275017  39.7239987  71.8725006  35.9375017
  40.0889987  73.2185006  34.2835017  40.9549987  73.6335006  33.7685017
  39.1669987  72.5525006  33.2695017  38.2999987  72.1375006  33.7835017
  38.8359987  73.2905006  32.5385017  39.7039987  71.7525006  32.7595017
  39.3549987  74.3795006  34.9625017  38.3689987  74.0115006  35.2475017
  39.9199987  74.6345006  35.8585017  39.2019987  75.6155006  34.0915017
  38.6369987  75.3615006  33.1955017  38.6719987  76.3895006  34.6475017
  40.1869987  75.9845006  33.8065017  41.1469987  71.0005006  34.5785017
  41.9699987  71.1765006  33.6875017  40.7089987  69.7945006  34.9305017
  40.0369987  69.7015006  35.6785017  41.1819987  68.5795006  34.2685017
  42.2399987  68.6605006  34.0185017  40.9489987  67.3075006  35.1205017
  39.8769987  67.1215006  35.1905017  41.6339987  66.0995006  34.4875017
  42.7059987  66.2845006  34.4175017  41.4569987  65.2175006  35.1025017
  41.2289987  65.9335006  33.4895017  41.4259987  67.5115006  36.5695017
  40.6799987  68.1395006  37.0575017  41.4329987  66.5265006  37.0365017
  42.7949987  68.1485006  36.7145017  42.7889987  69.1335006  36.2485017
  43.0389987  68.2485006  37.7715017  43.5419987  67.5215006  36.2275017
  40.4289987  68.4485006  32.9565017  39.1959987  68.5065006  32.9385017
  41.1769987  68.2745006  31.8705017  42.1809987  68.2145006  31.9665017
  40.6039987  68.2295006  30.5215017  39.5309987  68.4175006  30.5695017
  41.2489987  69.2975006  29.6265017  41.1049987  70.2725006  30.0925017
  42.3159987  69.0865006  29.5495017  40.6739987  69.3045006  28.3295017
  41.0969987  69.9805006  27.7955017  40.7539987  66.8505006  29.8745017
  41.8489987  66.3035006  29.7735017  39.6319987  66.2945006  29.4485017
  38.7419987  66.7085006  29.6885017  39.6349987  65.0935006  28.6435017
  40.6259987  64.6415006  28.6685017  38.6199987  64.0765006  29.1675017
  39.0299987  63.5215006  30.0115017  37.7129987  64.5935006  29.4795017
  38.2059987  63.0625006  28.1485017  39.0599987  62.0875006  27.6805017
  38.4289987  61.3425006  26.7905017  38.9359987  60.5105006  26.3015017
  37.1969987  61.8015006  26.6635017  36.4839987  61.4265006  26.0545017
  37.0329987  62.8805006  27.4985017  36.0769987  63.4035006  27.5315017
  39.2759987  65.5265006  27.2375017  38.1499987  65.9535006  26.9825017
  40.2449987  65.4355006  26.3355017  41.1769987  65.1715006  26.6215017
  40.0149987  65.7415006  24.9355017  39.4579987  66.6745006  24.8435017
  41.3499987  65.8955006  24.2065017  41.9149987  66.6595006  24.7405017
  41.8659987  64.9385006  24.2875017  41.2319987  66.2845006  22.7415017
  40.6199987  65.5285006  22.2495017  40.7309987  67.2505006  22.6845017
  42.5789987  66.3725006  22.0495017  43.4559987  67.1265006  22.5365017
  42.7509987  65.6895006  21.0115017  39.1839987  64.6215006  24.3155017
  39.5909987  63.4575006  24.3395017  38.0219987  64.9815006  23.7715017
  37.7399987  65.9505006  23.8105017  37.1119987  64.0195006  23.1565017
  37.2079987  63.0565006  23.6575017  35.6459987  64.4815006  23.2115017
  35.5349987  65.3935006  22.6255017  34.7349987  63.3985006  22.6435017
  34.8449987  62.4865006  23.2295017  33.6989987  63.7345006  22.6865017
  35.0089987  63.1995006  21.6075017  35.2339987  64.8115006  24.6485017
  35.3219987  63.8925006  25.2285017  35.9419987  65.5485006  25.0265017
  33.8249987  65.3545006  24.7745017  33.1159987  64.6175006  24.3975017
  33.6079987  65.5635006  25.8215017  33.7359987  66.2735006  24.1945017
  37.5139987  63.7805006  21.7065017  37.0009987  64.4215006  20.7905017
  38.4359987  62.8365006  21.5285017  38.7909987  62.3645006  22.3475017
  38.9879987  62.4745006  20.2285017  38.7229987  63.2205006  19.4785017
  40.5129987  62.4105006  20.3365017  40.9159987  62.1425006  19.3595017
  40.8879987  63.3915006  20.6275017  40.9879987  61.3885006  21.3535017
  40.2449987  60.4935006  21.7635017  42.2339987  61.5215006  21.7735017
  42.6079987  60.8715006  22.4505017  42.8069987  62.2725006  21.4155017
  38.4359987  61.1345006  19.7385017  37.5799987  60.5415006  20.3895017
  38.9359987  60.6585006  18.5985017  39.5609987  61.2385006  18.0565017
  38.5489987  59.3505006  18.0505017  37.5309987  59.3945006  17.6645017
  39.4919987  58.9595006  16.9045017  39.5339987  59.8035006  16.2165017
  40.4789987  58.7955006  17.3375017  39.0549987  57.7105006  16.1495017
  39.1449987  56.8625006  16.8275017  38.0139987  57.8245006  15.8485017
  39.8899987  57.4335006  14.9125017  40.3509987  58.3535006  14.2355017
  40.0769987  56.1505006  14.6015017  40.6239987  55.9055006  13.7885017
  39.6699987  55.4295006  15.1805017  38.5069987  58.2335006  19.1065017
  37.6109987  57.3915006  19.0965017  39.4679987  58.2465006  20.0235017
  40.1609987  58.9805006  20.0025017  39.5969987  57.2025006  21.0345017
  39.2989987  56.2405006  20.6175017  41.0549987  57.1025006  21.5045017
  41.4029987  58.1215006  21.6715017  41.0439987  56.5625006  22.4515017
  41.9939987  56.3985006  20.5285017  42.9589987  56.2575006  21.0145017
  41.5619987  55.4265006  20.2925017  42.2109987  57.1655006  19.2265017
  42.4419987  58.3755006  19.2285017  42.1459987  56.4535006  18.1055017
  42.2819987  56.9075006  17.2135017  41.9609987  55.4615006  18.1505017
  38.6849987  57.4335006  22.2355017  38.6319987  56.6025006  23.1295017
  37.9749987  58.5525006  22.2685017  38.0439987  59.2205006  21.5145017
  37.1069987  58.8745006  23.4045017  37.6159987  58.6445006  24.3405017
  36.7559987  60.3665006  23.3915017  37.6859987  60.9345006  23.4055017
  36.2129987  60.5805006  22.4705017  35.9599987  60.7365006  24.5055017
  35.7629987  61.6745006  24.4605017  35.8119987  58.0505006  23.3955017
  35.3139987  57.6935006  22.3235017  35.2649987  57.7425006  24.5905017
  35.9649987  57.6805006  25.8855017  35.9039987  58.6485006  26.3835017
  37.0109987  57.4195006  25.7255017  35.2169987  56.6125006  26.6145017
  35.2769987  56.7915006  27.6885017  35.6509987  55.6395006  26.3845017
  33.8169987  56.6975006  26.1275017  33.2589987  57.4145006  26.7305017
  33.3169987  55.7295006  26.1585017  33.9069987  57.1915006  24.6835017
  33.8349987  56.3875006  23.9515017  32.7979987  58.2175006  24.4255017
  31.6289987  57.8535006  24.3935017  33.1549987  59.4865006  24.2655017
  34.1119987  59.7645006  24.4315017  32.1859987  60.5195006  23.9155017
  31.1709987  60.1445006  24.0445017  32.3789987  61.7325006  24.8295017
  33.3549987  62.1985006  24.6955017  31.5969987  62.4595006  24.6105017
  32.2589987  61.4005006  26.2805017  31.0309987  61.4435006  26.9105017
  30.1509987  61.7425006  26.3415017  30.9109987  61.1125006  28.2455017
  29.9389987  61.1605006  28.7365017  32.0289987  60.7195006  28.9605017
  31.9399987  60.4535006  30.0135017  33.2599987  60.6655006  28.3355017
  34.1449987  60.3605006  28.8945017  33.3679987  60.9995006  27.0005017
  34.3359987  60.9485006  26.5025017  32.3119987  60.9165006  22.4425017
  31.7729987  61.9425006  22.0145017  33.0039987  60.0895006  21.6645017
  33.4099987  59.2485006  22.0495017  33.2509987  60.3955006  20.2655017
  33.7619987  61.3545006  20.1785017  34.1289987  59.3165006  19.6385017
  35.0549987  59.2225006  20.2055017  33.6029987  58.3615006  19.6405017
  34.5219987  59.5865006  18.2155017  34.2649987  58.7955006  17.1325017
  33.7139987  57.8735006  17.3185017  34.7819987  59.3625006  15.9965017
  34.7299987  58.9705006  15.0675017  35.3869987  60.5455006  16.3275017
  36.0519987  61.4725006  15.5205017  36.1289987  61.2715006  14.4525017
  36.5699987  62.5865006  16.1305017  37.0939987  63.3315006  15.5315017
  36.4419987  62.7925006  17.5145017  36.8579987  63.6795006  17.9925017
  35.7799987  61.8685006  18.3165017  35.7019987  62.0745006  19.3835017
  35.2429987  60.7205006  17.7205017  31.9459987  60.5385006  19.4855017
  31.7929987  61.4805006  18.7045017  31.0059987  59.6245006  19.7195017
  31.1909987  58.8715006  20.3665017  29.7239987  59.6285006  19.0045017
  29.7839987  60.2765006  18.1295017  29.3829987  58.2075006  18.5395017
  29.3919987  57.5685006  19.4225017  28.3759987  58.2375006  18.1235017
  30.3449987  57.6485006  17.4995017  30.8279987  58.4865006  16.9955017
  31.0929987  57.0725006  18.0445017  29.6699987  56.7545006  16.4655017
  28.4869987  56.9885006  16.1225017  30.3369987  55.8205006  15.9775017
  28.5469987  60.1995006  19.8105017  27.3959987  59.8585006  19.5445017
  28.8259987  61.0755006  20.7745017  29.7859987  61.3115006  20.9815017
  27.7729987  61.6665006  21.5985017  26.8089987  61.2315006  21.3365017
  28.0399987  61.4575006  23.1035017  29.0469987  61.8045006  23.3355017
  27.0269987  62.2355006  23.9415017  26.0199987  61.8885006  23.7095017
  27.2309987  62.0755006  25.0005017  27.1059987  63.2985006  23.7135017
  27.9739987  59.9665006  23.4385017  26.9809987  59.6195006  23.1525017
  28.7239987  59.4675006  22.8235017  28.2209987  59.6435006  24.8955017
  27.4709987  60.1415006  25.5105017  28.1559987  58.5655006  25.0455017
  29.2139987  59.9905006  25.1815017  27.6189987  63.1545006  21.3005017
  28.5399987  63.9445006  21.5165017  26.4409987  63.5185006  20.8055017
  25.7519987  62.8075006  20.6045017  26.0989987  64.9085006  20.5325017
  27.0019987  65.4855006  20.3335017  25.1899987  64.9845006  19.3065017
  24.9609987  66.0315006  19.1065017  25.7179987  64.5585006  18.4535017
  23.9829987  64.2685006  19.5205017  23.4309987  64.3315006  18.7375017
  25.3799987  65.5105006  21.7295017  24.9439987  64.7845006  22.6225017
  25.2499987  66.8375006  21.7375017  25.7199987  67.3905006  21.0345017
  24.4519987  67.5345006  22.7515017  24.9489987  67.4685006  23.7195017
  24.2839987  69.0115006  22.3875017  25.2799987  69.4175006  22.2105017
  23.7049987  69.0545006  21.4645017  23.5849987  69.8335006  23.4645017
  22.5949987  69.4085006  23.6295017  24.1689987  69.7595006  24.3825017
  23.4489987  71.2925006  23.0675017  24.3829987  71.6255006  22.6155017
  22.6409987  71.3885006  22.3425017  23.1419987  72.1475006  24.2835017
  22.2599987  71.7425006  24.7805017  23.9929987  72.1045006  24.9635017
  22.8879987  73.5595006  23.8965017  22.0989987  73.5995006  23.2665017
  22.6869987  74.1045006  24.7225017  23.7049987  73.9345006  23.4365017
  23.0659987  66.9055006  22.8875017  22.5449987  66.7505006  23.9975017
  22.4839987  66.5585006  21.7405017  22.9589987  66.7725006  20.8755017
  21.1689987  65.9325006  21.6705017  20.4419987  66.6035006  22.1275017
  20.7799987  65.7125006  20.2165017  21.4939987  65.0355006  19.7475017
  19.7819987  65.2775006  20.1685017  20.7859987  66.6665006  19.6895017
  21.1169987  64.6105006  22.4255017  20.2269987  64.4025006  23.2465017
  22.0759987  63.7315006  22.1425017  22.7989987  63.9855006  21.4845017
  22.0849987  62.3685006  22.6985017  21.0829987  61.9425006  22.6515017
  23.0339987  61.4745006  21.8985017  23.9729987  62.0165006  21.7885017
  23.2019987  60.5725006  22.4875017  22.5069987  61.0915006  20.5265017
  21.7289987  60.3395006  20.6585017  22.0819987  61.9745006  20.0485017
  23.5839987  60.5215006  19.6215017  24.6719987  61.0875006  19.4995017
  23.2829987  59.4025006  18.9725017  23.9639987  58.9805006  18.3575017
  22.3749987  58.9785006  19.0975017  22.4589987  62.2945006  24.1795017
  22.0369987  61.3685006  24.8745017  23.2389987  63.2625006  24.6595017
  23.4949987  64.0365006  24.0625017  23.8389987  63.1865006  25.9935017
  24.5799987  62.3875006  26.0155017  24.5319987  64.5085006  26.3625017
  25.2959987  64.6215006  25.5925017  23.8039987  65.3145006  26.2725017
  25.1889987  64.5665006  27.7455017  24.4119987  64.4925006  28.5065017
  26.1809987  63.4275006  27.9225017  26.9579987  63.5005006  27.1615017
  26.6339987  63.4905006  28.9115017  25.6619987  62.4745006  27.8205017
  25.8709987  65.9075006  27.9605017  25.1329987  66.7065006  27.8875017
  26.3309987  65.9275006  28.9485017  26.6379987  66.0515006  27.1995017
  22.8589987  62.7725006  27.0915017  23.0949987  61.7855006  27.7845017
  21.7439987  63.5065006  27.2395017  21.1499987  64.4855006  26.3185017
  20.5979987  63.9695006  25.5335017  21.9329987  65.0965006  25.8695017
  20.2599987  65.2745006  27.2225017  19.4259987  65.6775006  26.6485017
  20.8269987  66.0945006  27.6635017  19.7879987  64.3235006  28.2775017
  18.8339987  63.8915006  27.9725017  19.6729987  64.8105006  29.2465017
  20.8539987  63.2225006  28.3675017  21.4489987  63.2855006  29.2785017
  20.1939987  61.8505006  28.2865017  19.8359987  61.2905006  29.3235017
  20.0419987  61.3315006  27.0625017  20.2949987  61.8995006  26.2665017
  19.4459987  60.0105006  26.8145017  18.6839987  59.8005006  27.5655017
  18.7899987  59.9735006  25.4255017  18.0559987  60.7755006  25.3485017
  19.5539987  60.1055006  24.6595017  18.0969987  58.6295006  25.2255017
  18.8309987  57.8265006  25.3015017  17.3329987  58.4965006  25.9915017
  17.4459987  58.5935006  23.8465017  16.7109987  59.3955006  23.7695017
  18.2089987  58.7265006  23.0795017  16.7539987  57.2495006  23.6465017
  17.4879987  56.4475006  23.7225017  15.9909987  57.1165006  24.4125017
  16.1259987  57.2135006  22.3185017  16.8329987  57.3365006  21.6085017
  15.6679987  56.3235006  22.1865017  15.4449987  57.9565006  22.2475017
  20.4529987  58.8515006  26.9585017  20.0809987  57.6805006  26.8245017
  21.7179987  59.1775006  27.2225017  22.0049987  60.1455006  27.1965017
  22.7229987  58.1645006  27.5415017  22.5389987  57.2695006  26.9465017
  24.1359987  58.6735006  27.2365017  24.0319987  59.5575006  26.6075017
  24.5899987  58.9545006  28.1865017  25.0189987  57.6555006  26.5355017
  26.0449987  58.0215006  26.5665017  24.9499987  56.7225006  27.0945017
  24.6099987  57.4115006  25.0875017  24.3259987  58.3885006  24.3565017
  24.5769987  56.2355006  24.6705017  22.5949987  57.8365006  29.0205017
  22.2439987  58.7045006  29.8215017  22.8729987  56.5895006  29.3785017
  23.1149987  55.9075006  28.6745017  22.7859987  56.1495006  30.7665017
  22.3679987  56.9455006  31.3825017  21.8789987  54.9155006  30.8785017
  20.8779987  55.1675006  30.5295017  22.2839987  54.1095006  30.2665017
  21.8119987  54.4675006  32.3185017  22.8129987  54.2155006  32.6695017
  21.4049987  55.2725006  32.9305017  20.9109987  53.2415006  32.4285017
  21.4559987  52.1115006  32.3045017  19.6849987  53.4445006  32.6375017
  24.1929987  55.8535006  31.2915017  24.5879987  54.6925006  31.4045017
  24.9399987  56.9125006  31.6075017  24.5419987  57.8375006  31.5295017
  26.3499987  56.7915006  32.0075017  26.5619987  55.7675006  32.3145017
  27.2639987  57.1495006  30.8375017  28.2629987  57.0425006  31.2615017
  27.1099987  56.3865006  30.0745017  27.1239987  58.5385006  30.2065017
  26.0749987  58.6785006  29.9455017  27.5709987  59.6615006  31.1295017
  28.6199987  59.5225006  31.3905017  27.4469987  60.6195006  30.6235017
  26.9669987  59.6495006  32.0365017  27.9289987  58.5835006  28.9175017
  27.5529987  57.8285006  28.2275017  27.8339987  59.5695006  28.4635017
  28.9779987  58.3845006  29.1365017  26.7299987  57.6455006  33.2115017
  26.0039987  58.5605006  33.6025017  27.9019987  57.3485006  33.7605017
  28.4729987  56.6365006  33.3275017  28.3989987  57.9915006  34.9695017
  28.0229987  59.0115006  35.0415017  27.9139987  57.2035006  36.1905017
  26.8259987  57.1905006  36.1345017  28.2959987  56.1895006  36.0725017
  28.3459987  57.7545006  37.5445017  29.4359987  57.7415006  37.5745017
  27.9929987  58.7835006  37.6175017  27.7969987  56.9465006  38.7115017
  26.8719987  56.1235006  38.5025017  28.2869987  57.1355006  39.8435017
  29.9279987  58.0295006  34.9385017  30.5739987  57.0105006  34.7045017
  30.5019987  59.2025006  35.1735017  29.9319987  60.0115006  35.3785017
  31.9489987  59.3625006  35.1625017  32.4409987  58.5405006  34.6415017
  32.3459987  60.6915006  34.5095017  31.7349987  61.4885006  34.9335017
  33.8209987  60.9955006  34.7565017  34.4329987  60.1985006  34.3325017
  34.0809987  61.9425006  34.2845017  34.0039987  61.0625006  35.8285017
  32.0219987  60.6445006  33.0165017  32.6849987  59.9085006  32.5625017
  30.9889987  60.3115006  32.9185017  32.1909987  61.9725006  32.3165017
  33.2239987  62.3065006  32.4135017  31.9429987  61.8615006  31.2605017
  31.5279987  62.7095006  32.7695017  32.4729987  59.3635006  36.5805017
  32.1079987  60.2355006  37.3585017  33.3329987  58.4075006  36.9175017
  33.5289987  57.6475006  36.2825017  33.9509987  58.3815006  38.2385017
  33.3969987  59.0275006  38.9195017  34.0069987  56.9715006  38.8365017
  34.3849987  56.2845006  38.0795017  34.9199987  56.9325006  40.0595017
  34.5419987  57.6185006  40.8175017  34.9419987  55.9205006  40.4645017
  35.9279987  57.2295006  39.7705017  32.6009987  56.5425006  39.2175017
  31.9679987  56.5415006  38.3305017  32.6299987  55.5395006  39.6445017
  32.1949987  57.2385006  39.9515017  35.3369987  58.9825006  38.1925017
  36.1829987  58.5735006  37.4035017  35.5519987  59.9365006  39.0885017
  34.8239987  60.1305006  39.7615017  36.7429987  60.7615006  39.1075017
  37.4569987  60.5185006  38.3205017  36.3449987  62.2455006  38.9705017
  35.3159987  62.3515006  39.3145017  37.2439987  63.1635006  39.7775017
  38.2729987  63.0585006  39.4345017  36.9209987  64.1965006  39.6465017
  37.1839987  62.8955006  40.8325017  36.3389987  62.6255006  37.4985017
  35.6209987  62.0025006  36.9645017  36.0579987  63.6735006  37.3945017
  37.3329987  62.4725006  37.0795017  37.4999987  60.4665006  40.3915017
  36.9109987  60.4675006  41.4725017  38.7959987  60.1915006  40.2605017
  39.2459987  60.3035006  39.3635017  39.5939987  59.7075006  41.3775017
  39.0639987  59.8635006  42.3165017  39.9339987  58.2165006  41.2235017
  40.6809987  58.1005006  40.4385017  40.4829987  57.6625006  42.5315017
  39.7359987  57.7775006  43.3175017  40.7199987  56.6055006  42.4085017
  41.3859987  58.2065006  42.8065017  38.6979987  57.4245006  40.7875017
  37.9369987  57.5695006  41.5545017  38.3539987  57.8585006  39.8485017
  38.9469987  55.9425006  40.5975017  39.2909987  55.5085006  41.5365017
  38.0219987  55.4545006  40.2895017  39.7069987  55.7965006  39.8305017
  40.8909987  60.4845006  41.4955017  41.6849987  60.5355006  40.5565017
  41.0969987  61.0765006  42.6645017  40.3909987  61.0155006  43.3835017
  42.3079987  61.8245006  42.9505017  42.9179987  61.8975006  42.0505017
  41.9669987  63.2325006  43.4225017  41.3319987  63.6305006  42.6315017
  41.3919987  63.1555006  44.3455017  43.1529987  64.1655006  43.6395017
  43.9059987  63.6545006  44.2395017  43.7559987  64.5635006  42.3025017
  43.0039987  65.0755006  41.7025017  44.6019987  65.2295006  42.4695017
  44.0949987  63.6715006  41.7765017  42.7289987  65.3955006  44.4295017
  42.3399987  65.0885006  45.4005017  43.5889987  66.0495006  44.5745017
  41.9539987  65.9315006  43.8805017  43.0689987  61.0835006  44.0305017
  42.5359987  60.8445006  45.1145017  44.3099987  60.7185006  43.7205017
  44.7049987  61.0275006  42.8435017  45.1279987  59.8885006  44.5905017
  44.6579987  59.8115006  45.5705017  45.2849987  58.4775006  44.0095017
  45.6489987  58.6045006  42.9905017  46.0489987  57.9825006  44.6085017
  44.0249987  57.6285006  43.9945017  43.7649987  57.4125006  45.0305017
  43.2269987  58.2105006  43.5345017  44.2039987  56.3225006  43.2335017
  44.8359987  56.3085006  42.1575017  43.6999987  55.2935006  43.7065017
  46.5109987  60.4905006  44.7565017  47.2689987  60.6255006  43.7925017
  46.8459987  60.8385006  45.9885017  46.1639987  60.8235006  46.7335017
  48.2019987  61.2515006  46.3045017  48.9059987  60.6205006  45.7625017
  48.3409987  62.2905006  46.0045017  48.4689987  61.1275006  47.7815017
  47.6189987  60.6575006  48.5315017  49.6499987  61.5675006  48.1955017
  50.2869987  62.0005006  47.5415017  50.0809987  61.4035006  49.5675017
  49.4859987  60.6325006  50.0585017  51.5369987  60.9865006  49.6015017
  52.1099987  61.7035006  49.0125017  51.8749987  61.0155006  50.6375017
  51.7429987  59.5985006  49.0435017  51.5029987  58.8705006  49.8185017
  51.0719987  59.4595006  48.1955017  53.4329987  59.3495006  48.5045017
  53.1589987  58.0535006  47.2925017  52.4889987  58.4185006  46.5145017
  54.1109987  57.7655006  46.8455017  52.7109987  57.1875006  47.7805017
  49.8909987  62.6725006  50.3705017  50.2829987  63.7485006  49.9505017
  49.2719987  62.5205006  51.5305017  48.8509987  61.6275006  51.7425017
  49.1699987  63.5795006  52.5145017  48.6679987  64.4765006  52.1505017
  48.4179987  63.0645006  53.7595017  48.9659987  62.2205006  54.1775017
  48.2959987  64.1645006  54.8145017  47.7469987  65.0095006  54.3975017
  47.7619987  63.7785006  55.6825017  49.2909987  64.4915006  55.1165017
  47.0519987  62.4945006  53.3605017  47.1919987  61.6685006  52.6635017
  46.5339987  62.1355006  54.2495017  46.4569987  63.2745006  52.8845017
  50.5909987  63.9995006  52.8905017  51.4229987  63.1585006  53.2105017
  50.8899987  65.2895006  52.8435017  50.1959987  65.9955006  52.6465017
  52.2859987  65.7035006  52.9565017  52.8709987  65.2115006  52.1795017
  52.4399987  67.2235006  52.7975017  51.7129987  67.5485006  52.0535017
  52.2019987  67.6775006  53.7595017  53.8379987  67.6535006  52.3645017
  54.5329987  67.2885006  53.1205017  54.0479987  67.1645006  51.4135017
  54.0029987  69.1615006  52.2075017  53.0159987  69.9055006  52.4105017
  55.1309987  69.6085006  51.8745017  52.9489987  65.2215006  54.2555017
  54.1059987  64.8075006  54.2285017  52.2189987  65.2465006  55.3725017
  51.2409987  65.4965006  55.3265017  52.8199987  65.0065006  56.7035017
  53.8199987  65.4375006  56.6665017  52.0259987  65.7155006  57.7875017
  51.0249987  65.2885006  57.8435017  52.5279987  65.5895006  58.7475017
  51.9549987  66.7775006  57.5515017  52.9649987  63.5315006  57.0495017
  54.0159987  63.0965006  57.5015017  51.8909987  62.7735006  56.8855017
  50.9889987  63.1965006  56.7165017  51.9709987  61.3235006  56.9495017
  52.7829987  61.0255006  57.6125017  50.6539987  60.6765006  57.4565017
  50.8319987  59.6195006  57.6545017  50.1809987  61.3595006  58.7325017
  50.0029987  62.4165006  58.5345017  49.2569987  60.8935006  59.0735017
  50.9449987  61.2585006  59.5035017  49.6149987  60.7585006  56.4665017
  48.8149987  60.3515006  56.8075017  52.2669987  60.8975006  55.5275017
  51.6159987  61.3625006  54.6025017  53.2339987  60.0155006  55.3265017
  53.7709987  59.6365006  56.0935017  53.5499987  59.5645006  53.9685017
  53.8399987  60.4425006  53.3905017  54.3959987  58.8805006  54.0385017
  52.4009987  58.8605006  53.2585017  52.5499987  58.4645006  52.1015017
  51.2549987  58.7505006  53.9405017  51.1669987  59.2905006  54.7895017
  50.1489987  57.8695006  53.5605017  50.5319987  56.8985006  53.2485017
  49.2149987  57.6655006  54.7575017  48.8409987  58.6495006  55.0405017
  48.3859987  57.0475006  54.4125017  49.8719987  57.0065006  55.9635017
  50.1859987  56.0055006  55.6695017  50.7479987  57.5965006  56.2335017
  48.7719987  56.8885006  57.3925017  49.6129987  55.6535006  58.3865017
  50.6119987  56.0085006  58.6395017  49.0479987  55.4775006  59.3025017
  49.6899987  54.7235006  57.8225017  49.3359987  58.3875006  52.3815017
  49.0859987  59.5815006  52.2785017  48.9039987  57.4645006  51.5195017
  49.0589987  56.4905006  51.7375017  48.2159987  57.7955006  50.2725017
  48.5919987  58.7415006  49.8815017  48.4129987  56.7075006  49.2015017
  47.9809987  55.7745006  49.5635017  47.7339987  57.1095006  47.8895017
  48.1659987  58.0425006  47.5275017  47.8859987  56.3265006  47.1465017
  46.6659987  57.2465006  48.0595017  49.8129987  56.4995006  48.9695017
  49.9289987  55.8205006  48.3015017  46.7259987  57.9465006  50.4905017
  46.0989987  57.0965006  51.1185017  46.1709987  59.0235006  49.9385017
  46.7639987  59.6455006  49.4075017  44.7499987  59.3535006  50.0585017
  44.2829987  58.7155006  50.8095017  44.5769987  60.8115006  50.4815017
  44.8049987  60.9355006  51.5405017  45.2229987  61.4625006  49.8925017
  42.8969987  61.4355006  50.2555017  43.1419987  62.6615006  50.7095017
  44.0609987  59.1455006  48.7245017  44.6819987  59.2835006  47.6725017
  42.7769987  58.8155006  48.7715017  42.3259987  58.6575006  49.6615017
  41.9899987  58.6405006  47.5585017  42.5479987  59.0175006  46.7015017
  41.6729987  57.1555006  47.3225017  42.6249987  56.6465006  47.1705017
  41.2029987  56.7815006  48.2315017  40.7589987  56.8895006  46.1315017
  39.7739987  57.3065006  46.3415017  41.1899987  57.3945006  45.2665017
  40.6019987  55.4145006  45.8035017  39.5449987  54.8165006  46.0295017
  41.6469987  54.8245006  45.2525017  41.6009987  53.8445006  45.0125017
  42.4869987  55.3555006  45.0735017  40.7119987  59.4425006  47.7035017
  39.8359987  59.0705006  48.4855017  40.6119987  60.5455006  46.9685017
  41.4099987  60.8925006  46.4555017  39.3729987  61.3165006  46.9245017
  38.7369987  61.0365006  47.7635017  39.6579987  62.8045006  47.0075017
  40.2869987  63.1015006  46.1685017  38.7189987  63.3575006  46.9715017
  40.1729987  63.0245006  47.9425017  38.6099987  60.9825006  45.6485017
  39.2019987  60.8975006  44.5695017  37.2989987  60.7895006  45.7885017
  36.8659987  60.9725006  46.6825017  36.4539987  60.3375006  44.6925017
  37.0229987  60.3325006  43.7625017  35.9499987  58.9255006  44.9625017
  35.4579987  58.9495006  45.9345017  35.2149987  58.7015006  44.1885017
  37.0219987  57.8545006  44.9655017  37.4359987  57.7625006  43.9615017
  37.8119987  58.1435006  45.6595017  36.4339987  56.5205006  45.3945017
  35.6449987  56.2335006  44.6995017  37.2169987  55.7625006  45.3875017
  35.8679987  56.5965006  46.7395017  34.8839987  56.8145006  46.7995017
  36.5459987  56.4015006  47.8705017  37.8389987  56.1035006  47.8605017
  38.3279987  56.0205006  46.9805017  38.3279987  55.9605006  48.7325017
  35.9199987  56.5075006  49.0345017  34.9359987  56.7345006  49.0565017
  36.4299987  56.3605006  49.8935017  35.2429987  61.2295006  44.5285017
  34.8009987  61.8685006  45.4755017  34.7039987  61.2575006  43.3165017
  35.2159987  60.8625006  42.5405017  33.4089987  61.8765006  43.0485017
  32.7109987  61.6035006  43.8395017  33.5119987  63.4015006  42.9915017
  33.8689987  63.7635006  43.9555017  34.2259987  63.6745006  42.2145017
  32.2509987  63.9885006  42.7025017  32.3419987  64.9435006  42.6725017
  32.8639987  61.3415006  41.7345017  33.5379987  60.5985006  41.0175017
  31.6389987  61.7265006  41.4235017  31.1479987  62.3905006  42.0055017
  30.9529987  61.1825006  40.2785017  31.6659987  60.7375006  39.5845017
  29.9829987  60.1005006  40.7415017  30.5519987  59.1885006  40.9245017
  29.5209987  60.4325006  41.6715017  28.9759987  59.8435006  39.7805017
  28.3879987  59.1595006  40.1085017  30.2209987  62.2835006  39.5365017
  29.8179987  63.2835006  40.1255017  30.0779987  62.1005006  38.2325017
  30.5469987  61.3275006  37.7825017  29.2639987  62.9765006  37.4175017
  28.7189987  63.6705006  38.0575017  30.1309987  63.7795006  36.4535017
  30.6829987  63.0745006  35.8315017  29.4639987  64.3715006  35.8265017
  31.0999987  64.6935006  37.1575017  30.6609987  65.8555006  37.7735017
  29.5999987  66.1025006  37.7335017  31.5419987  66.6945006  38.4305017
  31.1819987  67.6025006  38.9145017  32.8789987  66.3775006  38.4725017
  33.7509987  67.2095006  39.1235017  33.3209987  67.9765006  39.5095017
  33.3389987  65.2325006  37.8635017  34.3999987  64.9835006  37.8925017
  32.4499987  64.3965006  37.2125017  32.8099987  63.4865006  36.7325017
  28.3129987  62.0925006  36.6505017  28.7479987  61.3305006  35.7885017
  27.0269987  62.1575006  36.9945017  26.7389987  62.6445006  37.8315017
  26.0099987  61.4485006  36.2215017  26.4569987  60.5705006  35.7555017
  24.7769987  61.0205006  37.0475017  23.9939987  60.6745006  36.3725017
  25.1559987  59.8985006  38.0005017  25.9389987  60.2435006  38.6765017
  24.2809987  59.6015006  38.5795017  25.5199987  59.0445006  37.4305017
  24.1729987  62.1915006  37.8255017  24.7909987  62.3515006  38.7095017
  24.2219987  63.0715006  37.1845017  22.7389987  61.9555006  38.2485017
  22.6889987  61.0755006  38.8905017  22.3729987  62.8245006  38.7955017
  22.1209987  61.7955006  37.3655017  25.5979987  62.3165006  35.0475017
  25.8559987  63.5235006  35.0365017  24.9669987  61.6815006  34.0635017
  24.7489987  60.7035006  34.1865017  24.7019987  62.2935006  32.7585017
  25.6269987  62.5255006  32.2315017  23.8539987  61.3465006  31.8765017
  24.4029987  60.4145006  31.7465017  22.4909987  61.0515006  32.5115017
  21.9409987  61.9835006  32.6415017  21.9239987  60.3835006  31.8625017
  22.6369987  60.5775006  33.4825017  23.6739987  61.9285006  30.5815017
  23.1479987  61.3395006  30.0365017  24.0789987  63.7055006  32.8305017
  24.3969987  64.5705006  32.0085017  23.2219987  63.9305006  33.8295017
  23.0029987  63.1705006  34.4575017  22.5409987  65.2185006  34.0295017
  22.1959987  65.6165006  33.0755017  21.3299987  65.0185006  34.9415017
  20.7519987  65.9425006  34.9615017  20.7159987  64.2145006  34.5355017
  21.7329987  64.6845006  36.2595017  20.9559987  64.5645006  36.8105017
  23.4169987  66.3345006  34.6225017  23.0149987  67.4985006  34.6275017
  24.5949987  65.9775006  35.1305017  24.8629987  65.0035006  35.1145017
  25.5029987  66.9375006  35.7615017  24.9619987  67.8405006  36.0425017
  26.1089987  66.3165006  37.0265017  26.5889987  65.3825006  36.7335017
  26.8619987  67.0095006  37.4015017  25.0819987  66.0385006  38.1235017
  24.9139987  66.9905006  38.6265017  24.1579987  65.7125006  37.6455017
  25.5209987  64.9955006  39.1455017  26.4269987  64.1845006  38.8525017
  24.9329987  64.9725006  40.2495017  26.6059987  67.3675006  34.7965017
  27.5079987  68.1065006  35.1675017  26.5149987  66.9015006  33.5555017
  25.7489987  66.2835006  33.3285017  27.4839987  67.2115006  32.5135017
  28.4139987  67.6045006  32.9245017  27.7849987  65.9465006  31.6755017
  26.8669987  65.6325006  31.1785017  28.8609987  66.2175006  30.6305017
  29.7789987  66.5305006  31.1265017  29.0499987  65.3095006  30.0585017
  28.5249987  67.0065006  29.9575017  28.1929987  64.7905006  32.6005017
  29.0379987  65.1395006  33.1935017  27.3459987  64.5945006  33.2575017
  28.5759987  63.5175006  31.8775017  29.4229987  63.7135006  31.2205017
  28.8499987  62.7535006  32.6055017  27.7309987  63.1675006  31.2845017
  26.9179987  68.3315006  31.6255017  26.1429987  68.0725006  30.6975017
  27.3059987  69.5735006  31.9065017  27.9789987  69.7395006  32.6415017
  26.7429987  70.7315006  31.2045017  25.6749987  70.5825006  31.0445017
  26.9409987  72.0065006  32.0285017  28.0109987  72.1965006  31.9455017
  26.3909987  72.8035006  31.5275017  26.5449987  71.9635006  33.5025017
  27.3049987  71.4155006  34.0595017  26.4269987  73.3745006  34.0585017
  25.6669987  73.9225006  33.5015017  26.1439987  73.3285006  35.1105017
  27.3849987  73.8845006  33.9625017  25.2409987  71.2115006  33.6995017
  25.3529987  70.1885006  33.3405017  24.9849987  71.1975006  34.7595017
  24.4469987  71.7075006  33.1415017  27.3609987  70.9255006  29.8185017
  28.5459987  71.2385006  29.7015017  26.5639987  70.7545006  28.7675017
  25.5999987  70.4735006  28.8795017  27.0749987  70.9515006  27.4145017
  28.1109987  70.6145006  27.3655017  26.2599987  70.1665006  26.3975017
  26.2109987  69.1205006  26.7015017  25.2499987  70.5665006  26.3085017
  26.8529987  70.1855006  25.0165017  26.9799987  71.2675006  24.1815017
  26.6219987  72.2255006  24.5595017  27.5579987  70.8855006  22.9965017
  27.7589987  71.4955006  22.2165017  27.8149987  69.5395006  23.0415017
  28.3859987  68.7025006  22.0865017  28.6999987  69.1335006  21.1355017
  28.5169987  67.3795006  22.4065017  28.9599987  66.6945006  21.6825017
  28.0939987  66.8775006  23.6495017  28.2029987  65.8205006  23.8935017
  27.5289987  67.7065006  24.5975017  27.2179987  67.2695006  25.5465017
  27.3809987  69.0645006  24.2995017  27.0349987  72.4195006  27.0445017
  25.9929987  73.0585006  27.1525017  28.1649987  72.9365006  26.5765017
  28.9969987  72.3645006  26.5495017  28.2549987  74.3115006  26.0945017
  29.0619987  74.3655006  25.3645017  27.3119987  74.5675006  25.6125017
  28.5269987  75.3065006  27.2045017  28.0149987  76.4235006  27.1735017
  29.3579987  74.9025006  28.1685017  29.7919987  73.9945006  28.0855017
  29.6449987  75.7005006  29.3555017  29.2759987  76.7175006  29.2265017
  28.9509987  75.0795006  30.5615017  29.0449987  73.9975006  30.4725017
  29.4879987  75.4185006  31.4475017  27.4949987  75.4485006  30.6855017
  26.5339987  74.8355006  29.8945017  26.8469987  74.0825006  29.1715017
  25.1939987  75.1675006  30.0135017  24.4479987  74.6755006  29.3895017
  24.8029987  76.1285006  30.9355017  23.4749987  76.4725006  31.0635017
  22.9019987  75.9865006  30.4655017  25.7439987  76.7515006  31.7315017
  25.4409987  77.5075006  32.4565017  27.0779987  76.4105006  31.6045017
  27.8269987  76.8965006  32.2295017  31.1369987  75.8195006  29.6515017
  31.9339987  74.9945006  29.2185017  31.4889987  76.8535006  30.4125017
  30.7659987  77.4905006  30.7145017  32.8639987  77.1055006  30.8495017
  33.4859987  76.2365006  30.6355017  33.4419987  78.3125006  30.1145017
  32.6029987  78.9795006  29.9165017  34.1299987  78.7925006  30.8105017
  34.1669987  78.0105006  28.8135017  34.9429987  77.2655006  28.9865017
  33.4599987  77.6335006  28.0745017  34.8019987  79.2925006  28.2985017
  34.1969987  80.1355006  28.6325017  35.8039987  79.3745006  28.7205017
  34.9019987  79.3365006  26.8455017  34.7859987  78.4625006  26.3515017
  35.1359987  80.4405006  26.1375017  35.3009987  81.6175006  26.7345017
  35.2489987  81.6815006  27.7415017  35.4769987  82.4415006  26.1785017
  35.2029987  80.3675006  24.8165017  35.0769987  79.4775006  24.3555017
  35.3799987  81.2025006  24.2765017  32.9179987  77.4085006  32.3425017
  32.0159987  78.0585006  32.8795017  33.9909987  76.9715006  32.9965017
  34.6669987  76.3835006  32.5305017  34.1959987  77.2765006  34.4085017
  33.2729987  77.0885006  34.9575017  35.3079987  76.4095006  35.0095017
  36.1139987  76.2925006  34.2855017  35.6999987  76.8675006  35.9175017
  34.8639987  75.0275006  35.3835017  34.1269987  74.8155006  36.5375017
  33.8719987  75.6665006  37.1695017  33.7139987  73.5395006  36.8925017
  33.1309987  73.3905006  37.8015017  34.0409987  72.4585006  36.0955017
  33.7199987  71.4535006  36.3715017  34.7789987  72.6565006  34.9425017
  35.0379987  71.8075006  34.3105017  35.1889987  73.9345006  34.5905017
  35.7729987  74.0895006  33.6835017  34.5279987  78.7535006  34.6005017
  35.2729987  79.3435006  33.8195017  33.9629987  79.3405006  35.6495017
  33.3319987  78.8115006  36.2345017  34.2239987  80.7305006  35.9955017
  34.2539987  81.3475006  35.0975017  33.1319987  81.2755006  36.9295017
  33.2979987  80.8815006  37.9325017  33.1649987  82.7975006  36.9705017
  32.9989987  83.1925006  35.9685017  32.3829987  83.1605006  37.6375017
  34.1369987  83.1305006  37.3345017  31.8469987  80.8355006  36.4735017
  31.1659987  81.1765006  37.0575017  35.5709987  80.8465006  36.7105017
  35.8339987  80.0955006  37.6435017  36.4269987  81.7885006  36.2795017
  36.2899987  82.6115006  35.0605017  35.4359987  83.2785006  35.1775017
  36.1229987  81.9555006  34.2065017  37.5959987  83.3545006  34.9665017
  37.3949987  84.3815006  34.6605017  38.2239987  82.8695006  34.2195017
  38.2329987  83.3025006  36.3095017  37.9329987  84.1645006  36.9055017
  39.3199987  83.2695006  36.2415017  37.7099987  82.0135006  36.9565017
  38.3379987  81.1475006  36.7465017  37.5989987  82.2065006  38.4705017
  36.5769987  82.6855006  38.9695017  38.6609987  81.8235006  39.1755017
  39.4439987  81.4215006  38.6805017  38.7439987  81.9325006  40.6375017
  37.9169987  82.5155006  41.0435017  38.7429987  80.5395006  41.3085017
  38.8869987  80.6655006  42.3815017  37.4279987  79.8185006  41.0555017
  37.2829987  79.6915006  39.9825017  37.4509987  78.8405006  41.5375017
  36.6059987  80.4055006  41.4655017  39.9079987  79.6915006  40.8165017
  40.8469987  80.1915006  41.0535017  39.8809987  78.7175006  41.3055017
  39.8309987  79.5575006  39.7375017  39.9979987  82.6715006  41.1135017
  40.0379987  83.1515006  42.2495017  41.0109987  82.7535006  40.2475017
  40.8849987  82.3975006  39.3105017  42.3199987  83.3075006  40.6105017
  42.5009987  83.1465006  41.6735017  43.4439987  82.6345006  39.8145017
  42.9249987  82.1185006  39.0075017  44.0719987  83.4215006  39.3975017
  44.3129987  81.6415006  40.5755017  43.7019987  80.8095006  40.9245017
  45.3969987  81.1185006  39.6465017  46.0089987  81.9495006  39.2975017
  46.0239987  80.4065006  40.1835017  44.9359987  80.6235006  38.7915017
  44.9239987  82.2855006  41.8125017  44.1289987  82.6315006  42.4735017
  45.5389987  81.5545006  42.3365017  45.5419987  83.1325006  41.5145017
  42.4169987  84.8065006  40.3875017  42.0219987  85.3135006  39.3385017
  42.9569987  85.5005006  41.3815017  43.2069987  85.0265006  42.2375017
  43.2159987  86.9275006  41.2835017  43.2739987  87.2265006  40.2365017
  42.1329987  87.7745006  41.9785017  42.1199987  88.7625006  41.5185017
  40.7479987  87.1325006  41.8485017  40.7599987  86.1445006  42.3085017
  40.0089987  87.7575006  42.3505017  40.4879987  87.0385006  40.7945017
  42.4599987  87.9365006  43.3635017  41.7829987  88.4645006  43.7925017
  44.5439987  87.2155006  41.9545017  44.9869987  86.4645006  42.8235017
  45.1609987  88.3185006  41.5605017  44.7339987  88.9075006  40.8595017
  46.4649987  88.6945006  42.0725017  46.9839987  87.8225006  42.4695017
  47.2989987  89.2845006  40.9375017  47.1909987  88.5295006  40.1595017
  46.8019987  90.2025006  40.6235017  48.7799987  89.5635006  41.1735017
  48.8659987  90.4915006  41.7395017  49.4549987  88.4395006  41.9395017
  49.3689987  87.5115006  41.3745017  50.5079987  88.6795006  42.0855017
  48.9729987  88.3195006  42.9095017  49.4549987  89.7955006  39.8275017
  48.9929987  90.6485006  39.3305017  50.5149987  89.9965006  39.9815017
  49.3409987  88.9075006  39.2055017  46.3099987  89.6925006  43.2115017
  45.4769987  90.5855006  43.1585017  47.0939987  89.5025006  44.2605017
  47.6859987  88.6845006  44.2855017  47.1399987  90.4205006  45.3855017
  46.6179987  91.3445006  45.1375017  46.4589987  89.7845006  46.6055017
  45.7249987  89.0785006  46.2165017  47.2349987  89.2405006  47.1435017
  45.7719987  90.7595006  47.5535017  45.6069987  90.2435006  48.4995017
  46.4569987  91.5925006  47.7095017  44.4449987  91.2865006  47.0255017
  43.7409987  90.5445006  46.3035017  44.1029987  92.4485006  47.3425017
  48.6219987  90.6755006  45.6465017  49.4699987  90.0045006  45.0545017
  48.9469987  91.6255006  46.5205017  48.2289987  92.1795006  46.9665017
  50.3489987  91.9395006  46.8125017  50.8489987  92.2535006  45.8965017
  50.4609987  93.0695006  47.8435017  49.7659987  93.8525006  47.5385017
  50.1649987  92.6815006  48.8175017  51.8679987  93.6465006  47.9335017
  52.7559987  92.9915006  48.5125017  52.0819987  94.7705006  47.4365017
  51.0989987  90.7035006  47.3075017  50.8479987  90.2115006  48.4035017
  51.9939987  90.1885006  46.4695017  52.0789987  90.5705006  45.5385017
  52.8669987  89.0815006  46.8455017  53.6909987  89.0995006  46.1325017
  53.2419987  89.3245006  47.8395017  52.2649987  87.6845006  46.8715017
  53.0069987  86.7195006  47.0605017  50.9469987  87.5565006  46.6725017
  50.3919987  88.3805006  46.4915017  50.2569987  86.2555006  46.7635017
  50.9509987  85.4485006  46.5265017  49.7199987  86.0385006  48.1885017
  49.4149987  86.9885006  48.6275017  48.8669987  85.3605006  48.1635017
  50.7309987  85.4285006  49.1355017  50.8769987  84.0425006  49.2225017
  50.2489987  83.4045006  48.6005017  51.8079987  83.4725006  50.0885017
  51.9069987  82.3885006  50.1455017  52.6089987  84.2845006  50.8785017
  53.3389987  83.8425006  51.5565017  52.4779987  85.6635006  50.8035017
  53.1059987  86.3035006  51.4225017  51.5439987  86.2305006  49.9375017
  51.4409987  87.3145006  49.8805017  49.1129987  86.1295006  45.7605017
  48.3939987  87.0885006  45.5315017  48.9499987  84.9515006  45.1635017
  49.6339987  84.2215006  45.3005017  47.7899987  84.6685006  44.3005017
  47.5219987  85.5695006  43.7485017  48.1019987  83.5495006  43.2935017
  48.6639987  82.8035006  43.8555017  47.1509987  83.1235006  42.9745017
  48.8959987  83.9695006  42.0825017  48.2729987  84.5435006  40.9895017
  47.1929987  84.6905006  41.0165017  48.9949987  84.9285006  39.8755017
  48.4899987  85.3895006  39.0265017  50.3549987  84.7275006  39.8405017
  51.0729987  85.1095006  38.7325017  50.5259987  85.5035006  38.0485017
  50.9939987  84.1475006  40.9105017  52.0719987  83.9865006  40.8865017
  50.2629987  83.7675006  42.0215017  50.7639987  83.2995006  42.8695017
  46.5969987  84.2225006  45.1515017  46.6839987  83.1975006  45.8185017
  45.4839987  84.9535006  45.1205017  45.4269987  85.8005006  44.5725017
  44.3339987  84.5885006  45.9635017  44.6529987  83.8615006  46.7105017
  43.7539987  85.8035006  46.6815017  44.5789987  86.3625006  47.1225017
  43.2489987  86.4245006  45.9415017  42.7669987  85.4105006  47.7735017
  42.0439987  84.7295006  47.3245017  43.3219987  84.8885006  48.5535017
  42.0389987  86.5915006  48.3765017  42.6729987  87.6495006  48.5945017
  40.8249987  86.4455006  48.6375017  43.2109987  83.8745006  45.2155017
  42.7229987  84.3615006  44.1955017  42.7749987  82.7435006  45.7725017
  43.2159987  82.4245006  46.6235017  41.7059987  81.9285006  45.1985017
  41.5819987  82.1145006  44.1315017  41.9909987  80.4285006  45.4075017
  42.0369987  80.2245006  46.4775017  40.8989987  79.5775006  44.7755017
  40.8529987  79.7805006  43.7055017  41.1209987  78.5225006  44.9355017
  39.9389987  79.8195006  45.2325017  43.3509987  80.0635006  44.8325017
  44.1249987  80.6455006  45.3325017  43.5379987  79.0005006  44.9875017
  43.3649987  80.2825006  43.7645017  40.3629987  82.2825006  45.8405017
  40.2879987  82.5015006  47.0485017  39.3089987  82.3275006  45.0245017
  39.4399987  82.1255006  44.0435017  37.9649987  82.6995006  45.4845017
  37.9969987  82.9995006  46.5315017  37.4339987  83.8785006  44.6515017
  38.1489987  84.6975006  44.7315017  37.3789987  83.5445006  43.6155017
  36.0609987  84.3585006  45.1035017  35.5689987  83.8895006  46.1535017
  35.4819987  85.2175006  44.4005017  37.0189987  81.5095006  45.3785017
  36.3229987  81.3525006  44.3775017  36.9779987  80.6905006  46.4255017
  37.5589987  80.8765006  47.2305017  36.2299987  79.4265006  46.3825017
  36.4809987  78.8865006  45.4695017  36.5729987  78.5355006  47.5905017
  36.5819987  79.1245006  48.5075017  35.7849987  77.7845006  47.6495017
  37.9079987  77.8515006  47.4195017  38.0009987  76.6045006  46.8095017
  37.0889987  76.1105006  46.4755017  39.2299987  75.9895006  46.6245017
  39.2899987  75.0075006  46.1545017  40.3869987  76.6295006  47.0445017
  41.6179987  76.0425006  46.8695017  41.5669987  75.1835006  46.4435017
  40.3139987  77.8685006  47.6415017  41.2219987  78.3725006  47.9745017
  39.0809987  78.4745006  47.8185017  39.0189987  79.4605006  48.2795017
  34.7149987  79.5965006  46.2185017  34.0299987  78.6445006  45.8425017
  34.1979987  80.7995006  46.4695017  34.7599987  81.5145006  46.9095017
  32.8099987  81.1195006  46.1275017  32.1399987  80.5325006  46.7545017
  32.5069987  82.6055006  46.3445017  33.2939987  83.1795006  45.8555017
  31.5459987  82.8475006  45.8905017  32.4619987  82.9955006  47.8105017
  31.8579987  82.3055006  48.6305017  33.0869987  84.1205006  48.1465017
  33.0879987  84.4265006  49.1095017  33.5579987  84.6645006  47.4375017
  32.5149987  80.7895006  44.6735017  31.4319987  80.3145006  44.3555017
  33.4889987  81.0535006  43.8025017  34.3609987  81.4245006  44.1525017
  33.3449987  80.8655006  42.3555017  32.2979987  80.9535006  42.0655017
  34.1499987  81.9405006  41.6155017  35.2119987  81.7425006  41.7625017
  33.9139987  81.8825006  40.5525017  33.8399987  83.2355006  42.0975017
  34.3569987  83.8875006  41.6185017  33.8019987  79.4905006  41.8635017
  33.7729987  79.2255006  40.6625017  34.2049987  78.6185006  42.7855017
  34.1029987  78.8445006  43.7645017  34.8729987  77.3675006  42.4285017
  35.7459987  77.5795006  41.8115017  35.3339987  76.6195006  43.6915017
  36.1129987  77.1885006  44.1995017  34.4909987  76.4755006  44.3675017
  35.9059987  75.2555006  43.4195017  35.0969987  74.1325006  43.4845017
  34.0449987  74.2535006  43.7415017  35.6039987  72.8765006  43.2305017
  34.9539987  72.0035006  43.2845017  36.9389987  72.7255006  42.9075017
  37.3449987  71.7345006  42.7035017  37.7619987  73.8385006  42.8435017
  38.8159987  73.7255006  42.5915017  37.2429987  75.0965006  43.1005017
  37.8889987  75.9725006  43.0525017  33.9899987  76.4725006  41.5705017
  34.4529987  75.9175006  40.5765017  32.7239987  76.3525006  41.9575017
  32.4059987  76.8695006  42.7645017  31.7719987  75.4725006  41.2785017
  32.2889987  74.6145006  40.8495017  30.7419987  74.9675006  42.2835017
  30.2129987  75.8055006  42.7375017  30.0259987  74.3135006  41.7855017
  31.3329987  74.1775006  43.4055017  31.7219987  72.8635006  43.2625017
  32.2049987  72.4215006  44.4085017  32.5689987  71.3985006  44.5015017
  32.1419987  73.4025006  45.2915017  32.4419987  73.3545006  46.2545017
  31.5979987  74.5125006  44.6895017  31.4609987  75.4305006  45.2615017
  31.0269987  76.1415006  40.1175017  30.3409987  75.4685006  39.3435017
  31.1679987  77.4575006  39.9985017  31.8619987  77.9345006  40.5565017
  30.3289987  78.2515006  39.1145017  29.2889987  77.9315006  39.1875017
  30.4179987  79.7205006  39.5225017  30.4759987  79.7505006  40.6105017
  31.3399987  80.1175006  39.0995017  29.2439987  80.5615006  39.0555017
  29.1389987  80.4235006  37.9795017  28.3509987  80.1895006  39.5575017
  29.4179987  82.0395006  39.3615017  30.3889987  82.4115006  40.0585017
  28.5759987  82.8375006  38.8965017  30.7409987  78.0915006  37.6575017
  31.9319987  78.1015006  37.3505017  29.7549987  77.9385006  36.7705017
  28.8039987  77.8495006  37.0985017  29.9969987  77.9135006  35.3205017
  31.0299987  78.1895006  35.1105017  29.7169987  76.5395006  34.6885017
  29.8519987  76.6185006  33.6095017  30.6549987  75.4805006  35.2395017
  30.5199987  75.4005006  36.3185017  30.4329987  74.5205006  34.7745017
  31.6859987  75.7595006  35.0225017  28.3579987  76.1655006  34.9355017
  28.1849987  75.3075006  34.5405017  29.1039987  78.8935006  34.5885017
  28.0779987  79.3275006  35.1145017  29.5059987  79.2135006  33.3625017
  30.3959987  78.8665006  33.0345017  28.7329987  80.0775006  32.4785017
  27.7029987  80.1355006  32.8315017  29.3189987  81.4885006  32.4495017
  28.6219987  82.0835006  31.8595017  29.3339987  81.8585006  33.4745017
  30.7059987  81.5995006  31.8535017  31.8379987  81.5235006  32.6565017
  31.7129987  81.3705006  33.7285017  33.1089987  81.6385006  32.1165017
  33.9879987  81.5745006  32.7585017  33.2589987  81.8345006  30.7555017
  34.5129987  81.9495006  30.2035017  35.2169987  81.8795006  30.8525017
  32.1499987  81.9165006  29.9445017  32.2669987  82.0685006  28.8715017
  30.8839987  81.8055006  30.4935017  30.0039987  81.8795006  29.8545017
  28.7089987  79.4995006  31.0765017  29.5919987  78.7315006  30.7065017
  27.7089987  79.8965006  30.2985017  27.0559987  80.5825006  30.6485017
  27.4789987  79.3365006  28.9695017  27.7739987  78.2875006  28.9415017
  25.9859987  79.4345006  28.6355017  25.4419987  79.2095006  29.5525017
  25.7949987  80.4675006  28.3445017  25.5199987  78.5025006  27.5295017
  26.0249987  78.7955006  26.6085017  25.8219987  77.4915006  27.8035017
  24.0159987  78.5415006  27.3165017  23.4299987  79.6465006  27.3695017
  23.4209987  77.4635006  27.0905017  28.3169987  80.0365006  27.8815017
  28.5339987  81.2565006  27.9355017  28.7959987  79.2535006  26.9115017
  28.7459987  78.2505006  27.0145017  29.4179987  79.7985006  25.6965017
  29.1949987  80.8615006  25.6025017  30.9499987  79.6105006  25.6515017
  31.2899987  79.7395006  24.6235017  31.6449987  80.6225006  26.5445017
  31.3059987  80.4945006  27.5725017  32.7229987  80.4705006  26.4965017
  31.4049987  81.6305006  26.2065017  31.2919987  78.2755006  26.0455017
  32.2449987  78.1675006  26.0145017  28.8699987  79.1665006  24.4285017
  28.2709987  78.0865006  24.4525017  29.0959987  79.8705006  23.3235017
  29.4819987  80.7995006  23.4135017  28.7919987  79.3785006  21.9935017
  27.7199987  79.2165006  21.8865017  29.2369987  80.4105006  20.9535017
  28.7359987  81.3545006  21.1675017  30.3149987  80.5445006  21.0405017
  28.9179987  79.9955006  19.6395017  29.2089987  80.6625006  19.0135017
  29.5169987  78.0505006  21.7825017  30.7399987  77.9805006  21.8965017
  28.7549987  76.9965006  21.5075017  27.7589987  77.1125006  21.3835017
  29.3149987  75.6535006  21.3915017  30.3159987  75.6995006  20.9625017
  29.4009987  74.9725006  22.7675017  28.3909987  74.8275006  23.1505017
  30.1029987  73.6255006  22.6665017  31.1139987  73.7695006  22.2845017
  30.1509987  73.1655006  23.6535017  29.5479987  72.9755006  21.9895017
  30.1229987  75.8155006  23.6725017  30.1769987  75.3905006  24.5315017
  28.4629987  74.7775006  20.4715017  27.2489987  74.6895006  20.6675017
  29.0979987  74.1235006  19.4745017  30.5099987  74.3125006  19.0845017
  31.1529987  73.9575006  19.8905017  30.6939987  75.3735006  18.9145017
  30.6539987  73.4995006  17.8335017  31.6439987  73.0445006  17.8055017
  30.5259987  74.1425006  16.9635017  29.5869987  72.4715006  17.8935017
  29.9039987  71.6215006  18.4975017  29.2829987  72.1225006  16.9065017
  28.4199987  73.1875006  18.5755017  27.8189987  73.7835006  17.8885017
  27.5209987  72.1645006  19.2875017  27.8409987  71.7265006  20.3975017
  26.4089987  71.7995006  18.6435017  26.1599987  72.2795006  17.7905017
  25.5109987  70.7465006  19.1375017  25.5539987  70.7045006  20.2255017
  24.0719987  71.0325006  18.7165017  24.0419987  71.1885006  17.6385017
  23.4489987  70.1765006  18.9775017  23.5859987  72.1845006  19.3715017
  22.6809987  72.3515006  19.0965017  25.9129987  69.3705006  18.6175017
  25.3179987  68.3605006  18.9935017  26.9309987  69.3465006  17.7605017
  27.4389987  70.2015006  17.5855017  27.3389987  68.1445006  17.0505017
  26.4629987  67.5535006  16.7835017  28.0859987  68.5205006  15.7655017
  28.8439987  69.2205006  16.1155017  28.5699987  67.6175006  15.3935017
  27.2739987  69.1695006  14.6335017  26.4079987  68.5365006  14.4375017
  26.8049987  70.5795006  14.9785017  27.6699987  71.2135006  15.1735017
  26.2369987  70.9885006  14.1435017  26.1719987  70.5455006  15.8655017
  28.1009987  69.1965006  13.3595017  28.3649987  68.1775006  13.0755017
  27.5219987  69.6575006  12.5595017  29.0099987  69.7735006  13.5285017
  28.2409987  67.2985006  17.9255017  28.8849987  67.8105006  18.8385017
  28.2809987  66.0005006  17.6445017  27.6349987  65.6065006  16.9755017
  29.2329987  65.1075006  18.2965017  29.2109987  65.2755006  19.3735017
  28.8889987  63.6395006  18.0225017  29.4249987  63.0195006  18.7415017
  27.8159987  63.5065006  18.1575017  29.2509987  63.2555006  16.7055017
  29.0229987  62.3335006  16.5665017  30.6239987  65.4245006  17.7635017
  30.7609987  65.9435006  16.6475017  31.6459987  65.1145006  18.5555017
  31.4729987  64.7495006  19.4815017  33.0319987  65.3445006  18.1485017
  33.2069987  66.4175006  18.0725017  33.9849987  64.7695006  19.1815017
  33.8279987  63.6935006  19.2625017  35.0129987  64.9645006  18.8765017
  33.7989987  65.2365006  20.1485017  33.3039987  64.7405006  16.7705017
  33.9839987  65.3495006  15.9415017  32.7529987  63.5465006  16.5435017
  32.2799987  63.0895006  17.3095017  32.8439987  62.8395006  15.2605017
  33.8849987  62.6245006  15.0215017  32.0779987  61.5135006  15.3485017
  32.6429987  60.8845006  16.0365017  31.1099987  61.7535006  15.7875017
  31.8689987  60.7675006  14.0335017  31.3449987  61.4175006  13.3335017
  32.8399987  60.4955006  13.6185017  31.0459987  59.5055006  14.2685017
  31.7259987  58.6545006  14.2225017  30.6169987  59.5735006  15.2685017
  29.9299987  59.3185006  13.2485017  29.1639987  58.6905006  13.7045017
  29.5109987  60.3005006  13.0305017  30.3999987  58.6895006  11.9875017
  30.7879987  57.7795006  12.1895017  29.6219987  58.5905006  11.3505017
  31.1089987  59.2715006  11.5645017  32.3149987  63.6605006  14.0895017
  32.9149987  63.6745006  13.0105017  31.1829987  64.3245006  14.2925017
  30.6849987  64.2345006  15.1665017  30.5799987  65.1255006  13.2325017
  30.6109987  64.5755006  12.2925017  29.1259987  65.4455006  13.5625017
  29.1039987  65.8835006  14.5605017  28.7779987  66.1805006  12.8365017
  28.2189987  64.2285006  13.5245017  28.1509987  63.8955006  12.4885017
  28.6809987  63.4465006  14.1275017  26.8299987  64.5185006  14.0535017
  26.3459987  65.6585006  13.8765017  26.2239987  63.6015006  14.6485017
  31.3789987  66.4025006  12.9705017  31.4069987  66.8995006  11.8445017
  32.0329987  66.9245006  14.0035017  31.8639987  66.5865006  14.9405017
  32.9509987  68.0445006  13.8275017  32.4389987  68.8595006  13.3165017
  33.4559987  68.5555006  15.1785017  33.3059987  67.7165006  15.8575017
  34.5189987  68.7865006  15.1165017  32.6979987  69.7775006  15.7035017
  31.6459987  69.6765006  15.4375017  32.8299987  69.8965006  17.2145017
  33.8819987  69.9985006  17.4805017  32.2819987  70.7735006  17.5595017
  32.4209987  69.0035006  17.6865017  33.1849987  71.0465006  15.0105017
  33.0189987  70.9615006  13.9365017  32.6349987  71.9055006  15.3955017
  34.2489987  71.1805006  15.2035017  34.1249987  67.6675006  12.9295017
  34.5549987  68.4625006  12.0965017  34.6359987  66.4545006  13.0955017
  34.3169987  65.8715006  13.8565017  35.7059987  65.9505006  12.2375017
  36.5459987  66.6435006  12.2885017  36.1719987  64.5855006  12.7195017
  35.3439987  63.8785006  12.6655017  36.9889987  64.2365006  12.0885017
  36.5179987  64.6625006  13.7505017  35.2609987  65.8725006  10.7725017
  36.0039987  66.2655006   9.8725017  34.0489987  65.3695006  10.5435017
  33.5169987  64.9975006  11.3175017  33.4799987  65.2655006   9.1925017
  34.1369987  64.6675006   8.5605017  32.1019987  64.5945006   9.2405017
  31.5019987  65.1405006   9.9685017  31.6569987  64.7005006   8.2515017
  32.1459987  63.1205006   9.6225017  32.6849987  62.5955006   8.8335017
  32.6959987  63.0305006  10.5595017  30.7649987  62.5095006   9.7855017
  29.8559987  63.1905006  10.3125017  30.5869987  61.3375006   9.3915017
  33.3739987  66.6255006   8.4845017  33.5899987  66.7195006   7.2725017
  33.0389987  67.6705006   9.2375017  32.7249987  67.5255006  10.1865017
  33.0699987  69.0415006   8.7165017  32.5009987  69.0895006   7.7875017
  32.4589987  70.0305006   9.7165017  32.9569987  69.7765006  10.6525017
  32.7509987  71.0355006   9.4105017  30.9439987  69.9795006   9.9155017
  30.6559987  68.9745006  10.2245017  30.5269987  70.9775006  10.9835017
  30.8149987  71.9825006  10.6745017  29.4459987  70.9345006  11.1195017
  31.0209987  70.7315006  11.9235017  30.2139987  70.2475006   8.6095017
  30.4949987  69.4935006   7.8745017  29.1379987  70.2055006   8.7785017
  30.4839987  71.2355006   8.2375017  34.4969987  69.4735006   8.3905017
  34.7309987  70.1405006   7.3845017  35.4409987  69.0935006   9.2495017
  35.1759987  68.6105006  10.0955017  36.8519987  69.4245006   9.0535017
  36.9119987  70.4965006   8.8635017  37.6529987  69.1075006  10.3115017
  37.6099987  68.0365006  10.5105017  38.6909987  69.4085006  10.1675017
  37.2319987  69.6505006  11.1575017  37.4549987  68.7085006   7.8365017
  38.2339987  69.3115006   7.0955017  37.0959987  67.4335006   7.6435017
  36.5139987  66.9835006   8.3355017  37.5489987  66.6365006   6.4855017
  38.6359987  66.5625006   6.4995017  36.9589987  65.2155006   6.5215017
  35.9009987  65.2975006   6.7685017  37.0679987  64.7605006   5.5365017
  37.6289987  64.3165006   7.5485017  38.6789987  64.6445006   8.1015017
  37.0219987  63.1615006   7.7965017  37.4179987  62.5205006   8.4695017
  36.1669987  62.9295006   7.3115017  37.1869987  67.2745006   5.1445017
  37.9969987  67.2755006   4.2145017  35.9659987  67.7925006   5.0515017
  35.3019987  67.6465006   5.7985017  35.5189987  68.5055006   3.8545017
  35.8759987  67.9865006   2.9645017  33.9899987  68.5745006   3.8005017
  33.6359987  68.7755006   4.8115017  33.7229987  69.4085006   3.1505017
  33.3439987  67.3015006   3.2815017  33.8759987  66.9955006   2.3805017
  33.4519987  66.5315006   4.0455017  31.8689987  67.4925006   2.9595017
  31.7169987  68.5175006   2.6205017  31.5949987  66.8025006   2.1615017
  31.0009987  67.2455006   4.1125017  30.7319987  66.2825006   4.2575017
  30.5449987  68.1695006   4.9625017  30.8639987  69.4545006   4.8325017
  31.4649987  69.7485006   4.0755017  30.5039987  70.1305006   5.4915017
  29.7569987  67.7965006   5.9655017  29.5109987  66.8235006   6.0755017
  29.4069987  68.4885006   6.6135017  36.1179987  69.9135006   3.7595017
  36.3399987  70.4125006   2.6545017  36.3769987  70.5405006   4.9115017
  36.1089987  70.0955006   5.7775017  36.9769987  71.8825006   4.9735017
  36.4079987  72.5345006   4.3105017  36.8959987  72.4385006   6.3905017
  37.4689987  71.8015006   7.0645017  37.3059987  73.4485006   6.4095017
  35.8549987  72.4635006   6.7125017  38.4289987  71.8875006   4.4925017
  38.8279987  72.7605006   3.7195017  39.2099987  70.9125006   4.9555017
  38.8569987  70.2735006   5.6535017  40.6039987  70.7765006   4.5315017
  41.0899987  71.7515006   4.5505017  41.3649987  69.8325006   5.4665017
  41.0249987  70.0375006   6.4815017  41.0919987  68.8135006   5.1915017
  42.8739987  69.9885006   5.3965017  43.2179987  69.5295006   4.4695017
  43.0959987  71.0555006   5.3775017  43.5829987  69.3465006   6.5705017
  43.3909987  68.1335006   6.7885017  44.3359987  70.0525006   7.2745017
  40.6979987  70.2855006   3.0845017  41.6129987  70.6685006   2.3565017
  39.7429987  69.4545006   2.6675017  39.0559987  69.1115006   3.3235017
  39.6969987  68.9555006   1.2865017  40.7059987  68.7385006   0.9365017
  38.8659987  67.6695006   1.2145017  39.2169987  66.9845006   1.9865017
  37.8209987  67.9195006   1.3995017  38.9859987  67.0515006  -0.0554983
  38.4569987  66.2505006  -0.0724983  39.1479987  69.9815006   0.2775017
  39.2159987  69.7505006  -0.9344983  38.6159987  71.1015006   0.7735017
  38.5899987  71.2235006   1.7755017  38.0129987  72.1425006  -0.0704983
  37.5209987  71.6895006  -0.9314983  36.9669987  72.9255006   0.7375017
  36.3079987  72.2235006   1.2475017  37.4979987  73.5265006   1.4755017
  36.1219987  73.8475006  -0.1214983  35.7449987  73.5085006  -1.2434983
  35.8039987  75.0185006   0.4145017  35.2429987  75.6745006  -0.1094983
  36.1239987  75.2485006   1.3445017  39.0479987  73.1105006  -0.6504983
  40.2549987  72.9365006  -0.4784983  38.6899987  74.0785006  -1.3174983
  56.9079987  96.4525006  75.1415017  55.9029987  96.7905006  75.3975017
  57.6029987  96.8745006  75.8675017  57.1799987  96.7875006  74.1415017
  57.0149987  94.8295006  75.1235017  56.7439987  94.4505006  76.1135017
  56.2549987  94.4995006  74.4215017  58.3719987  94.2605006  74.6525017
  58.6679987  94.7955006  73.7545017  59.1509987  94.3625006  75.4115017
  58.1759987  92.7985006  74.2845017  57.6499987  92.2775006  75.0915017
  57.5579987  92.8085006  73.3935017  59.4979987  92.0575006  73.9065017
  59.8509987  92.3995006  72.9425017  60.2989987  92.1755006  74.6365017
  59.1529987  90.5805006  73.7475017  58.7859987  90.2175006  74.7105017
  58.3219987  90.5625006  73.0485017  60.2559987  89.6825006  73.1825017
  60.3979987  90.0635006  72.1765017  61.1629987  89.8675006  73.7585017
  59.9929987  88.1195006  73.0915017  59.1809987  87.9735006  72.3745017
  60.8969987  87.7145006  72.6415017  59.7069987  87.3235006  74.4355017
  60.4539987  87.6525006  75.1435017  58.7409987  87.6525006  74.8125017
  59.7129987  85.7875006  74.3635017  60.7049987  85.4765006  74.0295017
  59.5809987  85.4095006  75.3755017  58.6189987  85.1685006  73.4445017
  57.6659987  85.6225006  73.6985017  58.8339987  85.4305006  72.4065017
  58.4809987  83.5895006  73.5615017  59.4819987  83.1635006  73.4765017
  58.0929987  83.3205006  74.5365017  57.5539987  82.9645006  72.4875017
  56.5649987  83.3865006  72.6255017  57.9349987  83.2705006  71.5085017
  57.3599987  81.4275006  72.5305017  56.9099987  81.1585006  73.4875017
  56.6599987  81.2055006  71.7375017  58.6949987  80.5915006  72.2985017
  59.3219987  81.1075006  71.5835017  59.2569987  80.4485006  73.2255017
  58.3089987  79.2325006  71.7365017  57.9839987  78.6125006  72.5685017
  57.4479987  79.3495006  71.0855017  59.4169987  78.4955006  70.9985017
  60.2549987  78.9755006  70.4865017  59.8549987  78.0665006  71.8835017
  58.8849987  77.4405006  70.1065017  57.9399987  76.7575006  70.4685017
  59.2569987  77.5385006  68.6985017  59.0849987  76.4175006  67.8285017
  58.8949987  75.4655006  68.2985017  58.2289987  76.7075006  67.2315017
  60.2949987  76.2315006  66.8985017  60.1809987  77.1855006  65.7015017
  58.9269987  77.0295006  65.0285017  57.8959987  78.2565006  64.8045017
  57.0729987  77.8315006  63.4845017  57.7299987  77.1965006  62.3845017
  58.1719987  78.2425006  61.3715017  58.8689987  77.5825006  60.1855017
  58.0129987  76.5065006  59.5365017  58.8229987  75.8035006  58.5995017
  58.7039987  76.0835006  57.0195017  59.3569987  74.8795006  56.3785017
  57.2399987  76.1615006  56.7315017  59.4309987  77.3905006  56.8195017
  57.4369987  75.5055006  60.5285017  56.4309987  74.7395006  59.8615017
  56.6449987  73.2205006  59.3735017  57.3359987  73.3285006  58.0355017
  57.4279987  72.4975006  60.4055017  55.2319987  72.6895006  59.2825017
  56.7949987  76.1925006  61.7275017  55.9299987  76.7765006  61.4385017
  56.4129987  75.2035006  62.6825017  56.2429987  74.2285006  62.2915017
  58.2209987  74.8275006  60.8375017  57.2059987  77.0165006  59.0285017
  59.7519987  77.0695006  60.5575017  59.1669987  78.5675006  59.1955017
  59.2509987  77.9265006  57.9295017  58.8509987  78.9445006  61.8375017
  57.0369987  78.9825006  60.9145017  57.3209987  79.1295006  59.9725017
  58.6259987  76.7585006  62.7985017  58.6209987  79.5315006  64.4715017
  56.9479987  78.3395006  65.9705017  60.2639987  78.1895006  66.0995017
  61.0099987  77.0015006  65.0375017  61.1769987  76.4645006  67.4765017
  60.4109987  74.8675006  66.4465017  60.5929987  73.8715006  67.4995017
  60.2699987  74.0045006  68.6955017  60.6049987  72.4655006  67.0315017
  60.4199987  72.4995006  65.9655017  59.7709987  71.9405006  67.5335017
  61.8659987  71.6625006  67.3795017  61.8289987  70.7525006  66.7995017
  61.9029987  71.4395006  68.4465017  63.1659987  72.3975006  66.9465017
  63.1919987  73.3355006  67.4765017  63.0139987  72.6455006  65.8945017
  64.5109987  71.6505006  67.0725017  65.4419987  72.1385006  66.8075017
  64.5689987  70.3865006  67.5095017  63.7029987  69.8445006  67.8695017
  65.8879987  69.6105006  67.5355017  66.5219987  69.9675006  66.7265017
  65.7359987  68.5415006  67.3895017  66.5679987  69.7705006  68.8255017
  66.9869987  70.7585006  69.0005017  66.6529987  68.7455006  69.7625017
  66.2409987  67.8025006  69.4435017  67.2619987  68.7295006  71.1835017
  66.5319987  68.3135006  71.8735017  67.4269987  69.7625006  71.4715017
  68.6259987  67.9655006  71.2835017  68.9209987  67.2905006  70.4985017
  69.4599987  68.0955006  72.3635017  70.3189987  67.4455006  72.3615017
  69.3599987  68.9605006  73.5655017  68.3179987  69.0955006  73.8275017
  69.7719987  69.9395006  73.3435017  70.0869987  68.3205006  74.7525017
  69.4779987  67.6485006  75.3315017  71.3479987  68.4795006  75.1005017
  71.6809987  67.8935006  75.9435017  72.4669987  69.3605006  74.4465017
  72.1809987  70.4095006  74.5095017  72.5789987  69.1195006  73.3975017
  73.8349987  69.1775006  75.1565017  73.5939987  69.2275006  76.2135017
  74.3969987  70.0755006  74.9125017  74.7179987  67.9175006  74.8725017
  74.3399987  67.0865006  75.4645017  75.7299987  68.1215006  75.2125017
  74.7589987  67.4925006  73.3375017  73.7449987  67.3735006  72.9705017
  75.2499987  66.5285006  73.2425017  75.4929987  68.5265006  72.4845017
  75.5149987  68.2295006  71.4405017  74.9999987  69.4905006  72.5515017
  76.5169987  68.6455006  72.8255017  51.6339987  12.3095006  75.4715017
  52.6399987  11.9735006  75.7265017  50.9409987  11.8925006  76.2025017
  51.3589987  11.9675006  74.4755017  51.5269987  13.9325006  75.4415017
  51.8009987  14.3185006  76.4275017  52.2839987  14.2575006  74.7345017
  50.1679987  14.4975006  74.9705017  49.8689987  13.9545006  74.0785017
  49.3919987  14.4015006  75.7325017  50.3619987  15.9565006  74.5895017
  50.8919987  16.4835006  75.3895017  50.9759987  15.9395006  73.6965017
  49.0389987  16.6945006  74.2105017  48.6829987  16.3455006  73.2505017
  48.2409987  16.5825006  74.9445017  49.3829987  18.1705006  74.0395017
  49.7539987  18.5405006  74.9985017  50.2119987  18.1835006  73.3375017
  48.2769987  19.0645006  73.4715017  48.1299987  18.6745006  72.4695017
  47.3729987  18.8855006  74.0525017  48.5409987  20.6265006  73.3665017
  49.3509987  20.7655006  72.6465017  47.6359987  21.0295006  72.9165017
  48.8319987  21.4325006  74.7035017  48.0879987  21.1085006  75.4175017
  49.7999987  21.1065006  75.0785017  48.8249987  22.9675006  74.6205017
  47.8319987  23.2765006  74.2875017  48.9599987  23.3535006  75.6285017
  49.9159987  23.5795006  73.6935017  50.8699987  23.1285006  73.9485017
  49.6979987  23.3095006  72.6585017  50.0539987  25.1595006  73.7975017
  49.0529987  25.5845006  73.7135017  50.4449987  25.4365006  74.7685017
  50.9769987  25.7765006  72.7155017  51.9659987  25.3555006  72.8535017
  50.5919987  25.4635006  71.7405017  51.1709987  27.3135006  72.7465017
  51.6239987  27.5895006  73.6995017  51.8689987  27.5295006  71.9495017
  49.8349987  28.1475006  72.5125017  49.2059987  27.6255006  71.8035017
  49.2759987  28.2975006  73.4395017  50.2189987  29.5025006  71.9395017
  50.5449987  30.1295006  72.7655017  51.0789987  29.3815006  71.2875017
  49.1079987  30.2335006  71.1985017  48.2689987  29.7485006  70.6925017
  48.6719987  30.6695006  72.0815017  49.6359987  31.2805006  70.2975017
  50.5819987  31.9665006  70.6515017  49.2589987  31.1715006  68.8915017
  49.4269987  32.2855006  68.0125017  49.6179987  33.2405006  68.4735017
  50.2809987  31.9915006  67.4155017  48.2129987  32.4635006  67.0845017
  48.3219987  31.5005006  65.8945017  49.5739987  31.6505006  65.2165017
  50.6039987  30.4225006  64.9985017  51.4209987  30.8365006  63.6725017
  50.7599987  31.4635006  62.5705017  50.3149987  30.4095006  61.5665017
  49.6129987  31.0595006  60.3775017  50.4659987  32.1305006  59.7175017
  49.6519987  32.8255006  58.7775017  49.7649987  32.5335006  57.1995017
  49.1089987  33.7315006  56.5515017  51.2279987  32.4525006  56.9075017
  49.0369987  31.2245006  57.0125017  51.0449987  33.1385006  60.7005017
  52.0489987  33.8995006  60.0245017  51.8329987  35.4145006  59.5255017
  51.1369987  35.2955006  58.1905017  51.0549987  36.1465006  60.5545017
  53.2459987  35.9445006  59.4255017  51.6929987  32.4615006  61.9025017
  52.5579987  31.8765006  61.6145017  52.0779987  33.4575006  62.8485017
  52.2459987  34.4295006  62.4505017  50.2619987  33.8185006  61.0065017
  51.2719987  31.6165006  59.2105017  48.7319987  31.5755006  60.7495017
  49.3109987  30.0665006  59.3965017  49.2219987  30.6975006  58.1265017
  49.6379987  29.7115006  62.0415017  51.4469987  29.6655006  61.1115017
  51.1599987  29.5115006  60.1715017  49.8649987  31.9025006  62.9855017
  49.8779987  29.1445006  64.6775017  51.5569987  30.3485006  66.1625017
  48.2399987  30.4995006  66.3005017  47.4909987  31.6805006  65.2315017
  47.3329987  32.2355006  67.6675017  48.0949987  33.8245006  66.6225017
  47.9179987  34.8285006  67.6685017  48.2449987  34.7055006  68.8645017
  47.9039987  36.2305006  67.1895017  48.0849987  36.1885006  66.1235017
  48.7399987  36.7595006  67.6845017  46.6449987  37.0365006  67.5355017
  46.6799987  37.9425006  66.9485017  46.6119987  37.2675006  68.6015017
  45.3429987  36.2985006  67.1125017  45.3189987  35.3645006  67.6505017
  45.4919987  36.0415006  66.0625017  43.9979987  37.0465006  67.2365017
  43.0669987  36.5565006  66.9775017  43.9409987  38.3135006  67.6645017
  44.8079987  38.8575006  68.0185017  42.6219987  39.0895006  67.6885017
  41.9839987  38.7255006  66.8855017  42.7729987  40.1575006  67.5335017
  41.9479987  38.9405006  68.9815017  41.5299987  37.9545006  69.1665017
  41.8669987  39.9725006  69.9105017  42.2789987  40.9135006  69.5825017
  41.2629987  40.0005006  71.3335017  41.9949987  40.4225006  72.0175017
  41.0999987  38.9705006  71.6315017  39.8989987  40.7645006  71.4315017
  39.5999987  41.4325006  70.6425017  39.0699987  40.6435006  72.5145017
  38.2109987  41.2925006  72.5095017  39.1749987  39.7885006  73.7235017
  40.2179987  39.6565006  73.9815017  38.7619987  38.8075006  73.5115017
  38.4529987  40.4375006  74.9085017  39.0639987  41.1135006  75.4815017
  37.1929987  40.2815006  75.2615017  36.8629987  40.8745006  76.1005017
  36.0709987  39.3955006  74.6175017  36.3569987  38.3475006  74.6865017
  35.9549987  39.6285006  73.5675017  34.7069987  39.5835006  75.3305017
  34.9519987  39.5425006  76.3865017  34.1439987  38.6835006  75.0955017
  33.8229987  40.8415006  75.0395017  34.2039987  41.6775006  75.6225017
  32.8119987  40.6405006  75.3855017  33.7749987  41.2545006  73.5015017
  34.7869987  41.3715006  73.1285017  33.2829987  42.2175006  73.4015017
  33.0369987  40.2135006  72.6585017  33.0099987  40.5035006  71.6125017
  33.5309987  39.2495006  72.7305017  32.0139987  40.0965006  73.0055017
  96.3419987  51.7435006  75.2515017  96.6799987  52.7495006  75.5025017
  96.7619987  51.0525006  75.9815017  96.6789987  51.4655006  74.2535017
  94.7199987  51.6375006  75.2305017  94.3389987  51.9135006  76.2185017
  94.3919987  52.3935006  74.5235017  94.1509987  50.2775006  74.7655017
  94.6889987  49.9765006  73.8715017  94.2509987  49.5035006  75.5295017
  92.6909987  50.4705006  74.3925017  92.1679987  51.0015006  75.1945017
  92.7039987  51.0835006  73.4985017  91.9499987  49.1465006  74.0195017
  92.2939987  48.7885006  73.0575017  92.0669987  48.3495006  74.7535017
  90.4729987  49.4905006  73.8565017  90.1079987  49.8625006  74.8175017
  90.4559987  50.3175006  73.1535017  89.5759987  48.3835006  73.2955017
  89.9599987  48.2345006  72.2915017  89.7589987  47.4805006  73.8775017
  88.0129987  48.6465006  73.1985017  87.8689987  49.4545006  72.4775017
  87.6079987  47.7405006  72.7525017  87.2149987  48.9405006  74.5395017
  87.5429987  48.1975006  75.2535017  87.5429987  49.9095006  74.9115017
  85.6789987  48.9335006  74.4645017  85.3689987  47.9395006  74.1355017
  85.2989987  49.0705006  75.4745017  85.0619987  50.0225006  73.5385017
  85.5149987  50.9775006  73.7885017  85.3269987  49.8025006  72.5025017
  83.4819987  50.1615006  73.6505017  83.0559987  49.1605006  73.5715017
  83.2109987  50.5555006  74.6225017  82.8589987  51.0815006  72.5695017
  83.2799987  52.0715006  72.7025017  83.1659987  50.6945006  71.5935017
  81.3219987  51.2755006  72.6085017  81.0509987  51.7305006  73.5625017
  81.1009987  51.9715006  71.8115017  80.4869987  49.9395006  72.3825017
  81.0049987  49.3085006  71.6725017  80.3419987  49.3835006  73.3125017
  79.1289987  50.3215006  71.8155017  78.5069987  50.6495006  72.6445017
  79.2469987  51.1795006  71.1605017  78.3929987  49.2095006  71.0805017
  78.8749987  48.3695006  70.5735017  77.9619987  48.7745006  71.9665017
  77.3409987  49.7365006  70.1835017  76.6569987  50.6835006  70.5395017
  77.4409987  49.3565006  68.7775017  76.3219987  49.5225006  67.9055017
  75.3689987  49.7145006  68.3725017  76.6119987  50.3755006  67.3045017
  76.1379987  48.3065006  66.9805017  77.0939987  48.4135006  65.7855017
  76.9399987  49.6645006  65.1055017  78.1669987  50.6935006  64.8785017
  77.7449987  51.5075006  63.5535017  77.1119987  50.8445006  62.4555017
  78.1599987  50.3975006  61.4465017  77.5029987  49.6935006  60.2635017
  76.4279987  50.5445006  59.6065017  75.7259987  49.7295006  58.6735017
  76.0089987  49.8385006  57.0935017  74.8069987  49.1815006  56.4525017
  76.0879987  51.3005006  56.7975017  77.3169987  49.1105006  56.8995017
  75.4249987  51.1265006  60.5945017  74.6599987  52.1285006  59.9195017
  73.1419987  51.9115006  59.4295017  73.2529987  51.2125006  58.0955017
  72.4169987  51.1355006  60.4635017  72.6109987  53.3245006  59.3295017
  76.1089987  51.7765006  61.7905017  76.6919987  52.6405006  61.4975017
  75.1189987  52.1635006  62.7415017  74.1439987  52.3305006  62.3485017
  74.7469987  50.3445006  60.9065017  76.9389987  51.3485006  59.0945017
  76.9889987  48.8135006  60.6415017  78.4889987  49.3885006  59.2775017
  77.8499987  49.2965006  58.0115017  78.8609987  49.7215006  61.9185017
  78.9009987  51.5285006  60.9855017  79.0499987  51.2395006  60.0445017
  76.6749987  49.9505006  62.8745017  79.4429987  49.9665006  64.5525017
  78.2479987  51.6485006  66.0395017  78.0969987  48.3325006  66.1865017
  76.9109987  47.5815006  65.1255017  76.3699987  47.4275006  67.5645017
  74.7749987  48.1875006  66.5265017  73.7769987  48.0125006  67.5775017
  73.9069987  48.3425006  68.7725017  72.3719987  47.9975006  67.1075017
  72.4079987  48.1775006  66.0415017  71.8459987  48.8345006  67.6045017
  71.5679987  46.7395006  67.4595017  70.6589987  46.7735006  66.8765017
  71.3419987  46.7085006  68.5265017  72.3039987  45.4365006  67.0355017
  73.2409987  45.4135006  67.5685017  72.5549987  45.5825006  65.9835017
  71.5559987  44.0915006  67.1665017  72.0439987  43.1595006  66.9065017
  70.2919987  44.0365006  67.6015017  69.7499987  44.9035006  67.9565017
  69.5159987  42.7175006  67.6325017  69.8749987  42.0785006  66.8285017
  68.4469987  42.8685006  67.4835017  69.6729987  42.0455006  68.9265017
  70.6599987  41.6285006  69.1065017  68.6459987  41.9655006  69.8615017
  67.7029987  42.3755006  69.5375017  68.6269987  41.3655006  71.2855017
  68.2089987  42.0985006  71.9705017  69.6589987  41.2025006  71.5775017
  67.8629987  40.0015006  71.3915017  67.1899987  39.7015006  70.6075017
  67.9909987  39.1745006  72.4755017  67.3419987  38.3155006  72.4765017
  68.8539987  39.2815006  73.6795017  68.9889987  40.3255006  73.9355017
  69.8329987  38.8675006  73.4625017  68.2109987  38.5625006  74.8695017
  67.5379987  39.1745006  75.4445017  68.3699987  37.3035006  75.2245017
  67.7829987  36.9755006  76.0685017  69.2519987  36.1805006  74.5785017
  70.3009987  36.4665006  74.6415017  69.0129987  36.0625006  73.5295017
  69.0679987  34.8165006  75.2955017  69.1159987  35.0635006  76.3515017
  69.9659987  34.2525006  75.0565017  67.8079987  33.9325006  75.0135017
  66.9759987  34.3145006  75.6005017  68.0109987  32.9225006  75.3605017
  67.3859987  33.8815006  73.4775017  67.2669987  34.8935006  73.1035017
  66.4229987  33.3895006  73.3835017  68.4219987  33.1425006  72.6305017
  68.1269987  33.1135006  71.5855017  69.3859987  33.6365006  72.6955017
  68.5409987  32.1205006  72.9785017  12.1999987  57.0185006  75.3615017
  11.8629987  56.0135006  75.6215017  11.7819987  57.7155006  76.0875017
  11.8599987  57.2885006  74.3625017  13.8219987  57.1245006  75.3345017
  14.2059987  56.8565006  76.3225017  14.1479987  56.3635006  74.6315017
  14.3879987  58.4805006  74.8575017  13.8479987  58.7735006  73.9625017
  14.2899987  59.2605006  75.6155017  15.8479987  58.2845006  74.4815017
  16.3729987  57.7595006  75.2865017  15.8329987  57.6645006  73.5925017
  16.5869987  59.6055006  74.0965017  16.2399987  59.9555006  73.1335017
  16.4729987  60.4085006  74.8255017  18.0629987  59.2605006  73.9315017
  18.4309987  58.8965006  74.8945017  18.0779987  58.4275006  73.2355017
  18.9579987  60.3625006  73.3585017  18.5709987  60.5025006  72.3545017
  18.7769987  61.2705006  73.9335017  20.5199987  60.0985006  73.2595017
  20.6609987  59.2845006  72.5445017  20.9229987  61.0005006  72.8045017
  21.3239987  59.8155006  74.5995017  20.9979987  60.5645006  75.3075017
  20.9969987  58.8495006  74.9795017  22.8589987  59.8215006  74.5205017
  23.1689987  60.8125006  74.1835017  23.2419987  59.6915006  75.5305017
  23.4729987  58.7255006  73.6005017  23.0209987  57.7725006  73.8595017
  23.2049987  58.9385006  72.5635017  25.0529987  58.5875006  73.7085017
  25.4789987  59.5885006  73.6195017  25.3269987  58.2025006  74.6825017
  25.6719987  57.6585006  72.6335017  25.2509987  56.6695006  72.7765017
  25.3609987  58.0375006  71.6555017  27.2089987  57.4655006  72.6685017
  27.4829987  57.0175006  73.6245017  27.4269987  56.7635006  71.8755017
  28.0429987  58.7995006  72.4295017  27.5229987  59.4255006  71.7165017
  28.1909987  59.3635006  73.3545017  29.3989987  58.4125006  71.8615017
  30.0239987  58.0905006  72.6905017  29.2789987  57.5495006  71.2135017
  30.1309987  59.5185006  71.1165017  29.6469987  60.3535006  70.6045017
  30.5659987  59.9605006  71.9975017  31.1799987  58.9845006  70.2195017
  31.8659987  58.0405006  70.5805017  31.0749987  59.3535006  68.8115017
  32.1899987  59.1805006  67.9365017  33.1449987  58.9915006  68.4005017
  31.8959987  58.3235006  67.3435017  32.3699987  60.3885006  67.0025017
  31.4089987  60.2725006  65.8105017  31.5609987  59.0165006  65.1405017
  30.3329987  57.9845006  64.9245017  30.7499987  57.1605006  63.6045017
  31.3789987  57.8145006  62.4995017  30.3269987  58.2545006  61.4905017
  30.9789987  58.9485006  60.3005017  32.0509987  58.0915006  59.6465017
  32.7489987  58.8995006  58.7045017  32.4599987  58.7775006  57.1265017
  33.6589987  59.4295006  56.4775017  32.3799987  57.3135006  56.8415017
  31.1509987  59.5045006  56.9315017  33.0579987  57.5185006  60.6355017
  33.8199987  56.5105006  59.9665017  35.3359987  56.7235006  59.4695017
  35.2199987  57.4125006  58.1305017  36.0659987  57.5085006  60.4955017
  35.8669987  55.3105006  59.3785017  32.3779987  56.8775006  61.8385017
  31.7939987  56.0105006  61.5545017  33.3729987  56.4985006  62.7895017
  34.3459987  56.3295006  62.3945017  33.7379987  58.3025006  60.9395017
  31.5389987  57.2825006  59.1425017  31.4939987  59.8325006  60.6675017
  29.9879987  59.2455006  59.3145017  30.6219987  59.3275006  58.0455017
  29.6279987  58.9335006  61.9595017  29.5839987  57.1185006  61.0405017
  29.4319987  57.3995006  60.0985017  31.8189987  58.7115006  62.9095017
  29.0559987  58.7095006  64.5965017  30.2559987  57.0395006  66.0935017
  30.4069987  60.3565006  66.2135017  31.5899987  61.0995006  65.1425017
  32.1399987  61.2715006  67.5805017  33.7319987  60.5045006  66.5435017
  34.7339987  60.6875006  67.5895017  34.6079987  60.3675006  68.7875017
  36.1369987  60.6985006  67.1145017  36.0979987  60.5105006  66.0495017
  36.6649987  59.8665006  67.6165017  36.9419987  61.9605006  67.4545017
  37.8489987  61.9225006  66.8695017  37.1719987  61.9995006  68.5205017
  36.2049987  63.2595006  67.0235017  35.2699987  63.2865006  67.5595017
  35.9509987  63.1055006  65.9735017  36.9529987  64.6045006  67.1425017
  36.4629987  65.5345006  66.8775017  38.2189987  64.6645006  67.5725017
  38.7629987  63.7995006  67.9325017  38.9949987  65.9835006  67.5905017
  38.6329987  66.6165006  66.7825017  40.0639987  65.8315006  67.4385017
  38.8429987  66.6655006  68.8805017  37.8559987  67.0845006  69.0615017
  39.8739987  66.7525006  69.8115017  40.8159987  66.3395006  69.4875017
  39.8979987  67.3645006  71.2305017  40.3169987  66.6365006  71.9195017
  38.8669987  67.5305006  71.5235017  40.6629987  68.7285006  71.3235017
  41.3329987  69.0215006  70.5345017  40.5389987  69.5645006  72.4025017
  41.1889987  70.4235006  72.3945017  39.6809987  69.4675006  73.6095017
  39.5469987  68.4255006  73.8745017  38.7009987  69.8795006  73.3925017
  40.3289987  70.1965006  74.7915017  41.0049987  69.5885006  75.3675017
  40.1719987  71.4575006  75.1375017  40.7629987  71.7925006  75.9765017
  39.2869987  72.5755006  74.4855017  38.2379987  72.2895006  74.5545017
  39.5219987  72.6855006  73.4355017  39.4739987  73.9445006  75.1915017
  39.4309987  73.7055006  76.2485017  38.5749987  74.5055006  74.9515017
  40.7319987  74.8275006  74.8985017  41.5669987  74.4515006  75.4865017
  40.5299987  75.8405006  75.2375017  41.1479987  74.8655006  73.3615017
  41.2649987  73.8505006  72.9955017  42.1109987  75.3565006  73.2595017
  40.1089987  75.5985006  72.5125017  40.3999987  75.6185006  71.4665017
  39.1449987  75.1055006  72.5855017  39.9919987  76.6235006  72.8525017
  54.3079987  54.4565006  94.0585017  54.3019987  54.4435006  91.0365017
  54.2969987  54.4335006  88.2245017  54.2909987  54.4205006  84.9605017
  99.6109987  45.6615006  95.3685017  99.6459987  44.5775006  95.4565017
  98.8059987  45.8885006  94.6795017  99.2649987  46.2445006  96.7445017
  99.1379987  47.3205006  96.6755017  98.3329987  45.8445006  97.1325017
 100.4489987  45.9365006  97.7865017 100.5129987  44.8555006  97.9105017
 101.7719987  46.4475006  97.2175017 101.7269987  47.5345006  97.2185017
 102.5919987  46.1695006  97.8735017 102.0399987  45.9165006  95.8145017
 103.1879987  45.3075006  95.4865017 103.8509987  44.9785006  96.2725017
 103.6499987  45.0355006  94.0785017 104.6569987  45.4245006  93.9515017
 103.7329987  43.9565006  93.9525017 102.7159987  45.6195006  92.9965017
 102.9309987  46.6825006  92.9205017 101.2669987  45.4225006  93.4425017
 101.2279987  44.3615006  93.6915017 100.9509987  46.1845006  94.7685017
 100.2659987  45.6765006  92.2815017  99.2799987  45.3265006  92.5715017
 100.1649987  46.7405006  92.1065017 100.6459987  44.9915006  90.9475017
 100.5809987  43.9095006  91.0485017  99.9019987  45.2765006  90.2125017
 102.0579987  45.3595006  90.5045017 102.9749987  44.9385006  91.6635017
 102.8079987  43.8675006  91.7915017 104.3659987  45.0825006  91.0885017
 104.7459987  46.0935006  91.2105017 105.0889987  44.4195006  91.5525017
 104.1439987  44.7455006  89.5995017 104.5699987  45.5425006  88.9975017
 104.6789987  43.8415006  89.3335017 102.6569987  44.5975006  89.3175017
 102.3639987  43.5525006  89.4205017 102.2079987  46.8595006  90.1415017
 103.2009987  47.0905006  89.7715017 102.0239987  47.5105006  90.9855017
 101.5039987  47.1385006  89.3645017 100.9049987  47.7155006  94.4865017
 101.7899987  48.0445006  93.9525017 100.8569987  48.2885006  95.4035017
 100.0349987  47.9865006  93.8995017 102.4549987  44.9665006  87.8495017
 102.7859987  45.9895006  87.6765017 100.9639987  44.8875006  87.5035017
 100.3839987  45.6355006  88.0265017 100.5559987  43.9125006  87.7565017
 100.7959987  45.0485006  86.4455017 103.2719987  44.0655006  86.8945017
 104.3199987  44.0195006  87.1705017 102.9129987  43.0365006  86.9055017
 103.1979987  44.5995006  85.5025017 102.5439987  45.4585006  85.4085017
 104.1739987  44.9135006  85.1355017 102.6859987  43.4825006  84.6455017
 101.8889987  42.9085006  85.1135017 102.9409987  44.2735006  85.3495017
 102.1629987  44.0815006  83.4335017 102.9859987  44.7525006  83.1925017
 100.8589987  44.8485006  83.2355017 100.8199987  45.7515006  83.8345017
 100.0029987  44.2335006  83.5035017 100.7389987  45.1425006  82.1965017
 103.2019987  44.9715006  83.1445017 103.3779987  45.6555006  83.9695017
 102.9789987  45.5645006  82.2625017 104.1299987  44.4365006  82.9545017
 100.1819987  46.8635006  98.8905017 100.8089987  46.7195006  99.5845017
 107.7479987  40.1985006  95.2945017 108.8149987  40.0365006  95.1575017
 107.2439987  39.4065006  94.7525017 107.4249987  40.0565006  96.8025017
 106.3499987  40.1055006  96.9425017 107.7439987  39.0895006  97.1775017
 108.0899987  41.1895006  97.6565017 109.1659987  41.0315006  97.5815017
 107.7549987  42.5545006  97.0885017 106.7229987  42.7685006  97.3575017
 108.3679987  43.2955006  97.5935017 107.9559987  42.6665006  95.5915017
 108.6379987  43.6815006  95.0845017 109.1249987  44.3955006  95.7315017
 108.7879987  43.9245006  93.6065017 108.6829987  44.9905006  93.4245017
 109.7929987  43.6665006  93.2725017 107.7509987  43.1465006  92.7885017
 106.7399987  43.5105006  92.9515017 107.8429987  41.6895006  93.2265017
 108.9059987  41.4475006  93.2285017 107.3739987  41.5645006  94.7065017
 107.1889987  40.6975006  92.2345017 107.4359987  39.6725006  92.4945017
 106.1079987  40.7605006  92.2685017 107.6509987  40.9485006  90.7845017
 108.7079987  40.6955006  90.7195017 107.1289987  40.2575006  90.1325017
 107.4669987  42.3835006  90.3525017 108.1219987  43.3105006  91.3395017
 109.1369987  42.9165006  91.4055017 108.2479987  44.7295006  90.7425017
 107.3669987  45.3325006  90.9485017 109.0999987  45.2815006  91.1255017
 108.3809987  44.4335006  89.2435017 107.6379987  45.0275006  88.7215017
 109.3419987  44.7125006  88.8295017 108.1069987  42.8985006  89.0385017
 109.0519987  42.3565006  89.0585017 106.0239987  42.6005006  90.2755017
 105.7819987  43.5925006  89.9115017 105.5349987  42.4855006  91.2335017
 105.5649987  41.8895006  89.5965017 105.8429987  41.7485006  94.7515017
 105.5389987  42.6475006  94.2265017 105.4819987  41.8385006  95.7675017
 105.3279987  40.9055006  94.3065017 107.4479987  42.5955006  87.6655017
 106.5199987  43.1615006  87.5985017 107.1059987  41.0965006  87.4865017
 106.3359987  40.7685006  88.1735017 107.9829987  40.4745006  87.6475017
 106.7389987  40.8925006  86.4875017 108.2959987  43.0965006  86.4705017
 108.2089987  44.1765006  86.4155017 109.3419987  42.8905006  86.6955017
 107.9529987  42.5325006  85.0765017 108.2869987  41.5065006  84.9775017
 106.8719987  42.5195006  84.9385017 108.5859987  43.3815006  83.9855017
 109.6449987  43.6225006  84.0605017 108.4209987  42.5365006  84.6535017
 108.2939987  42.9425006  82.5455017 108.5219987  41.8915006  82.3745017
 109.2929987  43.7765006  81.7425017 110.3199987  43.5475006  82.0035017
 109.1349987  44.8395006  81.9105017 109.1799987  43.5935006  80.6775017
 108.1469987  41.3685006  82.2845017 109.0379987  40.8315006  82.5945017
 107.9809987  41.1575006  81.2325017 107.3049987  40.9595006  82.8385017
 107.6879987  41.0635006  99.0025017 108.1279987  41.7165006  99.5275017
  24.9989987  94.1765006  95.7565017  25.8019987  93.4425006  95.7755017
  24.1099987  93.6505006  95.4285017  24.7809987  94.6705006  97.1525017
  23.9289987  95.3395006  97.2185017  24.5559987  93.8155006  97.7835017
  25.9829987  95.3795006  97.6895017  26.8249987  94.6865006  97.6865017
  26.3349987  96.5855006  96.8275017  25.6349987  97.4155006  96.9035017
  27.2819987  96.9405006  97.2255017  26.5159987  96.1695006  95.4015017
  27.7069987  96.3935006  94.8405017  28.4579987  96.9375006  95.3935017
  28.1009987  95.9465006  93.4745017  28.7449987  96.5755006  92.8645017
  28.6649987  95.0305006  93.6495017  26.7839987  95.6195006  92.7025017
  26.4149987  96.6405006  92.6445017  25.7759987  94.7495006  93.5035017
  26.4269987  93.9125006  93.7565017  25.3619987  95.3475006  94.7955017
  24.5689987  94.1135006  92.6365017  24.2459987  93.2105006  93.1455017
  23.7309987  94.7975006  92.6835017  24.8389987  93.7545006  91.1275017
  25.1819987  92.7295006  91.2515017  23.9329987  93.7055006  90.5345017
  25.9949987  94.6035006  90.3945017  27.1649987  95.1085006  91.3345017
  27.7719987  94.2245006  91.5385017  28.0139987  96.0105006  90.4215017
  27.5899987  97.0115006  90.4105017  29.0239987  96.1045006  90.8055017
  27.9859987  95.3835006  89.0325017  27.8099987  96.2535006  88.4075017
  28.8869987  94.9145006  88.6575017  26.7929987  94.4135006  88.9605017
  27.3999987  93.5135006  89.0505017  25.0329987  95.7155006  90.1425017
  25.4809987  96.5165006  89.5645017  24.6579987  96.1545006  91.0575017
  24.1729987  95.3595006  89.5835017  24.1729987  96.2025006  94.3945017
  24.4449987  96.9215006  93.6295017  23.7859987  96.7645006  95.2345017
  23.3569987  95.5975006  94.0165017  26.2109987  94.4135006  87.5345017
  25.7229987  95.3835006  87.4495017  25.3199987  93.4565006  87.1335017
  24.3789987  93.5275006  87.6635017  25.7199987  92.4585006  87.2965017
  25.0899987  93.5485006  86.0785017  27.1589987  93.9915006  86.3995017
  28.0679987  94.5825006  86.3665017  27.4789987  92.9535006  86.4875017
  26.4399987  94.1855006  85.0735017  25.7199987  93.4045006  84.8605017
  25.8919987  95.1265006  85.0435017  27.4939987  94.1965006  84.0135017
  27.7449987  93.1525006  83.8375017  26.7199987  94.1955006  84.7795017
  26.9329987  94.7545006  82.7645017  26.0979987  94.1095006  82.4935017
  27.8829987  94.8205006  81.5685017  28.2269987  93.8385006  81.2635017
  28.7579987  95.4225006  81.8015017  27.3919987  95.2735006  80.7115017
  25.9829987  93.8105006  82.3695017  26.4299987  92.8295006  82.2425017
  25.5189987  94.0885006  81.4285017  25.1929987  93.7205006  83.1115017
  25.6909987  95.7985006  99.0045017  26.4549987  96.2075006  99.3835017
  90.1469987  51.6505006  96.4435017  89.9499987  50.6035006  96.2235017
  89.1809987  52.1315006  96.5435017  90.8809987  51.7295006  97.7875017
  91.0019987  52.7565006  98.1165017  90.3189987  51.2175006  98.5625017
  92.2779987  51.0885006  97.6625017  92.1239987  50.0575006  97.3415017
  93.1459987  51.8075006  96.6205017  93.3539987  52.8375006  96.9015017
  94.1079987  51.3105006  96.5275017  92.4159987  51.7475006  95.2985017
  93.0359987  51.1885006  94.2585017  93.9999987  50.7165006  94.3695017
  92.4579987  51.1745006  92.8815017  93.2349987  51.5215006  92.2055017
  92.2559987  50.1435006  92.5925017  91.1709987  52.0355006  92.7045017
  91.5129987  53.0565006  92.5555017  90.2499987  51.9805006  93.9135017
  89.8159987  50.9855006  94.0165017  90.9559987  52.2805006  95.2685017
  88.9839987  52.8495006  93.6495017  88.2939987  52.7495006  94.4825017
  89.2539987  53.8975006  93.6105017  88.2279987  52.4885006  92.3565017
  87.7679987  51.5165006  92.5245017  87.4169987  53.1905006  92.2005017
  89.1539987  52.3935006  91.1285017  90.3689987  51.5525006  91.5135017
  89.9469987  50.5875006  91.7995017  91.1679987  51.3065006  90.2245017
  91.8479987  52.1315006  90.0265017  91.7749987  50.4095006  90.2795017
  90.1019987  51.2065006  89.1545017  90.2689987  51.8815006  88.3205017
  90.0739987  50.2075006  88.7385017  88.7679987  51.5435006  89.8725017
  88.3519987  50.5825006  90.1735017  89.5859987  53.8275006  90.7415017
  90.1929987  53.8395006  89.8435017  90.1599987  54.3125006  91.5205017
  88.7189987  54.4505006  90.5495017  90.9199987  53.8085006  95.5095017
  91.3479987  54.3495006  94.6725017  91.4859987  54.0865006  96.3895017
  89.9069987  54.1635006  95.6595017  87.8309987  52.1185006  88.8575017
  88.1759987  53.1065006  88.5545017  86.5489987  52.2615006  89.4255017
  86.5339987  52.9985006  90.2175017  86.1989987  51.3195006  89.8395017
  85.8239987  52.5835006  88.6875017  87.5819987  51.3365006  87.6095017
  88.4389987  50.8315006  87.1775017  86.7879987  50.5915006  87.6585017
  87.1699987  52.4565006  86.6395017  86.1739987  52.8295006  86.8475017
  87.8429987  53.3095006  86.7255017  87.2219987  51.9505006  85.3055017
  86.4419987  51.1935006  85.2435017  87.0579987  52.4765006  86.2455017
  87.0169987  53.0045006  84.0605017  85.9289987  53.0225006  84.0995017
  87.4569987  53.0365006  82.5125017  87.0279987  52.2155006  81.9485017
  88.5389987  52.9785006  82.4155017  87.1339987  53.9595006  82.0395017
  85.5309987  53.1445006  83.7955017  85.0759987  52.1835006  83.5755017
  85.3419987  53.8025006  82.9525017  85.0189987  53.5615006  84.6605017
  92.8929987  51.1155006  98.9255017  93.7329987  50.6815006  98.8785017
  77.3749987  59.5925006  80.1045017  77.8349987  59.0175006  79.3065017
  76.6419987  60.2565006  79.6545017  76.8389987  58.8985006  80.7455017
  78.4229987  60.3795006  80.8985017  78.9559987  61.0345006  80.2115017
  79.1569987  59.6755006  81.2805017  77.8469987  61.2165006  82.0475017
  77.3669987  60.5575006  82.7715017  77.0589987  61.8555006  81.6535017
  78.8699987  62.0945006  82.7655017  79.6029987  61.4365006  83.2275017
  78.3679987  62.6085006  83.5835017  79.6079987  63.1175006  81.9005017
  78.9629987  63.9485006  81.6285017  79.9349987  62.6655006  80.9655017
  80.8189987  63.6575006  82.6475017  81.1009987  64.6075006  82.1955017
  81.6529987  62.9805006  82.4775017  80.6279987  63.8495006  84.1385017
  80.5469987  62.8845006  84.6345017  79.6919987  64.3715006  84.3335017
  81.7449987  64.6125006  84.7345017  82.0239987  65.4695006  84.1235017
  82.6439987  64.0075006  84.8375017  81.2989987  65.1065006  86.1335017
  80.4389987  65.7505006  85.9605017  82.0979987  65.7565006  86.4885017
  80.9409987  64.0345006  87.2755017  81.6329987  63.2035006  87.1595017
  79.9499987  63.6405006  87.0515017  80.9659987  64.5305006  88.6935017
  81.9719987  64.8665006  88.9345017  80.7499987  63.7095006  89.3745017
  80.0389987  65.6305006  88.9545017  79.0429987  65.1955006  88.9735017
  80.0739987  66.2715006  88.0755017  80.2599987  66.4885006  90.1905017
  79.5699987  67.3305006  90.1755017  81.2589987  66.9145006  90.1955017
  80.0439987  65.7385006  91.4615017  80.1489987  66.4705006  92.2555017
  80.8979987  65.0705006  91.5355017  78.7729987  64.9285006  91.6915017
  78.6299987  64.2125006  90.8925017  77.9099987  65.5825006  91.7305017
  78.6749987  64.2615006  93.0815017  79.2079987  64.6515006  94.1035017
  77.7839987  63.3085006  93.0335017  77.6849987  62.5525006  94.2425017
  76.6369987  62.2925006  94.2475017  77.8979987  63.1785006  95.0975017
  78.5419987  61.2915006  94.2625017  78.0229987  60.4395006  93.8555017
  78.6799987  61.1385006  95.8165017  79.0999987  60.1525006  95.9645017
  77.6529987  61.1325006  96.1585017  79.4469987  62.1295006  96.5395017
  79.3709987  62.2775006  98.1295017  77.8729987  61.8445006  98.4485017
  76.7889987  62.7475006  98.2265017  75.8409987  62.2305006  98.1475017
  76.9369987  63.2655006  97.2835017  76.7259987  63.8685006  99.3015017
  75.8879987  64.4895006  99.0095017  77.6169987  64.4795006  99.3315017
  76.4549987  63.4585006 100.7325017  77.5569987  62.6385006 101.3025017
  77.7709987  61.8265006 100.6205017  77.2209987  62.2405006 102.2485017
  78.4179987  63.2705006 101.4605017  76.3919987  64.6965006 101.5575017
  75.7209987  65.3935006 101.0785017  77.3819987  65.1055006 101.6525017
  76.0069987  64.4185006 102.5285017  75.1569987  62.7475006 100.7775017
  74.3819987  63.3975006 100.4005017  74.9359987  62.4765006 101.7985017
  75.2129987  61.8555006 100.1705017  80.2949987  61.3275006  98.8005017
  79.5099987  63.6825006  98.5825017  79.7879987  61.3765006  93.4995017
  79.6919987  61.2545006  92.1645017  78.6639987  61.3835006  91.5335017
  80.9869987  60.9875006  91.3825017  81.2059987  61.9275006  90.8875017
  81.7719987  60.8515006  92.1225017  80.9499987  59.8155006  90.3965017
  81.9159987  59.3375006  90.2765017  80.2599987  59.0285006  90.6825017
  80.5259987  60.4145006  89.0735017  79.5829987  60.9405006  89.1995017
  81.2569987  61.1675006  88.7875017  80.4099987  59.4005006  87.9485017
  81.4189987  59.1635006  87.6165017  79.9949987  58.4765006  88.3435017
  79.5839987  59.8315006  86.7195017  79.8969987  60.8285006  86.4155017
  79.8359987  59.1695006  85.8935017  78.0469987  59.8135006  86.9175017
  77.7929987  58.8845006  87.4245017  77.7749987  60.6175006  87.5955017
  77.1959987  59.9425006  85.6285017  77.3829987  60.9075006  85.1715017
  77.5319987  59.1935006  84.9125017  75.7169987  59.7375006  85.8855017
  75.4519987  59.0075006  86.6345017  74.7149987  60.3825006  85.2835017
  73.6749987  60.1975006  85.5095017  74.9319987  61.4165006  84.2515017
  75.6349987  62.1525006  84.6375017  75.3839987  61.0055006  83.3555017
  73.6619987  62.1255006  83.8885017  73.0699987  61.4805006  83.2395017
  73.0759987  62.2635006  84.7955017  73.8649987  63.4715006  83.2165017
  72.9689987  64.0435006  83.4565017  74.6799987  63.9435006  83.7575017
  74.1239987  63.5575006  81.7585017  74.8219987  62.7855006  81.4415017
  73.2139987  63.4005006  81.1815017  74.6569987  64.8525006  81.4565017
  73.9369987  65.6565006  81.3165017  75.4289987  65.2545006  82.1065017
  75.2239987  64.5245006  80.1505017  75.4729987  65.4655006  79.6635017
  76.1699987  64.0185006  80.3325017  74.3989987  63.6765006  79.1785017
  75.0739987  63.3435006  78.3945017  74.1319987  62.7825006  79.7385017
  73.2449987  64.2065006  78.6035017  72.7299987  63.4565006  78.0115017
  73.4659987  65.0425006  77.9485017  72.5549987  64.5575006  79.3655017
  36.4449987  78.0055006  80.7845017  36.8079987  77.5555006  79.8655017
  36.1539987  79.0275006  80.5605017  35.5499987  77.4675006  81.0845017
  37.3979987  77.9655006  81.7695017  38.2779987  78.4795006  81.3865017
  37.6819987  76.9235006  81.8905017  37.0149987  78.5655006  83.1195017
  36.0029987  78.2745006  83.3995017  37.0099987  79.6515006  83.0575017
  37.9359987  78.1685006  84.1705017  38.8299987  78.7875006  84.1545017
  38.2769987  77.1425006  84.0405017  37.2649987  78.3115006  85.5455017
  36.6289987  77.4675006  85.7995017  36.6359987  79.1975006  85.6065017
  38.3549987  78.4135006  86.5515017  39.0589987  79.1785006  86.2295017
  38.9089987  77.4775006  86.5645017  37.8779987  78.7305006  87.9505017
  37.0989987  78.0375006  88.2635017  37.4369987  79.7255006  87.9965017
  39.0479987  78.6515006  88.9335017  39.9819987  78.4985006  88.3945017
  38.9319987  77.7905006  89.5895017  39.1569987  79.9285006  89.7865017
  39.1959987  80.7575006  89.0825017  40.1349987  79.8895006  90.2635017
  38.0789987  80.2155006  90.8565017  37.1479987  80.4185006  90.3315017
  38.3529987  81.1415006  91.3615017  37.8619987  79.1165006  91.9035017
  38.8049987  78.9125006  92.4055017  37.5749987  78.1895006  91.4105017
  36.8139987  79.4695006  92.9685017  35.9879987  80.0055006  92.5075017
  37.2539987  80.1525006  93.6925017  36.2889987  78.2295006  93.7175017
  35.5889987  78.5585006  94.4845017  37.1039987  77.7365006  94.2405017
  35.5609987  77.1895006  92.8175017  36.1929987  76.9975006  91.9565017
  34.6619987  77.6745006  92.4465017  35.1649987  75.8525006  93.4615017
  34.5609987  76.0215006  94.3435017  36.0489987  75.2945006  93.7465017
  36.3729987  75.0435006  93.7565017  37.0689987  74.5195006  92.9125017
  36.4719987  74.9405006  95.0505017  37.5279987  74.1615006  95.4805017
  37.8709987  73.5295006  94.6745017  37.2079987  73.5405006  96.3045017
  38.6439987  75.1205006  95.9155017  39.3499987  74.4335006  96.3515017
  38.3039987  76.2225006  96.9185017  37.5719987  75.8075006  97.5975017
  37.8299987  76.9975006  96.3295017  39.4099987  76.7545006  97.6425017
  39.7329987  76.6665006  99.2115017  38.7909987  77.6735006  99.8385017
  38.4309987  78.8225006  99.0995017  39.0949987  79.0885006  98.2875017
  38.3399987  79.7055006  99.7245017  37.0129987  78.5465006  98.5845017
  36.9889987  77.6085006  98.0445017  36.7129987  79.3395006  97.9155017
  35.9129987  78.4475006  99.6375017  36.2269987  77.3415006 100.5925017
  36.4409987  76.4465006 100.0255017  35.3579987  77.1795006 101.2125017
  37.0619987  77.6375006 101.2095017  35.8089987  79.7075006 100.4345017
  35.7579987  80.5415006  99.7515017  36.6619987  79.7835006 101.0845017
  34.8999987  79.6485006 101.0155017  34.6239987  78.1275006  98.9535017
  34.4049987  78.8975006  98.2285017  33.8339987  78.0865006  99.6875017
  34.7069987  77.1715006  98.4575017  39.5179987  75.2635006  99.6435017
  41.0359987  77.2785006  99.5065017  39.2149987  75.9055006  94.8345017
  40.1239987  75.5485006  93.9675017  40.5019987  74.5055006  93.5985017
  40.7149987  76.4285006  92.9835017  39.9019987  76.8595006  92.4075017
  41.1939987  77.2615006  93.4915017  41.7549987  75.6465006  92.0565017
  42.6919987  75.4475006  92.5645017  41.3859987  74.6825006  91.7195017
  42.0159987  76.5355006  90.8735017  41.0549987  76.8995006  90.5185017
  42.5489987  77.4055006  91.2495017  42.7909987  75.9565006  89.7435017
  42.8649987  76.6815006  88.9355017  43.8119987  75.7225006  90.0355017
  42.1579987  74.7415006  89.2175017  42.4949987  73.7815006  89.6035017
  41.0699987  74.7095006  89.2325017  42.6159987  74.8955006  87.7895017
  43.6439987  75.2465006  87.8645017  42.6639987  73.8895006  87.3825017
  41.8439987  75.7895006  86.8015017  41.2299987  76.3675006  87.4815017
  42.6339987  76.4565006  86.4595017  41.0549987  75.3365006  85.6155017
  41.6399987  75.4665006  84.7175017  39.8379987  74.8215006  85.4755017
  39.4069987  74.5185006  84.5325017  38.9499987  74.6105006  86.6405017
  39.6029987  74.7675006  87.4975017  38.2439987  75.4335006  86.6425017
  38.1989987  73.2965006  86.8465017  38.9249987  72.4865006  86.9065017
  37.7099987  73.3375006  87.8175017  37.1539987  72.9685006  85.7675017
  36.2299987  72.6555006  86.2535017  36.9139987  73.8695006  85.2095017
  37.6109987  71.8695006  84.7935017  38.5229987  72.2055006  84.3055017
  37.8809987  70.9845006  85.3665017  36.5669987  71.4905006  83.7435017
  36.9769987  70.6365006  83.2075017  35.7049987  71.1135006  84.2875017
  36.1199987  72.5285006  82.7065017  35.3369987  72.0945006  82.0875017
  35.6629987  73.3685006  83.2265017  37.2249987  73.0675006  81.7885017
  37.9989987  73.5715006  82.3625017  37.7169987  72.2295006  81.3005017
  36.6889987  74.0145006  80.7155017  37.4789987  74.3075006  80.0305017
  36.2769987  74.9215006  81.1445017  35.9049987  73.5395006  80.1325017
  33.2579987  48.7445006  82.4875017  34.2449987  48.6365006  82.0495017
  33.0469987  49.8065006  82.5685017  32.5389987  48.3185006  81.7925017
  33.1789987  48.0695006  83.8295017  33.8949987  48.4885006  84.5335017
  33.4079987  47.0095006  83.7555017  31.7689987  48.2645006  84.3735017
  31.0229987  48.0435006  83.6095017  31.6149987  49.3055006  84.6525017
  31.5089987  47.3915006  85.5985017  32.3619987  47.4435006  86.2715017
  31.4169987  46.3455006  85.3085017  30.2429987  47.8205006  86.3715017
  29.4129987  47.7625006  85.6725017  30.3749987  48.8765006  86.6015017
  29.8619987  47.0565006  87.6715017  28.9939987  47.5515006  88.1025017
  30.6729987  47.1905006  88.3835017  29.5659987  45.5535006  87.5155017
  30.4779987  45.0135006  87.2675017  28.8799987  45.3885006  86.6865017
  28.9639987  44.9675006  88.7925017  28.1239987  45.5975006  89.0815017
  29.7049987  45.0665006  89.5835017  28.5069987  43.5355006  88.7175017
  29.3189987  42.8115006  88.7555017  27.9339987  43.3025006  87.8215017
  27.6269987  43.3625006  89.9295017  27.1609987  42.3795006  89.8995017
  26.8139987  44.0865006  89.8975017  28.4039987  43.5355006  91.2405017
  28.2959987  44.5715006  91.5545017  29.4629987  43.3915006  91.0335017
  28.0079987  42.6725006  92.3535017  28.2069987  41.7355006  91.8375017
  26.9379987  42.8505006  92.2585017  28.3489987  42.5405006  93.8265017
  29.3679987  42.1885006  93.9775017  27.7049987  41.8485006  94.3625017
  28.2389987  43.8245006  94.4145017  27.2729987  44.2855006  94.2375017
  28.9889987  44.5065006  94.0225017  28.4549987  43.6765006  95.9085017
  29.3999987  43.1875006  96.1085017  27.6589987  43.0875006  96.3485017
  29.4959987  42.6165006  96.2995017  29.1859987  41.5685006  96.8405017
  30.7029987  42.9815006  95.9245017  31.7409987  42.1155006  96.4385017
  31.9769987  41.5445006  95.5525017  31.3969987  41.4425006  97.2105017
  32.9739987  42.9065006  96.9065017  33.8309987  42.2695006  96.7595017
  32.8739987  43.3305006  98.4265017  33.8099987  43.7845006  98.7235017
  32.7319987  42.4225006  98.9985017  31.7919987  44.2305006  98.6465017
  30.8019987  44.1385006  99.8815017  30.1289987  45.5685006  99.8925017
  29.5509987  46.2055006  98.7515017  28.4899987  46.0095006  98.6625017
  30.0119987  45.8245006  97.8445017  29.8399987  47.7395006  98.7445017
  29.3369987  48.2525006  99.5545017  29.4769987  48.1325006  97.8055017
  31.3019987  48.1565006  98.8355017  31.8809987  47.6075006 100.0895017
  31.2359987  47.8775006 100.9145017  32.8549987  48.0515006 100.2295017
  31.9819987  46.5375006  99.9895017  32.1099987  47.7015006  97.6645017
  31.5929987  47.9845006  96.7605017  32.2449987  46.6365006  97.7235017
  33.0659987  48.2025006  97.7175017  31.4389987  49.6285006  98.9515017
  30.9759987  50.0975006  98.0955017  32.4869987  49.8855006  98.9825017
  30.9579987  49.9655006  99.8585017  29.6759987  43.2005006  99.6335017
  31.5659987  44.0605006 101.1495017  33.1319987  43.9945006  95.9695017
  33.5969987  43.6635006  94.7325017  33.7169987  42.5395006  94.3435017
  34.0519987  44.7795006  93.7715017  34.6039987  45.5155006  94.3475017
  34.7559987  44.3805006  93.0455017  32.8489987  45.3845006  93.0875017
  32.2969987  44.6345006  92.5315017  32.1469987  45.8065006  93.7995017
  33.3259987  46.4675006  92.1265017  32.5029987  47.1435006  91.9115017
  34.0819987  47.0625006  92.6335017  33.9179987  45.9335006  90.8255017
  34.2759987  46.7625006  90.2175017  34.7809987  45.2985006  91.0125017
  32.8919987  45.1455006  90.0085017  32.8659987  44.0925006  90.2825017
  31.8839987  45.5245006  90.1665017  33.2269987  45.2715006  88.5635017
  32.4899987  44.8155006  87.9045017  33.3599987  46.2925006  88.2155017
  34.4759987  44.5755006  88.4315017  34.9889987  45.1095006  87.6405017
  35.0039987  44.8125006  89.3545017  34.5329987  43.2215006  88.2305017
  34.8789987  42.3915006  88.8275017  34.0539987  42.9535006  87.1015017
  34.2859987  41.8985006  87.1015017  33.2879987  43.4725006  85.7405017
  32.9299987  44.4015006  86.1795017  34.1809987  43.7265006  85.1805017
  32.1559987  42.9235006  84.7265017  32.4069987  43.2875006  83.7305017
  32.2649987  41.8415006  84.6895017  30.8139987  43.2445006  85.0205017
  30.5249987  42.7585006  85.9525017  30.7219987  44.3135006  85.1945017
  29.8669987  42.8325006  83.9345017  30.1999987  42.9635006  82.9075017
  29.4389987  41.8335006  83.9905017  28.8169987  43.8345006  84.2585017
  27.8599987  43.3225006  84.1755017  28.9279987  44.0885006  85.3095017
  28.7449987  45.0755006  83.4395017  29.6889987  45.6155006  83.4785017
  28.5809987  44.8305006  82.3915017  27.6479987  45.9985006  83.8905017
  26.6239987  45.6665006  83.7375017  27.7089987  46.2975006  84.9345017
  27.9099987  47.1625006  83.0545017  27.2469987  47.9815006  83.3155017
  27.7619987  46.9475006  82.0015017  28.9309987  47.5115006  83.1795017
  57.4709987  85.6005006  82.8895017  58.1569987  85.0865006  83.5555017
  57.7209987  86.6575006  82.9075017  57.6539987  85.2365006  81.8825017
  56.0129987  85.3675006  83.3035017  55.9249987  85.7075006  84.3335017
  55.8729987  84.2905006  83.3245017  54.8979987  86.0355006  82.4475017
  54.8769987  85.5975006  81.4495017  55.1289987  87.0895006  82.3095017
  53.4959987  85.9215006  83.0835017  53.2819987  84.8645006  83.2245017
  52.7609987  86.2855006  82.3665017  53.2999987  86.6455006  84.4255017
  52.4449987  87.3125006  84.3475017  54.1679987  87.2795006  84.6005017
  53.0979987  85.7125006  85.6395017  53.8839987  84.9595006  85.6685017
  52.1599987  85.1695006  85.5435017  53.0969987  86.4965006  86.9615017
  52.2179987  87.1365006  87.0065017  53.9589987  87.1615006  86.9925017
  53.1199987  85.5715006  88.2045017  53.8519987  84.7875006  88.0165017
  52.1529987  85.0755006  88.2635017  53.4319987  86.2465006  89.5645017
  52.6059987  86.9085006  89.8145017  54.3049987  86.8855006  89.4375017
  53.6799987  85.2735006  90.7355017  54.0689987  85.8695006  91.5575017
  54.4889987  84.6095006  90.4305017  52.4929987  84.4335006  91.2135017
  52.0109987  83.9105006  90.3905017  51.7169987  85.0335006  91.6865017
  53.0079987  83.3885006  92.2165017  53.8749987  83.7905006  92.7355017
  53.3599987  82.5195006  91.6645017  51.9509987  82.9305006  93.2295017
  51.3119987  82.1805006  92.7675017  51.2999987  83.7545006  93.5085017
  52.5529987  82.3225006  94.4915017  51.8619987  82.4075006  95.3245017
  53.4479987  82.8745006  94.7675017  52.9199987  80.8865006  94.3025017
  53.5839987  80.7735006  93.4545017  52.0319987  80.2895006  94.1315017
  53.5909987  80.3245006  95.5755017  53.0279987  79.7335006  96.4845017
  54.8739987  80.4125006  95.4545017  55.5899987  79.8825006  96.6045017
  56.4209987  79.3145006  96.2145017  54.9089987  79.2115006  97.1085017
  56.1009987  80.9925006  97.5735017  56.9099987  80.5725006  98.1475017
  54.9629987  81.4245006  98.5125017  55.4159987  81.9055006  99.3685017
  54.4909987  80.5065006  98.8395017  54.0029987  82.2885006  97.9045017
  52.7589987  82.9225006  98.6565017  53.4509987  84.1645006  99.3465017
  53.9169987  85.2275006  98.5315017  53.1359987  85.8715006  98.1495017
  54.4579987  84.8535006  97.6675017  54.9519987  86.0325006  99.3375017
  54.3889987  86.5805006 100.0825017  55.4619987  86.7385006  98.6985017
  56.0459987  85.2945006 100.1045017  56.8689987  84.5535006  99.1295017
  56.2139987  83.9675006  98.4995017  57.5269987  83.8975006  99.6795017
  57.4539987  85.2575006  98.5575017  56.8929987  86.3605006 100.7185017
  56.2479987  87.0585006 101.2305017  57.4619987  86.8455006  99.9455017
  57.5549987  85.8805006 101.4245017  55.5069987  84.3475006 101.1375017
  54.8959987  84.8965006 101.8385017  56.3309987  83.8855006 101.6595017
  54.9139987  83.5855006 100.6535017  51.7749987  83.4505006  97.6865017
  52.2929987  82.0255006  99.7355017  56.5379987  82.1765006  96.8975017
  57.7879987  82.2915006  96.4935017  58.7449987  81.6615006  96.9085017
  57.8139987  83.4715006  95.5255017  57.5089987  84.3235006  96.1245017
  58.8579987  83.6425006  95.2745017  56.9519987  83.3225006  94.2495017
  56.0049987  82.8575006  94.5015017  56.7079987  84.2985006  93.8415017
  57.6579987  82.4775006  93.1875017  58.6589987  82.8775006  93.0445017
  57.7859987  81.4805006  93.6015017  56.9439987  82.3585006  91.8425017
  55.8849987  82.1835006  92.0265017  57.0069987  83.2985006  91.2985017
  57.4759987  81.2195006  90.9365017  58.5099987  81.4325006  90.6725017
  57.4959987  80.3035006  91.5235017  56.6619987  80.9645006  89.6505017
  56.1329987  81.8875006  89.4195017  57.3599987  80.7985006  88.8345017
  55.6549987  79.7935006  89.6845017  55.4439987  79.4565006  88.6765017
  56.1029987  78.9475006  90.2035017  54.3869987  80.1845006  90.4045017
  54.4939987  80.5655006  91.4095017  53.1559987  80.1155006  89.9125017
  52.3269987  80.4365006  90.5265017  52.7579987  79.6325006  88.5565017
  53.4519987  78.8495006  88.2575017  51.7739987  79.1765006  88.5735017
  52.7899987  80.7215006  87.5035017  52.0939987  81.5285006  87.7295017
  53.7749987  81.1795006  87.4375017  52.4339987  80.1055006  86.1585017
  53.1329987  79.3175006  85.8805017  51.4479987  79.6485006  86.1645017
  52.4759987  81.1965006  85.1185017  51.4899987  81.6535006  85.0695017
  53.1559987  81.9755006  85.4595017  52.8979987  80.7335006  83.7455017
  53.5759987  79.8885006  83.8445017  52.0369987  80.3605006  83.1985017
  53.7079987  81.9635006  82.8155017  53.0899987  82.8535006  82.7185017
  54.6239987  82.2845006  83.3075017  54.0779987  81.4365006  81.3455017
  53.4729987  80.6435006  80.9125017  54.1589987  82.2015006  80.5765017
  55.3959987  80.9305006  81.6355017  55.8859987  80.5895006  80.7285017
  55.3659987  80.0925006  82.3235017  56.0209987  81.7005006  82.0805017
  78.4659987  38.8275006  82.1875017  78.7719987  39.7995006  81.8145017
  77.4329987  38.9075006  82.5135017  78.4949987  38.1295006  81.3555017
  79.3439987  38.3745006  83.2935017  79.3079987  39.1265006  84.0795017
  80.3649987  38.3705006  82.9215017  79.0029987  37.0415006  83.8735017
  79.7259987  36.7715006  84.6425017  79.0869987  36.2795006  83.1005017
  77.5999987  36.9815006  84.4605017  76.9219987  37.5815006  83.8585017
  77.5809987  37.4155006  85.4585017  77.0719987  35.5715006  84.5195017
  77.0429987  35.0595006  83.5615017  76.0689987  35.4965006  84.9365017
  78.0349987  34.8615006  85.4205017  78.2759987  35.5105006  86.2605017
  78.9669987  34.6995006  84.8845017  77.5569987  33.6255006  85.9075017
  76.9969987  33.0845006  85.1465017  76.8769987  33.7615006  86.7475017
  78.7989987  32.7415006  86.3745017  79.6769987  33.1665006  85.8905017
  78.6569987  31.7555006  85.9365017  79.0569987  32.6005006  87.7965017
  78.1249987  32.3725006  88.3085017  79.3969987  33.5555006  88.1955017
  80.1059987  31.5055006  88.1255017  81.0579987  31.6365006  87.6155017
  79.7769987  30.4915006  87.9015017  80.2919987  31.6455006  89.5915017
  79.4289987  31.2595006  90.1305017  80.3919987  32.6885006  89.8875017
  81.4769987  30.9045006  90.0275017  82.3799987  31.3385006  89.6055017
  81.4339987  29.8785006  89.6655017  81.5649987  30.8815006  91.4975017
  82.5059987  30.3565006  91.6525017  80.7789987  30.1835006  91.7715017
  81.5279987  32.0725006  92.4515017  81.8539987  31.7725006  93.4415017
  80.5019987  32.4185006  92.5495017  82.3829987  33.2285006  91.9745017
  82.0969987  33.5235006  90.9725017  83.4289987  32.9465006  91.9685017
  82.9099987  33.8555006  93.1715017  83.5019987  33.3475006  94.0845017
  82.4819987  35.0885006  92.9865017  82.6189987  36.0685006  93.9055017
  82.4159987  36.8705006  93.2125017  83.6569987  36.1105006  94.2005017
  81.7339987  36.1705006  95.0765017  82.1999987  37.0485006  95.4925017
  81.4689987  35.0935006  96.2345017  82.4369987  34.8835006  96.6685017
  81.1289987  34.2135006  95.7025017  80.5349987  35.4525006  97.2495017
  80.2619987  34.2265006  98.2405017  79.4409987  34.9705006  99.3195017
  78.2519987  35.4565006  98.7565017  78.3839987  35.6135006  97.6935017
  78.0519987  36.4325006  99.1895017  77.0609987  34.6705006  99.0235017
  77.1799987  33.6875006  98.5845017  76.1839987  35.1365006  98.5985017
  76.7369987  34.4315006 100.4965017  77.8429987  33.7105006 101.1955017
  78.0969987  32.8295006 100.6225017  77.4859987  33.4185006 102.1715017
  78.6849987  34.3785006 101.3025017  76.3369987  35.6665006 101.2395017
  75.5699987  36.1735006 100.6745017  77.2019987  36.2905006 101.3755017
  75.9469987  35.3545006 102.1975017  75.5369987  33.6395006 100.4745017
  74.7639987  34.1795006  99.9475017  75.2189987  33.4495006 101.4885017
  75.7329987  32.7015006  99.9755017  79.3399987  33.4545006  97.4115017
  81.4409987  33.6295006  98.9035017  80.5189987  36.5535006  94.4855017
  80.5799987  37.4305006  93.5155017  81.3529987  38.3405006  93.3415017
  79.7859987  36.9155006  92.4215017  80.2249987  36.0115006  92.0135017
  78.7759987  36.6465006  92.7205017  79.7739987  38.0415006  91.4155017
  79.4209987  38.9655006  91.8595017  80.7649987  38.2545006  91.0265017
  78.8559987  37.6545006  90.2895017  77.8429987  37.5985006  90.6795017
  78.8599987  38.4725006  89.5735017  79.2069987  36.3595006  89.5525017
  78.9509987  35.5335006  90.2135017  78.5599987  36.2645006  88.6835017
  80.6609987  36.1875006  89.1075017  81.2909987  36.8815006  89.6595017
  80.9919987  35.1895006  89.3875017  80.8919987  36.3755006  87.6115017
  80.1739987  35.8015006  87.0285017  80.7779987  37.4115006  87.3045017
  82.3079987  35.9155006  87.2645017  83.0719987  36.5625006  87.6785017
  82.5129987  34.9165006  87.6465017  82.3819987  35.8815006  85.7715017
  82.3929987  36.8725006  85.3425017  82.4449987  34.8715006  84.9405017
  82.4989987  35.0245006  83.8725017  82.4549987  33.4365006  85.3515017
  82.9519987  33.3845006  86.3185017  81.4409987  33.0875006  85.5115017
  83.1769987  32.4825006  84.3885017  84.2419987  32.6945006  84.4765017
  83.0329987  31.4805006  84.7895017  82.7749987  32.4965006  82.9185017
  82.8909987  33.4855006  82.4765017  83.3789987  31.8225006  82.3175017
  81.3949987  32.1015006  82.8395017  81.2919987  31.2485006  83.5065017
  80.8179987  32.9085006  83.2875017  80.8019987  31.7605006  81.4495017
  80.9979987  32.6605006  80.8695017  81.4819987  31.0055006  81.0655017
  79.2659987  31.3155006  81.1755017  78.5459987  32.0785006  81.4665017
  79.0709987  31.1005006  80.1265017  78.9629987  29.9305006  82.0655017
  79.5299987  29.1385006  81.5815017  79.4629987  30.1145006  83.0145017
  77.6249987  29.4695006  82.3295017  77.6369987  28.6105006  82.9925017
  77.1119987  29.1715006  81.4215017  77.0309987  30.2455006  82.8045017
  54.1009987  24.4965006  79.3985017  54.5329987  23.7825006  78.7045017
  53.0229987  24.4795006  79.2635017  54.3119987  24.1475006  80.4055017
  54.5599987  25.6395006  79.2155017  54.3509987  26.0355006  78.2235017
  55.6369987  25.6945006  79.3455017  53.8819987  26.4805006  80.2275017
  52.8239987  26.2185006  80.2565017  53.9269987  27.5165006  79.8975017
  54.4619987  26.3955006  81.6415017  55.5489987  26.4445006  81.6475017
  54.1989987  25.4755006  82.1615017  53.9199987  27.5815006  82.4135017
  52.9349987  27.3335006  82.8015017  53.7759987  28.4055006  81.7165017
  54.8109987  28.0515006  83.5775017  54.5349987  29.0745006  83.8255017
  55.8399987  28.0905006  83.2255017  54.7419987  27.1785006  84.8565017
  55.5089987  26.4105006  84.7795017  53.7869987  26.6555006  84.8535017
  54.9069987  27.9295006  86.1915017  54.2539987  28.8015006  86.1995017
  55.9239987  28.3105006  86.2705017  54.5949987  27.0465006  87.4255017
  55.2099987  26.1495006  87.3925017  53.5609987  26.7075006  87.3755017
  54.8279987  27.7795006  88.7705017  53.9809987  28.4465006  88.9155017
  55.7009987  28.4185006  88.6405017  55.0259987  26.9035006  90.0145017
  55.8559987  26.2145006  89.8765017  54.1519987  26.2865006  90.2175017
  55.3219987  27.7755006  91.2355017  54.4569987  28.3935006  91.4625017
  56.1319987  28.4625006  90.9965017  55.7229987  26.9535006  92.4705017
  56.5339987  26.2775006  92.2065017  54.9009987  26.3265006  92.8035017
  56.1779987  27.7925006  93.5995017  57.1009987  28.3395006  93.4375017
  56.2909987  27.2555006  94.5375017  55.0619987  28.7525006  93.7375017
  54.1239987  28.2275006  93.8665017  54.9919987  29.3785006  92.8555017
  54.0579987  28.6085006  94.7475017  53.9829987  29.2245006  95.8085017
  53.2629987  27.9165006  94.0905017  52.1229987  27.5825006  94.8025017
  51.3319987  27.8425006  94.1155017  52.0749987  28.2375006  95.6605017
  52.0039987  26.1855006  95.2055017  50.9739987  25.8735006  95.2485017
  52.6699987  25.9745006  96.5705017  52.5029987  24.9745006  96.9485017
  52.2769987  26.6855006  97.2855017  54.0369987  26.1975006  96.3615017
  55.0139987  26.3035006  97.5675017  54.4709987  25.1545006  98.5575017
  54.8269987  25.3055006  99.9345017  54.3639987  26.1785006 100.3765017
  55.8999987  25.4515006 100.0155017  54.5239987  24.0275006 100.7715017
  54.8899987  24.2175006 101.7725017  55.0879987  23.2105006 100.3455017
  53.1099987  23.5125006 100.9405017  52.4179987  24.3835006 101.9215017
  53.0339987  24.4635006 102.8065017  51.4769987  23.9185006 102.1745017
  52.2369987  25.3465006 101.4685017  52.4069987  23.5425006  99.6255017
  53.0349987  23.0635006  98.8905017  52.2009987  24.5645006  99.3605017
  51.4839987  22.9925006  99.7395017  53.1069987  22.1065006 101.4485017
  53.6499987  21.4775006 100.7585017  52.0869987  21.7605006 101.5275017
  53.5769987  22.0735006 102.4215017  56.3099987  25.9145006  97.0335017
  54.8769987  27.5965006  98.2725017  52.6399987  25.4145006  94.1465017
  51.9639987  25.4995006  92.9995017  50.8759987  26.0975006  92.9755017
  52.5779987  24.2225006  92.0095017  53.5859987  24.5975006  91.8655017
  52.6599987  23.4245006  92.7435017  51.9049987  23.6585006  90.5745017
  50.8709987  23.6575006  90.9025017  52.0349987  24.5665006  89.9935017
  52.1229987  22.5735006  89.7885017  52.3109987  21.6045006  90.2435017
  51.4349987  22.3935006  88.9655017  53.3339987  23.1085006  89.2595017
  53.5549987  24.1285006  89.5685017  54.2399987  22.5345006  89.4355017
  53.0479987  23.1145006  87.8185017  52.5349987  22.1985006  87.5335017
  52.3629987  23.9295006  87.5905017  54.3259987  23.2815006  86.9495017
  54.9959987  23.9615006  87.4735017  54.8399987  22.3265006  86.8935017
  54.0939987  23.7965006  85.5265017  53.4239987  24.6125006  85.2825017
  54.9019987  23.8345006  84.7965017  53.4519987  22.5705006  85.4135017
  53.9909987  21.6645006  85.6465017  52.1889987  22.4415006  85.0425017
  51.8889987  21.4055006  85.1045017  51.0849987  23.3815006  84.5655017
  50.5379987  23.5105006  85.4975017  51.6309987  24.3045006  84.4035017
  49.9979987  23.1735006  83.3575017  49.3159987  24.0135006  83.4835017
  50.5819987  23.3875006  82.4645017  49.2039987  21.9075006  83.1395017
  49.8959987  21.0775006  83.2815017  48.4799987  21.8415006  83.9475017
  48.5119987  21.7475006  81.8455017  48.6629987  20.6905006  81.6395017
  47.4649987  21.8565006  82.1225017  48.7899987  22.5735006  80.5805017
  47.8749987  22.6045006  79.9915017  48.9889987  23.6005006  80.8735017
  49.8749987  22.0775006  79.7095017  50.7229987  22.7255006  79.9245017
  50.1299987  21.1005006  80.1165017  49.7399987  21.9545006  78.2515017
  50.6229987  21.7835006  77.6405017  48.9859987  21.2625006  77.8825017
  49.2929987  23.2365006  78.0595017  49.0199987  23.3985006  77.0205017
  50.0479987  23.9715006  78.3155017  48.4159987  23.4395006  78.6675017
  71.9799987  32.9325006  79.3585017  71.7319987  33.2295006  78.3445017
  72.9199987  32.3885006  79.3245017  72.1439987  33.8375006  79.9365017
  70.8469987  32.0625006  79.9875017  70.7359987  31.2435006  79.2795017
  69.9659987  32.6885006  79.8705017  70.9059987  31.4925006  81.4155017
  71.3739987  32.1725006  82.1275017  71.4749987  30.5655006  81.4645017
  69.5709987  31.2255006  81.8305017  69.0629987  30.4885006  81.2125017
  68.9209987  32.0985006  81.8545017  69.7109987  30.6745006  83.2135017
  70.5189987  29.9485006  83.2605017  68.8039987  30.1415006  83.4955017
  69.9799987  31.7795006  84.2275017  69.2219987  32.5575006  84.1525017
  70.9329987  32.2625006  84.0215017  69.9939987  31.2235006  85.6505017
  70.7549987  30.4505006  85.7415017  69.0429987  30.7415006  85.8725017
  70.2599987  32.3215006  86.6895017  69.4079987  33.0005006  86.6785017
  71.1149987  32.9015006  86.3475017  70.5109987  31.8515006  88.1225017
  71.5259987  31.4805006  88.2445017  69.8519987  31.0265006  88.3895017
  70.2749987  33.0305006  89.1005017  69.3209987  33.4985006  88.8675017
  71.0369987  33.7915006  88.9365017  70.3019987  32.5955006  90.5845017
  71.3369987  32.3265006  90.7845017  69.7339987  31.6675006  90.6315017
  69.8189987  33.5485006  91.7085017  68.7579987  33.7585006  91.5945017
  70.3289987  34.5065006  91.6235017  70.0989987  32.9595006  93.1195017
  69.7909987  33.7155006  93.8405017  71.1739987  32.8515006  93.2315017
  69.4189987  31.6335006  93.5035017  69.8249987  30.8265006  92.9035017
  68.3619987  31.7045006  93.2615017  69.5569987  31.2745006  94.9945017
  69.1879987  32.0815006  95.6145017  70.5949987  31.0915006  95.2445017
  70.5289987  30.1455006  95.1765017  71.0039987  29.3935006  94.3385017
  70.5619987  29.9825006  96.4535017  71.4109987  28.9615006  96.7535017
  71.3659987  28.3125006  95.8925017  71.0969987  28.4105006  97.6285017
  72.8079987  29.5005006  96.9285017  73.2329987  28.6605006  97.4525017
  72.8659987  30.6525006  97.7415017  73.7359987  30.5795006  98.3795017
  71.9789987  30.6405006  98.3625017  72.9139987  31.8355006  96.9745017
  72.0639987  32.8665006  97.7145017  70.8379987  32.0295006  98.3295017
  70.0329987  32.7145006  99.2835017  69.3789987  33.4055006  98.7685017
  70.6969987  33.3175006  99.8965017  69.2419987  31.8415006 100.2815017
  68.3519987  31.4715006  99.7875017  68.9449987  32.4715006 101.1075017
  69.9029987  30.6295006 100.9015017  70.0359987  29.6055006  99.8395017
  69.0729987  29.4735006  99.3645017  70.3419987  28.6805006 100.3055017
  70.7909987  29.9245006  99.1375017  71.2719987  30.8975006 101.4195017
  71.2369987  31.7785006 102.0425017  71.9419987  31.0295006 100.5885017
  71.5689987  30.0405006 102.0065017  69.0529987  30.0655006 101.9985017
  68.8889987  30.8255006 102.7475017  69.5609987  29.2225006 102.4435017
  68.1059987  29.7425006 101.5915017  72.9189987  33.2625006  98.8615017
  71.6089987  33.8855006  96.7685017  73.6739987  29.8865006  95.6595017
  75.0259987  29.7185006  95.0985017  76.0759987  29.2185006  95.3975017
  75.0919987  29.9315006  93.7755017  75.9929987  29.5455006  93.3105017
  74.2639987  29.5415006  93.1895017  75.0739987  31.3965006  93.8035017
  74.2299987  31.8005006  94.3515017  75.9599987  31.8395006  94.2465017
  74.9669987  31.8005006  92.3815017  73.9289987  31.7395006  92.0635017
  75.2489987  32.8475006  92.2985017  75.8549987  30.9795006  91.4385017
  76.9019987  31.2055006  91.6325017  75.7369987  29.9125006  91.6125017
  75.5679987  31.2705006  89.9905017  75.8819987  32.2925006  89.7885017
  76.2229987  30.6305006  89.4015017  74.1169987  31.0745006  89.5015017
  73.7739987  30.1075006  89.8655017  73.4849987  31.8215006  89.9735017
  73.9099987  31.1475006  87.9735017  74.4729987  30.2725006  87.6695017
  72.8579987  30.8715006  87.9115017  74.1569987  32.2915006  87.0535017
  74.5009987  33.1965006  87.5305017  74.0129987  32.3205006  85.7025017
  74.2409987  33.2445006  85.1905017  73.5639987  31.1935006  84.7805017
  73.0989987  30.4625006  85.4405017  72.7709987  31.5815006  84.1505017
  74.6019987  30.4615006  83.9045017  75.1309987  31.2055006  83.3095017
  75.3429987  30.0225006  84.5695017  74.0639987  29.4085006  83.0135017
  73.8749987  28.5085006  83.5985017  73.1009987  29.7215006  82.6195017
  74.9729987  29.0785006  81.8915017  74.8219987  29.9005006  81.1945017
  75.9689987  29.2135006  82.3105017  74.9189987  27.8035006  81.1785017
  75.6379987  27.8185006  80.3615017  75.2329987  26.9965006  81.8355017
  73.6059987  27.5065006  80.6155017  72.8339987  28.1675006  81.0045017
  73.5899987  27.6275006  79.5335017  73.2349987  26.1105006  80.9365017
  73.4959987  26.0855006  81.9915017  72.1529987  26.2205006  80.9015017
  73.5949987  24.8485006  80.3205017  73.0549987  24.0265006  80.7815017
  74.6539987  24.6375006  80.4185017  73.3549987  24.8485006  79.2615017
  65.0309987  29.5385006  79.3255017  64.4839987  28.6035006  79.2655017
  65.9129987  29.3675006  79.9355017  65.3679987  29.7895006  78.3235017
  64.1729987  30.6405006  79.9025017  63.8409987  30.2615006  80.8675017
  63.2929987  30.6635006  79.2645017  64.7319987  32.0585006  80.0825017
  63.9329987  32.6865006  80.4765017  64.9579987  32.4455006  79.0905017
  65.9499987  32.2125006  80.9405017  66.8519987  31.9965006  80.3725017
  65.9449987  31.5135006  81.7755017  66.0389987  33.6155006  81.4675017
  66.2979987  34.2585006  80.6305017  66.8909987  33.6365006  82.1445017
  64.8359987  34.1865006  82.1665017  63.9739987  34.1705006  81.5015017
  65.0079987  35.2315006  82.4155017  64.4999987  33.4035006  83.4565017
  63.8869987  32.5765006  83.1025017  63.8289987  34.0715006  83.9945017
  65.5939987  32.8525006  84.4515017  66.4209987  33.5595006  84.5005017
  66.0069987  31.9275006  84.0535017  65.0569987  32.5975006  85.8785017
  64.5179987  31.6535006  85.8435017  64.3099987  33.3665006  86.0715017
  66.0869987  32.5655006  87.0655017  66.7739987  33.4055006  86.9865017
  66.6989987  31.6655006  87.0115017  65.3559987  32.6035006  88.4335017
  64.8299987  31.6545006  88.5125017  64.5869987  33.3685006  88.3475017
  66.1559987  32.8285006  89.7395017  66.6739987  33.7825006  89.6835017
  66.9299987  32.0665006  89.8135017  65.2709987  32.7705006  91.0315017
  64.5669987  33.5985006  90.9715017  65.9049987  32.9715006  91.8905017
  64.4629987  31.4735006  91.2925017  65.0459987  30.6095006  90.9915017
  63.5739987  31.4865006  90.6675017  64.0249987  31.3025006  92.7695017
  63.4689987  32.1695006  93.1025017  64.8909987  31.1785006  93.4085017
  63.0029987  32.3545006  93.2035017  62.2019987  32.9165006  92.4765017
  63.0429987  32.4555006  94.4985017  61.8529987  32.9995006  95.0485017
  61.1619987  32.9735006  94.2215017  62.0849987  34.0265006  95.2865017
  61.2679987  32.2825006  96.2485017  60.5869987  32.9605006  96.7355017
  62.2249987  31.6425006  97.2845017  62.3919987  32.3435006  98.0915017
  63.1709987  31.4645006  96.7845017  61.6829987  30.4275006  97.7765017
  60.4849987  30.2505006  98.7635017  61.2369987  29.6595006 100.0185017
  61.7099987  28.3285006  99.9645017  61.0069987  27.5965006  99.5825017
  61.8939987  28.1015006 101.0025017  63.0619987  28.2285006  99.2215017
  62.9779987  28.6165006  98.2175017  63.3619987  26.7715006  99.1335017
  64.1239987  26.6535006  99.8035017  62.5389987  26.1675006  99.3405017
  63.7169987  26.5225006  98.2285017  64.1799987  29.0835006  99.8625017
  59.8619987  31.5325006  99.1465017  59.6209987  29.1905006  98.1935017
  60.5419987  31.2825006  95.6595017  59.3929987  31.5735006  95.3255017
  58.7369987  32.5545006  95.6765017  65.2629987  28.4815006 100.0775017
  64.0219987  30.2995006 100.1395017  59.1479987  30.4505006  94.2765017
  58.3869987  29.8795006  94.7985017  58.6259987  30.9965006  93.4955017
  60.1929987  29.5855006  93.7095017  61.1689987  30.0445006  93.8215017
  60.2459987  28.6355006  94.2325017  59.9169987  29.3435006  92.2075017
  59.1159987  30.0015006  91.8805017  60.8009987  29.6405006  91.6485017
  59.5849987  27.9065006  91.8585017  59.0489987  27.4475006  92.6865017
  58.9199987  27.8555006  91.0005017  60.8299987  27.0695006  91.5685017
  60.5549987  26.0245006  91.4405017  61.2609987  27.3875006  90.6215017
  61.8999987  27.1825006  92.6555017  61.9909987  28.2295006  92.9415017
  61.5749987  26.6485006  93.5445017  63.2799987  26.6475006  92.2375017
  63.8089987  26.3385006  93.1315017  63.1209987  25.7455006  91.6485017
  64.1009987  27.6125006  91.4275017  64.6229987  28.3435006  92.0265017
  64.2749987  27.6745006  90.0995017  64.9159987  28.4545006  89.7135017
  63.6859987  26.7755006  89.0325017  64.5149987  26.3445006  88.4745017
  63.1589987  25.9435006  89.4855017  62.7589987  27.4855006  88.0405017
  62.3649987  26.7575006  87.3315017  61.8999987  27.8745006  88.5835017
  63.4329987  28.6305006  87.2765017  63.7909987  29.3735006  87.9895017
  64.3129987  28.2565006  86.7605017  62.4999987  29.3065006  86.2695017
  61.5609987  29.5555006  86.7585017  62.9309987  30.2505006  85.9405017
  62.2359987  28.4225006  85.0535017  63.1669987  28.2455006  84.5185017
  61.8819987  27.4435006  85.3645017  61.2459987  29.0495006  84.0765017
  60.8129987  28.3075006  83.4085017  60.4089987  29.5125006  84.5965017
  61.9369987  30.1085006  83.2375017  62.2369987  30.9435006  83.8655017
  62.8599987  29.6805006  82.8535017  61.1139987  30.6255006  82.0665017
  61.6959987  31.3115006  81.4595017  60.2269987  31.1565006  82.3965017
  60.7909987  29.8095006  81.4265017  32.0959987  75.5825006  81.2115017
  33.0009987  75.7915006  80.6485017  31.3449987  76.3085006  80.9135017
  31.7399987  74.6005006  80.9125017  32.3559987  75.6395006  82.7345017
  32.7129987  76.6195006  83.0455017  33.1199987  74.9275006  83.0345017
  31.1029987  75.3475006  83.4165017  30.7909987  74.3235006  83.2115017
  30.3159987  75.9865006  83.0215017  31.1849987  75.5575006  84.9325017
  30.1799987  75.4085006  85.3215017  31.4219987  76.6065006  85.1015017
  32.1639987  74.6745006  85.7415017  33.0579987  75.2515006  85.9645017
  32.4829987  73.8515006  85.1035017  31.5909987  74.1035006  87.0645017
  31.2029987  74.9165006  87.6755017  32.3909987  73.6435006  87.6415017
  30.4709987  73.0635006  86.8265017  30.8239987  72.3845006  86.0525017
  29.6239987  73.5975006  86.3985017  29.9919987  72.2415006  88.0485017
  30.7839987  71.5525006  88.3375017  29.1479987  71.6245006  87.7465017
  29.5929987  73.0825006  89.2545017  28.9689987  73.9135006  88.9335017
  30.4799987  73.5255006  89.7045017  28.8399987  72.2605006  90.3175017
  29.3209987  71.2935006  90.4455017  27.8239987  72.0545006  89.9815017
  28.7859987  73.0035006  91.6615017  28.3849987  73.9985006  91.4805017
  29.8029987  73.1485006  92.0215017  27.9589987  72.3465006  92.7495017
  26.9059987  72.3185006  92.4785017  28.0199987  72.9175006  93.6735017
  28.4489987  70.9935006  93.0035017  28.2629987  70.3765006  92.1265017
  27.9009987  70.5335006  93.8205017  29.9039987  70.9375006  93.3035017
  30.4989987  71.3125006  92.4775017  30.2169987  69.9115006  93.4755017
  30.2069987  71.7445006  94.5385017  29.5989987  71.4085006  95.3695017
  30.0059987  72.7945006  94.3625017  31.5879987  71.6735006  94.7695017
  32.0059987  70.6285006  94.3735017  32.0939987  72.7885006  95.3565017
  33.3719987  73.4915006  95.6765017  33.4249987  74.2355006  94.8995017
  34.1659987  72.7735006  95.5275017  33.4819987  74.1655006  97.0835017
  34.5319987  74.3185006  97.2785017  32.8029987  73.4945006  98.3205017
  33.4399987  72.7255006  98.7365017  31.8659987  73.0425006  98.0285017
  32.5459987  74.5195006  99.2655017  31.1499987  74.8445006  99.8535017
  30.2269987  74.8045006  98.5495017  28.9409987  75.4345006  98.5865017
  28.8329987  75.9025006  97.6165017  28.9329987  76.2035006  99.3485017
  27.7639987  74.4795006  98.8405017  27.7229987  74.2435006  99.8925017
  26.8469987  74.9725006  98.5485017  27.8799987  73.1685006  98.1305017
  28.1089987  73.2825006  97.1565017  28.7019987  72.6515006  98.6265017
  27.0389987  72.6225006  98.2035017  30.6889987  73.7395006 100.7185017
  31.1279987  76.1955006 100.4295017  32.9159987  75.3895006  96.8195017
  33.7629987  76.2625006  96.4585017  34.9809987  76.2165006  96.5425017
  32.9689987  77.4205006  95.9605017  32.0159987  77.3405006  96.4735017
  33.4449987  78.3145006  96.3555017  32.7959987  77.5135006  94.4375017
  32.2699987  78.4405006  94.2345017  33.7839987  77.6275006  94.0015017
  32.0489987  76.3465006  93.7485017  32.5729987  75.4185006  93.9655017
  31.0699987  76.2585006  94.2135017  31.8569987  76.5025006  92.2235017
  32.7879987  76.8245006  91.7605017  31.5929987  75.5595006  91.7505017
  30.7869987  77.5265006  91.9045017  29.9629987  77.4265006  92.6085017
  31.1979987  78.5225006  92.0595017  30.2469987  77.4365006  90.4745017
  30.9919987  77.8195006  89.7795017  30.0699987  76.4015006  90.1955017
  28.9289987  78.2285006  90.2985017  29.0529987  79.2545006  90.6235017
  28.6599987  78.2715006  89.2435017  27.8079987  77.5475006  91.0565017
  27.7779987  77.6885006  92.1265017  26.8419987  76.7955006  90.5135017
  26.0789987  76.3485006  91.1355017  26.6949987  76.4945006  89.0585017
  25.9979987  77.2095006  88.6235017  27.6299987  76.6195006  88.5245017
  26.1549987  75.0925006  88.8125017  26.8669987  74.3125006  89.0795017
  25.2549987  74.8925006  89.3905017  25.8289987  74.9955006  87.3325017
  24.8539987  75.4625006  87.1925017  26.5429987  75.6195006  86.8025017
  25.8119987  73.5955006  86.7075017  26.7769987  73.1025006  86.8005017
  25.0879987  72.9395006  87.1885017  25.4479987  73.7525006  85.2365017
  24.3739987  73.8495006  85.0885017  25.8909987  74.6325006  84.7785017
  25.9089987  72.5005006  84.5095017  26.9969987  72.4825006  84.5135017
  25.5899987  71.6345006  85.0875017  25.4289987  72.3275006  83.0785017
  24.3529987  72.4525006  82.9825017  25.8739987  73.0865006  82.4385017
  25.8279987  70.9525006  82.5565017  25.5689987  70.8485006  81.5075017
  25.3289987  70.1535006  83.0955017  26.8989987  70.7945006  82.6505017
  77.3869987  71.0895006  81.8635017  77.2769987  71.8315006  81.0785017
  76.9189987  70.1715006  81.5195017  78.4489987  70.8925006  81.9845017
  76.7649987  71.5695006  83.1725017  75.7059987  71.7795006  83.0285017
  77.2239987  72.5065006  83.4765017  76.9249987  70.5205006  84.2785017
  77.9459987  70.5255006  84.6595017  76.7629987  69.5275006  83.8645017
  75.9459987  70.7275006  85.4475017  75.9299987  69.8205006  86.0475017
  74.9379987  70.8475006  85.0545017  76.2779987  71.9085006  86.3565017
  76.2869987  72.8095006  85.7485017  77.2989987  71.7675006  86.7085017
  75.3599987  72.1295006  87.5525017  75.4729987  71.3405006  88.2945017
  74.3119987  72.1235006  87.2595017  75.6899987  73.4515006  88.1805017
  75.2529987  74.3005006  87.6585017  76.7599987  73.6485006  88.2395017
  75.1259987  73.3775006  89.5605017  75.4989987  72.5155006  90.1125017
  74.0409987  73.2905006  89.5585017  75.4889987  74.5335006  90.2225017
  75.1419987  74.5175006  91.2535017  75.0299987  75.4075006  89.7615017
  77.0529987  74.6975006  90.2015017  77.1569987  75.7805006  90.2275017
  77.2969987  74.3915006  89.1845017  77.9999987  74.0825006  91.1275017
  78.4949987  73.2715006  90.5975017  77.4329987  73.6165006  91.9315017
  79.0929987  75.0075006  91.7385017  79.4459987  75.6495006  90.9345017
  79.9299987  74.3635006  92.0025017  78.7149987  75.8605006  92.9755017
  77.7069987  76.2655006  92.9095017  79.3719987  76.7075006  93.1525017
  78.7699987  74.9145006  94.1995017  79.7959987  74.5645006  94.2375017
  78.1589987  74.0655006  93.9035017  78.3419987  75.3575006  95.5885017
  77.3299987  75.7425006  95.5685017  79.0019987  76.1335006  95.9575017
  76.8629987  75.1905006  95.4825017  76.5779987  75.9505006  94.6405017
  76.0869987  74.6965006  96.6355017  74.6369987  74.7475006  97.2575017
  74.0859987  75.4675006  96.6755017  74.4509987  74.9295006  98.3065017
  74.2819987  73.5055006  96.9165017  73.2239987  73.2995006  96.9475017
  74.9889987  72.7025006  97.9645017  74.4249987  71.8045006  98.1745017
  75.0529987  73.2865006  98.8715017  76.3079987  72.3945006  97.5175017
  77.3219987  71.9825006  98.6235017  76.5249987  70.7275006  99.1115017
  76.4099987  70.2655006 100.4545017  75.7159987  69.4345006 100.4335017
  76.0139987  71.0355006 101.1035017  77.7469987  69.8075006 101.0065017
  78.3999987  70.6625006 101.0915017  77.5859987  69.3815006 101.9875017
  78.4699987  68.8235006 100.1415017  77.8749987  68.0665006  99.8475017
  78.7749987  69.3915006  99.2615017  79.2799987  68.4405006 100.5985017
  78.5949987  71.4725006  98.0885017  77.3309987  72.9275006  99.7605017
  74.5889987  73.3475006  95.5165017  74.0879987  72.2845006  95.0595017
  73.2019987  71.6395006  95.5955017  74.8009987  71.8865006  93.7715017
  74.3699987  70.9375006  93.4685017  74.5239987  72.5995006  92.9995017
  76.3389987  71.8005006  93.9245017  76.7779987  72.0325006  92.9605017
  76.6579987  72.5905006  94.5975017  76.8809987  70.4515006  94.4115017
  76.3859987  70.1565006  95.3335017  76.6399987  69.6845006  93.6795017
  78.4079987  70.4735006  94.6155017  78.7669987  71.4735006  94.8515017
  78.7459987  69.8305006  95.4245017  79.0699987  70.0195006  93.3155017
  78.8709987  68.9575006  93.1835017  78.5639987  70.5265006  92.4965017
  80.5769987  70.2735006  93.1935017  81.0619987  69.8585006  94.0755017
  80.9649987  69.7215006  92.3425017  80.9749987  71.7515006  93.0435017
  80.2369987  72.2995006  92.4705017  81.0239987  72.2325006  94.0195017
  82.3449987  71.8335006  92.3925017  83.1329987  71.3225006  92.9235017
  82.6819987  72.4535006  91.2345017  83.6959987  72.4365006  90.8605017
  81.7089987  73.2155006  90.3515017  80.7169987  72.8465006  90.6045017
  81.7229987  74.2635006  90.6305017  81.8959987  73.0885006  88.8275017
  82.9229987  73.3195006  88.5485017  81.7219987  72.0595006  88.5185017
  80.9329987  74.0175006  88.0595017  79.9299987  73.5955006  88.1195017
  80.8909987  74.9765006  88.5685017  81.3019987  74.2375006  86.5835017
  82.2219987  74.8165006  86.5525017  81.5359987  73.2715006  86.1395017
  80.2139987  74.9335006  85.7415017  79.3769987  74.2605006  85.5615017
  79.7969987  75.7935006  86.2585017  80.7829987  75.3655006  84.3655017
  79.9479987  75.7515006  83.7835017  81.4399987  76.2135006  84.5495017
  81.5519987  74.3225006  83.4965017  81.7239987  74.7365006  82.5065017
  82.5369987  74.1965006  83.9405017  80.8879987  72.9385006  83.3655017
  81.5299987  72.2525006  82.8205017  79.9439987  72.9905006  82.8345017
  80.6939987  72.5045006  84.3425017  17.8869987  61.8735006  79.1835017
  18.1499987  61.1915006  78.3805017  18.4809987  62.7745006  79.0605017
  16.8429987  62.1475006  79.0555017  18.1089987  61.2775006  80.4665017
  19.1569987  60.9885006  80.4055017  17.5339987  60.3595006  80.3835017
  17.8629987  61.9035006  81.7425017  16.7889987  61.9615006  81.9185017
  18.2179987  62.9315006  81.7025017  18.5299987  61.2065006  82.9265017
  19.0769987  61.8955006  83.5665017  19.2409987  60.4345006  82.6375017
  17.4049987  60.5775006  83.7375017  16.8149987  59.9295006  83.0935017
  16.7349987  61.3685006  84.0705017  17.8809987  59.7695006  84.9555017
  18.3159987  58.8455006  84.5795017  16.9959987  59.4815006  85.5185017
  18.8799987  60.4535006  85.8975017  18.4569987  61.3895006  86.2575017
  19.7779987  60.7195006  85.3425017  19.2669987  59.5785006  87.0965017
  19.9369987  58.8225006  86.6885017  18.3519987  59.0575006  87.3725017
  19.9019987  60.1915006  88.3585017  19.2789987  61.0385006  88.6385017
  20.8609987  60.6075006  88.0525017  20.1119987  59.2755006  89.5965017
  21.0259987  58.7185006  89.4015017  19.3009987  58.5475006  89.5755017
  20.1759987  59.9185006  90.9865017  19.1909987  60.2905006  91.2605017
  20.8329987  60.7865006  90.9705017  20.6459987  58.9495006  92.0755017
  21.4649987  58.3245006  91.7265017  19.8459987  58.2695006  92.3625017
  21.0799987  59.7465006  93.3125017  20.1729987  60.1435006  93.7665017
  21.6549987  60.6055006  92.9785017  21.8749987  59.0035006  94.4085017
  21.9949987  59.6705006  95.2555017  22.8699987  58.8145006  94.0135017
  21.2829987  57.6785006  94.8915017  21.1229987  57.0085006  94.0565017
  20.3349987  57.8475006  95.3885017  22.1209987  56.9445006  95.9245017
  22.7729987  55.9715006  95.6735017  21.7559987  57.2335006  97.1525017
  22.4329987  56.3475006  98.1055017  23.0059987  55.6155006  97.5615017
  21.6569987  55.8415006  98.6625017  23.3429987  57.1485006  99.0375017
  23.6179987  56.4955006  99.8505017  22.6839987  58.4215006  99.5895017
  21.6979987  58.1785006  99.9615017  22.5799987  59.1335006  98.7835017
  23.4949987  58.9905006 100.6075017  24.4699987  60.1875006 100.4135017
  23.5829987  61.0755006  99.4575017  24.1249987  62.1665006  98.7455017
  25.1979987  62.0445006  98.6665017  23.9149987  63.1335006  99.1835017
  23.4879987  62.1115006  97.3495017  22.4139987  62.1385006  97.4505017
  23.8159987  62.9725006  96.7825017  23.7989987  60.8495006  96.5845017
  24.7819987  60.6315006  96.5935017  23.2599987  60.0605006  97.1115017
  23.4869987  60.8985006  95.6295017  24.6989987  60.8755006 101.6925017
  25.6169987  59.6855006  99.6435017  24.4769987  57.6135006  98.3525017
  25.4929987  56.8435006  98.5565017  25.3559987  55.6045006  98.6215017
  26.6659987  57.8385006  98.0115017  26.7399987  58.6195006  98.7615017
  27.5989987  57.2835006  98.0665017  26.4329987  58.4455006  96.5215017
  26.5069987  57.5805006  95.8715017  25.3889987  58.7415006  96.5095017
  27.2789987  59.5465006  95.9685017  27.0039987  60.4675006  96.4755017
  28.3049987  59.3355006  96.2585017  27.2309987  59.7545006  94.4055017
  27.8219987  60.6545006  94.2425017  27.8079987  58.9325006  93.9885017
  25.9349987  59.8875006  93.6285017  25.3039987  59.0055006  93.7195017
  25.3389987  60.7245006  93.9875017  26.2679987  60.1205006  92.1635017
  26.2989987  61.2055006  92.0715017  27.2909987  59.7735006  92.0475017
  25.4589987  59.5655006  91.0765017  26.2259987  59.6305006  90.3135017
  25.4619987  58.5345006  91.4275017  24.1599987  59.8625006  90.5335017
  23.2569987  59.8015006  91.1225017  24.0339987  60.2375006  89.2865017
  23.0409987  60.4425006  88.9135017  25.1349987  60.4345006  88.2575017
  25.1949987  61.4915006  88.0055017  26.1089987  60.1595006  88.6465017
  24.8599987  59.6455006  86.9635017  25.6899987  59.7525006  86.2665017
  24.7869987  58.5825006  87.1865017  23.5609987  60.1105006  86.2885017
  23.3689987  59.4205006  85.4665017  22.7559987  59.9635006  87.0035017
  23.5169987  61.5645006  85.7545017  22.5429987  61.6755006  85.2835017
  23.5069987  62.2105006  86.6305017  24.6169987  62.0315006  84.7955017
  25.4779987  62.4025006  85.3475017  24.9869987  61.2145006  84.1815017
  24.1089987  63.1585006  83.9105017  23.2199987  62.8775006  83.3485017
  23.8369987  64.0425006  84.4835017  25.1599987  63.5255006  82.9635017
  25.7959987  64.3465006  83.2835017  25.8319987  62.6965006  82.7495017
  24.4299987  63.9185006  81.6655017  25.1409987  64.1245006  80.8705017
  23.8219987  64.8075006  81.7955017  23.7769987  63.1185006  81.3265017
  85.0179987  48.1645006  77.5615017  84.7429987  48.0635006  76.5165017
  85.3629987  47.1945006  77.9085017  85.8579987  48.8515006  77.6165017
  83.7969987  48.6845006  78.4315017  83.0299987  47.9475006  78.2025017
  83.5209987  49.5885006  77.8955017  83.8059987  48.9295006  79.8265017
  84.4189987  49.8105006  80.0185017  84.3159987  48.0975006  80.3075017
  82.5229987  49.0995006  80.4495017  81.9209987  48.1945006  80.4895017
  81.8869987  49.8655006  80.0085017  82.8859987  49.5025006  81.8645017
  83.3239987  50.4945006  81.9395017  83.5939987  48.8205006  82.3315017
  81.6059987  49.4805006  82.6285017  80.8459987  49.9665006  82.0195017
  81.7329987  50.1035006  83.5115017  81.1089987  48.1085006  83.0505017
  81.5449987  47.3595006  82.3925017  80.0319987  48.0615006  82.8935017
  81.4239987  47.7475006  84.5065017  82.5079987  47.7005006  84.6055017
  81.0589987  46.7365006  84.6805017  80.8549987  48.6865006  85.5885017
  79.7699987  48.7305006  85.5175017  81.2109987  49.7035006  85.4305017
  81.2559987  48.2215006  87.0035017  82.3409987  48.1795006  87.0655017
  80.9019987  47.2025006  87.1585017  80.6979987  49.1275006  88.1205017
  79.6689987  48.8195006  88.2905017  80.6479987  50.1405006  87.7245017
  81.4279987  49.1475006  89.4755017  81.6889987  48.1175006  89.7045017
  80.6889987  49.4455006  90.2175017  82.6479987  50.0405006  89.6195017
  82.4319987  51.0975006  89.4715017  83.4779987  49.8045006  88.9585017
  83.0959987  49.8485006  91.0735017  82.9969987  48.8085006  91.3675017
  82.4469987  50.4235006  91.7285017  84.4899987  50.2845006  91.2925017
  84.6199987  51.3105006  90.9745017  85.1739987  49.6575006  90.7335017
  85.2909987  50.2445006  92.5715017  86.4549987  49.9465006  92.5915017
  84.5359987  50.5395006  93.6415017  85.1399987  50.4165006  94.9205017
  85.5519987  51.3825006  95.1695017  85.9459987  49.7045006  94.8175017
  84.1299987  49.9615006  96.0175017  83.2629987  50.6015006  96.0065017
  84.8289987  50.0395006  97.4105017  84.0649987  50.0625006  98.1755017
  85.3709987  50.9765006  97.4325017  85.7199987  48.9445006  97.6275017
  86.5749987  48.9205006  98.9885017  85.8499987  47.7455006  99.7705017
  85.3259987  46.6295006  99.0675017  85.4379987  45.7115006  99.6305017
  85.8809987  46.4935006  98.1435017  83.8489987  46.8395006  98.6295017
  83.5419987  45.9785006  98.0485017  83.7869987  47.7195006  98.0055017
  82.7839987  47.0145006  99.7065017  82.9819987  48.2195006 100.5405017
  83.9989987  48.2225006 100.9075017  82.2959987  48.1655006 101.3725017
  82.7649987  49.0955006  99.9475017  81.4769987  47.1705006  99.0445017
  81.3599987  46.3735006  98.3255017  81.4359987  48.1355006  98.5715017
  80.7169987  47.0955006  99.8085017  82.7489987  45.8555006 100.6855017
  82.5619987  44.9395006 100.1455017  81.9589987  46.0205006 101.4025017
  83.6959987  45.7905006 101.2005017  87.9659987  48.5265006  98.6535017
  86.3249987  50.1905006  99.7045017  83.7219987  48.6015006  95.8035017
  82.8359987  48.3515006  94.8695017  82.1429987  49.1255006  94.2585017
  82.9759987  46.8705006  94.5985017  84.0359987  46.6655006  94.4905017
  82.6549987  46.3185006  95.4785017  82.1809987  46.4455006  93.3605017
  81.1429987  46.7445006  93.4625017  82.5519987  46.9465006  92.4715017
  82.2489987  44.9275006  93.1685017  83.2819987  44.6025006  93.0755017
  81.8549987  44.4355006  94.0545017  81.4429987  44.4655006  91.9555017
  81.2609987  43.3975006  92.0625017  80.4659987  44.9425006  91.9665017
  82.0649987  44.6965006  90.6585017  82.0309987  45.7445006  90.3685017
  83.1169987  44.4195006  90.6725017  81.3509987  43.8525006  89.5975017
  81.3039987  42.8075006  89.9015017  80.3239987  44.1735006  89.4465017
  82.0999987  43.9595006  88.2635017  81.4339987  43.6015006  87.4875017
  82.2549987  45.0205006  88.0695017  83.4249987  43.2625006  88.2015017
  83.2519987  42.2765006  88.6055017  84.5919987  43.5265006  87.8135017
  85.4779987  42.9095006  87.8505017  84.8089987  44.8475006  87.2195017
  83.8669987  45.3655006  87.0495017  85.4219987  45.5185006  87.8115017
  85.4259987  44.6295006  85.9675017  86.4199987  44.2305006  86.1675017
  84.8689987  43.8285006  85.4855017  85.5349987  45.8065006  85.0135017
  85.8319987  45.4805006  84.0165017  84.5849987  46.3195006  84.8955017
  86.5599987  46.7685006  85.5455017  86.3709987  46.9805006  86.5955017
  87.5589987  46.3385006  85.4965017  86.5319987  48.0095006  84.7725017
  85.5669987  48.2895006  84.3545017  86.9199987  48.9055006  85.2495017
  87.4469987  47.5945006  83.6115017  88.4359987  48.0475006  83.6395017
  87.6089987  46.5205006  83.5385017  86.7219987  48.0725006  82.3235017
  85.7589987  47.5685006  82.3335017  86.5089987  49.1195006  82.5265017
  87.4639987  47.9365006  80.6565017  86.8289987  48.4075006  79.9125017
  87.6029987  46.9035006  80.3575017  88.4339987  48.4235006  80.6195017
  51.3879987  81.8975006  81.9635017  51.9909987  81.0235006  81.7365017
  50.3619987  81.5665006  82.0965017  51.7299987  82.2965006  82.9145017
  51.4879987  82.9105006  80.8955017  51.1189987  82.5915006  79.9225017
  52.4879987  83.3025006  80.7295017  50.5939987  83.9875006  81.4325017
  50.1429987  84.5625006  80.6235017  51.1699987  84.6985006  82.0225017
  49.4729987  83.3985006  82.3295017  49.9309987  82.6565006  82.9805017
  48.7779987  82.8535006  81.6935017  48.7089987  84.3765006  83.1785017
  47.7929987  83.9195006  83.5445017  48.4049987  85.2245006  82.5665017
  49.5109987  84.8755006  84.3565017  50.1879987  85.6795006  84.0745017
  50.1309987  84.0925006  84.7865017  48.5719987  85.3665006  85.3775017
  47.9749987  84.5675006  85.8125017  47.8649987  86.0925006  84.9785017
  49.3869987  86.0115006  86.4495017  49.9769987  86.8805006  86.1605017
  50.0559987  85.3645006  87.0145017  48.3429987  86.4185006  87.2705017
  47.8019987  87.1985006  86.7395017  48.7869987  86.8965006  88.1425017
  47.2609987  85.2385006  87.7775017  47.9389987  84.6145006  88.3565017
  47.0979987  84.7185006  86.8335017  45.7119987  85.4025006  88.6275017
  45.3159987  84.4925006  88.1835017  45.3889987  86.2185006  87.9835017
  45.0719987  85.5785006  90.0445017  44.0649987  85.1705006  89.9975017
  44.9589987  86.6485006  90.2115017  45.8469987  84.9625006  91.2565017
  46.0419987  85.8365006  91.8755017  46.8019987  84.6765006  90.8245017
  45.4629987  84.0815006  91.9725017  45.6389987  83.3975006  91.1485017
  44.4599987  84.4795006  91.8415017  45.5179987  83.1995006  93.4705017
  45.3779987  83.8685006  94.3095017  46.4739987  82.7005006  93.5795017
  44.0819987  82.1465006  94.0875017  42.7849987  82.2345006  93.9455017
  44.4719987  81.5845006  94.9315017  43.3279987  80.8245006  95.4355017
  42.7239987  80.3205006  94.7005017  42.6799987  81.2525006  96.1865017
  44.2619987  79.9105006  96.0235017  43.7909987  79.0685006  96.5055017
  45.1559987  80.6785006  97.0485017  44.5659987  81.0455006  97.8765017
  45.6339987  81.5205006  96.5695017  46.1399987  79.7815006  97.4815017
  45.9939987  78.9635006  98.8065017  46.1529987  80.2255006  99.7925017
  47.3709987  80.9665006  99.7415017  47.8439987  80.7505006  98.7915017
  48.0519987  80.7005006 100.5395017  47.0619987  82.4605006  99.8415017
  47.9859987  83.0155006  99.7785017  46.4209987  82.7375006  99.0155017
  46.4199987  82.8725006 101.1455017  45.6439987  82.2805006 101.3915017
  47.2029987  82.7535006 101.8955017  46.1059987  83.8275006 101.1285017
  44.6419987  78.3845006  98.9255017  47.1849987  78.1065006  98.9135017
  45.0369987  79.3895006  94.8935017  45.2449987  78.1385006  94.8395017
  44.9739987  77.3255006  95.6635017  46.0409987  77.7245006  93.6445017
  46.9309987  78.3445006  93.6475017  46.3869987  76.7065006  93.8085017
  45.2699987  77.8385006  92.3315017  44.5509987  77.0315006  92.2355017
  44.6959987  78.7585006  92.2835017  46.2439987  77.7775006  91.1685017
  46.8719987  76.8905006  91.1965017  45.7199987  77.7475006  90.2165017
  47.1129987  79.0385006  91.2085017  46.7429987  79.6685006  92.0145017
  48.1299987  78.7645006  91.4795017  47.1499987  79.8645006  89.9355017
  47.5899987  79.3005006  89.1155017  46.1379987  80.1145006  89.6215017
  47.9419987  81.1745006  90.1395017  47.3419987  81.8855006  90.7045017
  48.8409987  80.9995006  90.7245017  48.3499987  81.8135006  88.7765017
  49.0359987  82.6195006  89.0085017  48.9319987  81.0575006  88.2505017
  47.2709987  82.2735006  87.8945017  46.7769987  82.8795006  88.6395017
  46.7239987  82.2475006  86.6645017  45.8199987  82.7835006  86.4135017
  47.2899987  81.5125006  85.5725017  47.9009987  82.2065006  84.9975017
  47.9639987  80.7485006  85.9425017  46.2829987  80.8835006  84.6375017
  45.4299987  81.5545006  84.5505017  46.7339987  80.8355006  83.6475017
  45.8019987  79.5045006  85.0315017  46.5619987  78.9835006  85.6145017
  44.9199987  79.5615006  85.6635017  45.4809987  78.6905006  83.7855017
  46.3649987  78.7435006  83.1535017  45.3959987  77.6525006  84.1025017
  44.2389987  79.0745006  82.9795017  43.3239987  79.0105006  83.5655017
  44.2689987  80.0875006  82.5865017  44.1329987  78.0625006  81.8225017
  44.7849987  77.2175006  82.0385017  43.1199987  77.6655006  81.8035017
  44.4639987  78.5815006  80.4595017  45.4849987  78.9465006  80.3735017
  44.3649987  77.7995006  79.7095017  43.5179987  79.6785006  80.1325017
  43.6669987  80.0255006  79.1145017  43.6449987  80.5325006  80.7885017
  42.4879987  79.3455006  80.2205017  71.7229987  81.8735006  79.7415017
  72.3009987  80.9755006  79.5475017  70.6779987  81.6415006  79.5565017
  71.8249987  82.1105006  80.7965017  72.1689987  82.9745006  78.9155017
  71.9509987  83.0525006  77.8515017  73.1019987  83.5085006  79.0755017
  71.1079987  83.5965006  79.6625017  71.0899987  83.2585006  80.6985017
  70.1359987  83.3405006  79.2455017  71.2489987  84.9705006  79.6345017
  70.3779987  85.4795006  80.0415017  71.3849987  85.3645006  78.6285017
  72.4279987  85.3165006  80.4605017  72.5519987  86.3405006  80.1185017
  73.1549987  84.7215006  79.9105017  72.7469987  85.2505006  81.9485017
  73.8249987  85.3635006  82.0455017  72.5159987  84.2395006  82.2765017
  72.0379987  86.2675006  82.8855017  70.9659987  86.0865006  82.8265017
  72.2009987  87.2655006  82.4815017  72.4659987  86.2395006  84.3205017
  72.1839987  87.1345006  84.8735017  73.5409987  86.1275006  84.4505017
  71.8029987  85.1085006  84.8855017  72.2469987  84.1915006  84.5035017
  70.7609987  85.0955006  84.5685017  71.8649987  85.1035006  86.3885017
  71.2539987  84.2815006  86.7555017  71.4029987  86.0175006  86.7605017
  73.2849987  84.9925006  86.9505017  73.9339987  85.7495006  86.5155017
  73.7389987  84.0325006  86.7105017  73.2749987  85.1775006  88.4455017
  72.7729987  86.1075006  88.7015017  74.2969987  85.2745006  88.8065017
  72.6069987  83.9965006  89.1725017  72.9069987  83.0625006  88.7015017
  71.5249987  84.0465006  89.0875017  72.9759987  83.9245006  90.6055017
  74.0189987  84.0375006  90.8805017  72.5899987  83.0825006  91.1735017
  72.2909987  85.0465006  90.9725017  71.2519987  84.9695006  90.6775017
  72.7219987  85.9225006  90.5025017  72.8969987  85.4585006  92.2405017
  72.9499987  84.4895006  92.9575017  71.9719987  87.3795006  93.3235017
  71.0179987  87.0415006  94.9865017  70.8559987  88.0865006  95.2025017
  71.8699987  86.6915006  95.5515017  69.4409987  86.0195006  95.4135017
  68.6299987  86.5355006  94.9265017  69.2839987  86.0985006  96.8315017
  68.2359987  86.0575006  97.0955017  69.6899987  87.0445006  97.1685017
  69.9769987  85.0365006  97.4155017  69.2849987  84.4005006  98.6475017
  70.4659987  83.4765006  99.0185017  70.7569987  82.3395006  98.2285017
  70.8349987  82.5025006  97.1615017  70.0379987  81.5365006  98.3655017
  72.0599987  81.8085006  98.7955017  72.8449987  82.5315006  98.6105017
  72.2969987  80.8965006  98.2675017  72.1509987  81.4675006 100.2835017
  72.1509987  82.6795006 101.1205017  72.9069987  83.3565006 100.7475017
  72.3919987  82.3865006 102.1315017  71.1659987  83.1215006 101.0965017
  70.8939987  80.7475006 100.6755017  70.7219987  79.9495006  99.9695017
  70.0769987  81.4465006 100.6845017  71.0489987  80.3415006 101.6645017
  73.3929987  80.7605006 100.6815017  73.4749987  79.8415006 100.1195017
  73.3509987  80.5365006 101.7365017  74.2469987  81.3905006 100.4795017
  69.0949987  85.4555006  99.6495017  68.1269987  83.5895006  98.2205017
  69.4129987  84.5055006  95.0205017  68.5009987  83.9775006  94.0955017
  67.7319987  84.6275006  93.4455017  68.5739987  82.4555006  93.8215017
  68.5799987  81.9665006  94.7905017  67.6499987  82.1475006  93.3395017
  69.7999987  82.0665006  92.9715017  69.6549987  82.4005006  91.9495017
  70.6869987  82.5785006  93.3315017  70.0319987  80.5745006  92.9755017
  71.0859987  80.3185006  92.9005017  69.6759987  80.1255006  93.8995017
  69.2689987  79.9705006  91.8215017  69.0879987  78.9395006  92.1205017
  68.2979987  80.4595006  91.8135017  69.8259987  79.9665006  90.4145017
  69.0999987  79.5075006  89.7455017  69.9299987  80.9985006  90.0865017
  71.1889987  79.2575006  90.2555017  71.9499987  79.7695006  90.8415017
  71.1499987  78.2375006  90.6275017  71.6159987  79.2265006  88.7915017
  72.6439987  78.8845006  88.7895017  71.0279987  78.4325006  88.3325017
  71.4579987  80.4855006  87.9655017  72.2109987  81.2215006  88.2045017
  70.5649987  80.8085006  87.0085017  70.6679987  81.7795006  86.5445017
  69.4159987  79.9895006  86.4735017  69.5049987  79.8635006  85.3955017
  69.3529987  78.9915006  86.8925017  68.0989987  80.7545006  86.7655017
  67.2679987  80.1685006  86.3755017  67.9669987  80.7865006  87.8455017
  68.0249987  82.2055006  86.1965017  67.0909987  82.6705006  86.5105017
  68.8219987  82.8105006  86.6195017  68.1159987  82.2375006  84.6665017
  69.1069987  81.8855006  84.3905017  67.4119987  81.5065006  84.2715017
  67.8459987  83.6015006  84.0185017  66.7809987  83.8205006  83.9675017
  68.2919987  84.4245006  84.5705017  68.3969987  83.5745006  82.5695017
  69.4009987  83.1575006  82.6235017  67.7969987  82.8495006  82.0225017
  68.4509987  84.8475006  81.7715017  68.8179987  85.6905006  82.3515017
  69.1389987  84.7415006  80.9355017  67.1309987  85.1555006  81.2525017
  67.1659987  86.0235006  80.6005017  66.4239987  85.3735006  82.0455017
  66.7339987  84.3245006  80.6765017  29.6109987  33.1415006  82.0565017
  29.0849987  32.1925006  82.0555017  30.6759987  32.9295006  82.0455017
  29.3679987  33.6555006  81.1305017  29.2089987  34.0285006  83.3305017
  29.4309987  33.3895006  84.1835017  28.1259987  34.0935006  83.2715017
  29.7979987  35.3955006  83.5685017  29.8849987  35.5575006  82.4945017
  30.7389987  34.9475006  83.8835017  29.6459987  36.7315006  84.2635017
  28.6209987  37.0275006  84.4775017  30.1099987  37.5855006  83.7725017
  30.3489987  36.4625006  85.5635017  31.4209987  36.3625006  85.4125017
  30.0099987  35.5175006  85.9835017  30.0999987  37.5545006  86.5465017
  30.8669987  38.3155006  86.4155017  30.2369987  37.1535006  87.5485017
  28.7229987  38.2055006  86.4495017  27.9599987  37.4755006  86.1865017
  28.7009987  38.9645006  85.6685017  28.3699987  38.8385006  87.7655017
  29.0779987  39.6265006  88.0195017  28.4229987  38.1115006  88.5735017
  26.9929987  39.4125006  87.7095017  26.2049987  38.6805006  87.8745017
  26.7589987  39.9025006  86.7655017  26.9679987  40.4075006  88.7905017
  25.9699987  40.8225006  88.9105017  27.6229987  41.2485006  88.5635017
  27.4239987  39.7535006  90.0975017  28.5079987  39.6765006  90.0585017
  27.0489987  38.7315006  90.1095017  27.0739987  40.3815006  91.2775017
  26.0359987  40.1545006  91.5065017  27.1239987  41.4585006  91.1265017
  27.9829987  40.0055006  92.4835017  28.0679987  40.9315006  93.0495017
  28.9639987  39.8195006  92.0555017  27.6699987  38.9645006  93.3925017
  27.5219987  38.0255006  92.8695017  26.7359987  39.1915006  93.9005017
  28.7259987  38.7935006  94.4065017  28.9139987  39.7285006  94.9195017
  29.6459987  38.4615006  93.9405017  28.5279987  37.3975006  94.8845017
  27.5239987  36.7065006  94.7775017  29.6669987  37.0705006  95.3625017
  29.8409987  35.7145006  95.7505017  29.3539987  35.1255006  94.9875017
  29.3949987  35.4895006  96.7085017  31.3699987  35.4215006  95.7645017
  31.4709987  34.3485006  95.7605017  32.0809987  36.0165006  97.0185017
  33.0529987  35.5465006  97.0915017  31.4819987  35.7085006  97.8665017
  32.2139987  37.4385006  96.9935017  31.9829987  38.2595006  98.3275017
  30.5759987  37.6865006  98.8255017  30.3339987  37.8445006 100.2265017
  31.1359987  38.3675006 100.7315017  30.2549987  36.8705006 100.7015017
  28.9769987  38.5315006 100.4825017  28.9539987  39.4735006  99.9485017
  28.9289987  38.7325006 101.5425017  27.6709987  37.8215006 100.1305017
  27.6329987  37.3865006  98.6885017  27.8839987  38.2345006  98.0655017
  26.6289987  37.0565006  98.4665017  28.3229987  36.5675006  98.5515017
  27.5019987  36.6845006 101.0465017  27.6439987  37.0345006 102.0575017
  28.2139987  35.9195006 100.7915017  26.4949987  36.3145006 100.9205017
  26.5459987  38.7675006 100.3035017  26.5329987  39.1225006 101.3235017
  25.6189987  38.2595006 100.0855017  26.6689987  39.6015006  99.6275017
  33.0189987  37.8855006  99.3165017  31.8959987  39.6765006  97.9955017
  31.9679987  35.9335006  94.5665017  31.6539987  35.2505006  93.4915017
  31.0659987  34.1805006  93.4715017  32.1619987  36.0395006  92.2955017
  33.1849987  36.3375006  92.5015017  32.2099987  35.3955006  91.4215017
  31.2449987  37.2575006  92.0395017  30.2099987  36.9455006  92.1265017
  31.3999987  38.0015006  92.8145017  31.4639987  37.8895006  90.6585017
  31.2409987  37.1395006  89.9035017  30.7169987  38.6705006  90.5405017
  32.8519987  38.4975006  90.4025017  33.0939987  39.2165006  91.1835017
  33.6339987  37.7425006  90.4315017  32.9089987  39.2255006  89.0345017
  33.9079987  39.6005006  88.8215017  32.6629987  38.5415006  88.2245017
  31.8939987  40.4135006  89.0105017  31.1189987  40.0795006  89.6985017
  32.4239987  41.2175006  89.5135017  31.2369987  40.9765006  87.7395017
  30.5379987  40.3425006  87.2065017  30.7569987  41.9495006  87.8335017
  32.3999987  41.1285006  87.0365017  32.5939987  42.0845006  87.4995017
  33.4359987  40.6195006  86.0195017  34.1999987  41.3825006  85.9705017
  33.6729987  39.5175006  85.1845017  34.5459987  38.9585006  85.5185017
  32.8559987  38.8065006  85.1415017  33.9519987  40.0445006  83.7995017
  33.3059987  40.8565006  83.4665017  34.9729987  40.3835006  83.6375017
  33.7069987  38.8715006  82.9915017  34.1809987  38.0385006  83.5115017
  32.6369987  38.6845006  83.0295017  34.1459987  38.8835006  81.6095017
  34.1629987  39.9025006  81.2295017  35.1649987  38.5105006  81.5255017
  33.2369987  38.0355006  80.7645017  32.2439987  37.7675006  81.1205017
  33.1389987  38.1765006  79.6915017  34.1209987  36.9265006  81.0385017
  35.1109987  37.3765006  81.0785017  33.8789987  36.6395006  82.0605017
  34.1909987  35.7505006  80.2455017  34.8739987  35.9655006  79.4275017
  34.7009987  35.0225006  80.8725017  33.0599987  35.1855006  79.7535017
  33.2839987  34.2515006  79.2475017  32.5619987  35.8315006  79.0375017
  32.3529987  34.9685006  80.5495017  36.8819987  24.5785006  80.3285017
  36.7419987  23.6635006  79.7625017  36.9479987  25.3995006  79.6205017
  35.9909987  24.7345006  80.9305017  38.1349987  24.5025006  81.2075017
  38.9839987  24.3035006  80.5555017  38.0289987  23.6295006  81.8455017
  38.4329987  25.7475006  82.0595017  38.6519987  26.5715006  81.3795017
  39.3559987  25.5515006  82.6015017  37.3729987  26.1875006  83.0555017
  36.5069987  26.5325006  82.4945017  37.7429987  27.0535006  83.6015017
  36.9209987  25.1245006  84.0435017  36.5379987  24.2585006  83.5095017
  36.0909987  25.5125006  84.6315017  38.0279987  24.6765006  84.9765017
  38.2099987  25.4665006  85.7035017  38.9459987  24.5745006  84.4025017
  37.7469987  23.3685006  85.7125017  38.4919987  23.2225006  86.4925017
  37.8589987  22.5315006  85.0245017  36.3489987  23.3265006  86.3345017
  35.6849987  22.7395006  85.7005017  35.9309987  24.3315006  86.3635017
  36.3479987  22.7415006  87.7415017  36.9129987  21.8125006  87.7795017
  35.3369987  22.4945006  88.0625017  36.9609987  23.7515006  88.7265017
  36.4029987  24.6835006  88.6655017  37.9779987  23.9835006  88.4115017
  36.9839987  23.2505006  90.1675017  37.4569987  22.2715006  90.2105017
  35.9709987  23.1135006  90.5415017  37.7439987  24.1945006  91.1025017
  37.4369987  24.0115006  92.1295017  37.4579987  25.2205006  90.8785017
  39.2649987  24.0715006  90.9765017  39.5289987  24.2815006  89.9415017
  39.5549987  23.0405006  91.1605017  40.0929987  24.9875006  91.8675017
  39.8629987  26.0315006  91.6805017  41.1509987  24.8555006  91.6545017
  39.8509987  24.6755006  93.3485017  40.0429987  23.6295006  93.5515017
  38.8259987  24.8995006  93.6185017  40.7739987  25.5575006  94.1385017
  41.2469987  26.5895006  93.6875017  41.1119987  25.0275006  95.2935017
  42.0979987  25.8855006  95.8455017  42.3779987  26.5155006  95.0145017
  42.9329987  25.2495006  96.1035017  41.6699987  26.7445006  97.0435017
  42.5529987  27.2005006  97.4585017  40.8639987  26.0835006  98.1465017
  40.9919987  26.6195006  99.0765017  41.2279987  25.0715006  98.2765017
  39.4899987  26.0725006  97.7615017  38.6629987  24.7325006  97.7695017
  37.3159987  25.2365006  98.3855017  36.8459987  26.5545006  98.3315017
  35.7749987  26.6495006  98.2045017  37.3029987  27.1085006  97.5165017
  37.3139987  27.2605006  99.6115017  36.9559987  28.2765006  99.5005017
  38.3939987  27.2685006  99.5905017  36.9259987  26.8355006 101.0255017
  35.4509987  26.7055006 101.0975017  35.0049987  27.6125006 100.7115017
  35.1779987  26.5785006 102.1345017  35.1479987  25.8355006 100.5335017
  37.5889987  25.5335006 101.2735017  38.6319987  25.6245006 101.0125017
  37.1019987  24.7745006 100.6885017  37.4889987  25.3155006 102.3265017
  37.4149987  27.8695006 101.9985017  38.4859987  27.9695006 101.9025017
  37.1689987  27.5565006 103.0025017  36.9379987  28.8165006 101.7885017
  38.4339987  24.3095006  96.3775017  39.3149987  23.8195006  98.7325017
  40.9159987  27.7205006  96.4415017  40.7569987  28.7715006  97.0675017
  40.9529987  29.0285006  98.2465017  40.3199987  29.6575006  95.9855017
  40.2429987  30.6745006  96.3555017  41.0459987  29.6895006  95.1765017
  38.9869987  29.1295006  95.5005017  39.1949987  28.4225006  94.7045017
  38.5469987  28.5525006  96.3075017  38.0109987  30.1395006  95.0115017
  37.3959987  30.6075006  95.7765017  38.4599987  30.9515006  94.4445017
  37.2199987  29.3925006  94.1595017  37.2259987  28.4825006  94.7575017
  36.2779987  29.8905006  94.3745017  37.2439987  29.0065006  92.7165017
  37.9819987  28.2185006  92.5845017  36.2799987  28.5615006  92.4785017
  37.5249987  30.1505006  91.7055017  36.8309987  30.9675006  91.8965017
  38.5219987  30.5515006  91.8655017  37.4079987  29.7365006  90.3185017
  36.4149987  29.4045006  90.0395017  37.6759987  30.5255006  89.6165017
  38.3789987  28.6525006  90.1955017  38.2499987  27.6945006  90.6755017
  39.4529987  28.8145006  89.4695017  40.1779987  28.0195006  89.3665017
  39.8039987  30.0685006  88.7125017  39.0749987  30.8265006  88.9935017
  40.7699987  30.4415006  89.0355017  39.7939987  29.9405006  87.2305017
  38.7829987  30.0525006  86.8405017  40.3819987  30.7385006  86.7825017
  40.3659987  28.5835006  86.7905017  41.3049987  28.4015006  87.3135017
  39.6919987  27.7855006  87.0885017  40.6039987  28.5105006  85.3005017
  39.7149987  28.0945006  84.8325017  40.7069987  29.5215006  84.9115017
  41.8229987  27.6975006  84.9095017  42.6719987  27.8825006  85.5645017
  41.6539987  26.6245006  84.9375017  42.2089987  28.1195006  83.5265017
  41.4199987  27.8945006  82.8105017  42.3649987  29.1955006  83.4745017
  43.4849987  27.4245006  83.0745017  43.7919987  27.8565006  82.1255017
  44.2549987  27.7045006  83.7895017  43.4549987  25.8345006  82.9495017
  44.4399987  25.4485006  82.7065017  42.7749987  25.5015006  82.1725017
  43.1409987  25.3755006  83.8825017  28.7019987  50.7275006  81.4125017
  29.3699987  50.0835006  80.8485017  29.2869987  51.2145006  82.1875017
  28.3409987  51.4995006  80.7385017  27.5659987  49.9515006  81.9995017
  27.9849987  49.1705006  82.6315017  27.0579987  49.4445006  81.1835017
  26.5679987  50.7695006  82.8105017  26.0659987  51.4585006  82.1325017
  27.1379987  51.3885006  83.5005017  25.5099987  49.9865006  83.6155017
  25.9979987  49.3135006  84.3175017  24.9109987  49.3555006  82.9605017
  24.5809987  50.9315006  84.4035017  23.9899987  51.5115006  83.6995017
  25.2029987  51.6445006  84.9415017  23.6329987  50.2365006  85.3955017
  23.0879987  49.4655006  84.8535017  22.8909987  50.9645006  85.7165017
  24.3009987  49.6115006  86.6345017  25.1729987  49.0535006  86.2975017
  23.6119987  48.8775006  87.0505017  24.7249987  50.5985006  87.7435017
  23.8349987  51.1195006  88.0925017  25.3659987  51.3565006  87.2975017
  25.4499987  49.9645006  88.9505017  26.1849987  50.6595006  89.3515017
  26.0069987  49.0845006  88.6315017  24.4659987  49.5655006  90.0635017
  23.7899987  48.8445006  89.6095017  23.8709987  50.4555006  90.2685017
  25.0169987  49.0075006  91.3925017  25.4999987  48.0525006  91.1965017
  24.1899987  48.7945006  92.0675017  26.0259987  49.9245006  92.1015017
  26.7099987  50.3295006  91.3595017  26.6299987  49.3145006  92.7715017
  25.3929987  51.0615006  92.9115017  24.6849987  50.6665006  93.6385017
  24.8339987  51.7515006  92.2855017  26.4569987  51.8305006  93.6665017
  27.1009987  51.1185006  94.1725017  25.9539987  52.4045006  94.4395017
  27.3199987  52.7865006  92.8315017  26.6959987  53.4855006  92.2905017
  27.9179987  52.2305006  92.1195017  28.2819987  53.4595006  93.7175017
  28.9839987  54.3835006  93.3755017  28.3119987  52.7825006  94.8615017
  29.2479987  53.1565006  95.8355017  29.5559987  54.0215006  95.2685017
  30.0279987  52.4105006  95.7925017  28.9879987  53.4965006  97.0815017
  29.7849987  54.0565006  97.5415017  28.5769987  52.3795006  97.9715017
  28.3719987  52.6935006  98.9865017  29.3259987  51.5975006  97.9945017
  27.3899987  51.9105006  97.3465017  26.5619987  50.8655006  98.1365017
  26.2359987  51.7845006  99.3795017  25.6339987  51.2555006 100.5495017
  25.9739987  51.7675006 101.4405017  25.9249987  50.2155006 100.6625017
  24.1129987  51.2395006 100.4745017  23.7939987  50.9075006 101.4545017
  23.7269987  50.5555006  99.7325017  23.4179987  52.5285006 100.2395017
  23.7389987  53.1045006  98.8935017  24.8139987  53.1275006  98.7755017
  23.3479987  54.1105006  98.8595017  23.2619987  52.5045006  98.1325017
  22.0699987  52.1585006 100.2565017  21.8869987  51.5695006 101.1425017
  21.8469987  51.6035006  99.3625017  21.4859987  53.0665006 100.2885017
  23.6459987  53.5855006 101.2505017  23.3359987  53.2235006 102.2195017
  23.0669987  54.4585006 100.9885017  24.6949987  53.8415006 101.2735017
  25.3219987  50.5365006  97.4065017  27.4579987  49.7515006  98.5405017
  28.2029987  54.4275006  96.7215017  27.7199987  54.9865006  97.5315017
  28.0829987  55.1875006  98.7005017  27.2249987  55.8015006  96.4395017
  26.8499987  56.6105006  97.0585017  28.1849987  56.1405006  96.0575017
  26.2759987  55.4665006  95.3085017  26.9279987  55.2085006  94.4805017
  25.7979987  54.5415006  95.6135017  25.2149987  56.4665006  94.8205017
  24.5829987  56.8045006  95.6375017  25.6939987  57.3565006  94.4205017
  24.3739987  55.8495006  93.7405017  23.9979987  54.8815006  94.0655017
  23.4999987  56.4545006  93.5115017  25.1539987  55.6535006  92.5055017
  26.0609987  55.0855006  92.7015017  24.5799987  55.0705006  91.7875017
  25.4979987  56.9015006  91.9075017  24.5849987  57.4945006  91.8845017
  26.1779987  57.4125006  92.5835017  26.1439987  56.8775006  90.4595017
  25.7159987  56.0755006  89.8685017  25.9069987  57.8035006  89.9375017
  27.6449987  56.7455006  90.5495017  28.2019987  57.3745006  91.2285017
  28.3439987  55.8595006  89.8255017  29.4179987  55.7765006  89.9145017
  27.7319987  54.8975006  88.8335017  28.1779987  53.9145006  88.9775017
  26.6669987  54.7735006  88.9925017  27.9829987  55.3285006  87.3895017
  27.6659987  56.3605006  87.2435017  29.0509987  55.3075006  87.1835017
  27.2549987  54.4205006  86.3815017  27.7669987  53.4625006  86.2915017
  26.2459987  54.1955006  86.7165017  27.1979987  55.0965006  84.9995017
  26.6319987  54.4385006  84.3445017  26.6079987  56.0055006  85.1005017
  28.5519987  55.4395006  84.3555017  29.0099987  56.2665006  84.8935017
  29.2379987  54.6035006  84.4565017  28.4299987  55.8505006  82.8615017
  27.6249987  56.5765006  82.7645017  29.3409987  56.3705006  82.5715017
  28.1789987  54.7005006  81.8555017  29.0789987  54.1075006  81.7145017
  27.4409987  54.0225006  82.2795017  27.6699987  55.1925006  80.4885017
  27.4229987  54.3535006  79.8445017  28.4119987  55.7925006  79.9715017
  26.7749987  55.7985006  80.5995017  88.6639987  59.3845006  79.5575017
  88.2029987  58.6555006  78.8985017  89.6109987  58.9735006  79.8965017
  88.8829987  60.2705006  78.9675017  87.7509987  59.7215006  80.7405017
  87.5399987  58.7775006  81.2395017  86.8119987  60.0535006  80.3045017
  88.1929987  60.6415006  81.6765017  88.4839987  61.6015006  81.2495017
  89.0529987  60.2915006  82.2435017  87.0789987  60.8435006  82.6015017
  86.4829987  61.6225006  82.1295017  87.5309987  61.3005006  83.4805017
  86.1139987  59.6735006  83.0565017  86.7229987  58.8765006  83.4745017
  85.6529987  59.2665006  82.1585017  85.0599987  60.0285006  84.0265017
  84.5529987  60.7655006  83.4065017  85.6929987  60.5895006  84.7105017
  84.0279987  59.2485006  84.8245017  83.7529987  58.3255006  84.3165017
  83.1069987  59.8185006  84.9395017  84.5859987  58.9175006  86.1965017
  85.4949987  58.3755006  85.9385017  83.8769987  58.1705006  86.5485017
  84.8969987  59.9275006  87.3625017  83.9829987  60.3775006  87.7425017
  85.5169987  60.7515006  87.0105017  85.6029987  59.2185006  88.4785017
  85.7539987  59.8865006  89.3235017  86.5949987  58.8915006  88.1665017
  84.7929987  58.0105006  88.9105017  84.7299987  57.3225006  88.0695017
  83.7719987  58.3245006  89.1205017  85.3439987  57.2485006  90.1155017
  86.3059987  56.8205006  89.8445017  84.6829987  56.4075006  90.3165017
  85.4789987  58.0855006  91.4005017  86.0739987  58.9765006  91.2075017
  85.9949987  57.5395006  92.1855017  84.0969987  58.5405006  91.9265017
  83.4319987  57.6885006  92.0165017  83.6479987  59.2145006  91.2025017
  84.1809987  59.2705006  93.2965017  84.8669987  60.1065006  93.2395017
  84.5259987  58.5905006  94.0665017  82.8829987  59.7025006  93.9945017
  81.7879987  59.6515006  93.4935017  83.0699987  60.0935006  95.2475017
  81.7639987  60.4285006  95.7895017  81.2999987  60.7985006  94.8895017
  81.7899987  61.2175006  96.5265017  81.0009987  59.2015006  96.3215017
  80.1669987  59.6325006  96.8495017  81.7329987  58.2445006  97.1995017
  81.0419987  57.7275006  97.8515017  82.4299987  58.8035006  97.8145017
  82.4229987  57.3275006  96.3695017  83.1689987  56.1615006  97.0285017
  83.3429987  56.7275006  98.5155017  83.6909987  55.8915006  99.6215017
  84.2919987  55.0265006  99.3615017  82.7399987  55.5385006  99.9875017
  84.3559987  56.6965006 100.7605017  83.6169987  57.3465006 101.2045017
  85.4569987  57.5485006 100.2105017  86.2999987  57.0775006 100.5425017
  85.4249987  57.6455006  99.1745017  85.4489987  58.4675006 100.6145017
  84.8539987  55.7825006 101.9035017  82.2969987  54.9755006  96.9765017
  84.4989987  56.1315006  96.3935017  80.4549987  58.5975006  95.1565017
  79.9779987  57.5235006  95.4435017  79.2979987  57.2585006  96.4365017
  86.0289987  55.9515006 102.3225017  84.0659987  54.9475006 102.4035017
  80.0279987  56.7455006  94.1525017  78.9939987  56.4255006  94.0805017
  80.1469987  57.5355006  93.4155017  80.9299987  55.6815006  93.9085017
  81.9409987  56.0735006  93.8935017  80.8939987  54.9775006  94.7335017
  80.6569987  54.9575006  92.5985017  79.6479987  54.5655006  92.4955017
  80.8339987  55.5735006  91.7205017  81.6489987  53.8305006  92.6005017
  81.5019987  53.1725006  93.4555017  81.5839987  53.1995006  91.7175017
  83.0559987  54.4185006  92.6835017  83.1799987  55.1455006  91.8835017
  83.1319987  54.9765006  93.6145017  84.1569987  53.4405006  92.6295017
  85.1109987  53.8255006  92.9845017  83.9799987  52.5145006  93.1695017
  84.2599987  53.1355006  91.1895017  84.9809987  52.3285006  91.2525017
  83.2859987  52.6665006  91.0525017  84.5279987  53.9865006  90.0505017
  85.4659987  54.5185006  90.1005017  83.7969987  54.1735006  88.9915017
  84.1999987  54.8225006  88.2275017  82.4649987  53.6135006  88.6665017
  82.3719987  53.1455006  87.6875017  81.9719987  52.9495006  89.3685017
  81.7249987  54.9545006  88.6285017  80.6559987  54.7665006  88.7155017
  82.0059987  55.5215006  89.5145017  81.9989987  55.8155006  87.3625017
  81.6699987  56.8365006  87.5565017  83.0709987  55.8685006  87.1915017
  81.2949987  55.2855006  86.0785017  81.5049987  54.2195006  86.0245017
  80.2219987  55.3765006  86.2375017  81.6719987  55.9665006  84.7405017
  82.1739987  56.9065006  84.9625017  82.4059987  55.3535006  84.2245017
  80.4819987  56.2735006  83.7995017  80.1239987  55.3445006  83.3585017
  79.6549987  56.6665006  84.3875017  80.7909987  57.2725006  82.6585017
  79.8599987  57.5785006  82.1875017  81.1989987  58.1695006  83.1185017
  81.7609987  56.7845006  81.5935017  81.9859987  57.5765006  80.8855017
  81.3579987  55.9495006  81.0305017  82.6979987  56.4615006  82.0375017
  23.5009987  68.3775006  77.9505017  24.3039987  67.6565006  78.0695017
  23.9499987  69.3365006  77.7075017  22.9029987  68.0685006  77.0975017
  22.7239987  68.4635006  79.1005017  23.4849987  68.6865006  79.8465017
  22.4609987  67.4185006  79.2375017  21.5479987  69.3175006  79.3385017
  20.7249987  69.0425006  78.6785017  21.7829987  70.3555006  79.1105017
  21.0949987  69.2385006  80.7395017  20.8929987  68.1955006  80.9745017
  20.1429987  69.7585006  80.8355017  22.1049987  69.8045006  81.7975017
  22.2409987  70.8565006  81.5595017  23.0549987  69.3175006  81.5835017
  21.7879987  69.6675006  83.3205017  21.5199987  68.6135006  83.3695017
  20.8539987  70.2215006  83.3755017  22.6449987  70.0185006  84.5095017
  23.5769987  70.5405006  84.3025017  22.8959987  69.2045006  85.1875017
  21.7099987  70.9395006  85.1805017  20.7639987  70.4395006  85.3855017
  21.4739987  71.7825006  84.5335017  22.2929987  71.4535006  86.4765017
  21.6909987  72.3005006  86.8005017  23.2849987  71.8495006  86.2625017
  22.3909987  70.4335006  87.6185017  23.4079987  70.0515006  87.6825017
  21.7549987  69.5745006  87.4045017  21.9739987  71.0485006  88.9665017
  20.9579987  71.4305006  88.8875017  22.6029987  71.9075006  89.1935017
  22.0279987  70.0575006  90.1375017  21.3359987  69.2365006  89.9655017
  21.6939987  70.5495006  91.0495017  23.4429987  69.5165006  90.3635017
  24.1099987  70.3625006  90.5215017  23.7929987  69.0165006  89.4645017
  23.5939987  68.5705006  91.5505017  22.9849987  68.9095006  92.3815017
  24.6259987  68.5885006  91.8895017  23.2179987  67.1255006  91.2075017
  23.7909987  66.7765006  90.3575017  22.1639987  67.0565006  90.9675017
  23.6629987  66.2225006  92.3475017  24.2299987  65.1545006  92.2105017
  23.3529987  66.7885006  93.5065017  23.6119987  65.9865006  94.6695017
  24.5139987  65.4365006  94.4445017  22.7979987  65.2895006  94.8075017
  23.8169987  66.8615006  95.9385017  24.0439987  66.1885006  96.7485017
  22.5549987  67.6705006  96.2705017  21.7329987  66.9925006  96.4535017
  22.3189987  68.2755006  95.4045017  22.7789987  68.4905006  97.3965017
  22.1589987  69.9295006  97.6045017  22.6649987  70.1495006  99.0925017
  22.6439987  69.0845006 100.0355017  21.8229987  68.4055006  99.8465017
  22.4829987  69.4935006 101.0285017  24.0059987  68.3095006 100.1255017
  24.3359987  68.0195006  99.1355017  23.8499987  67.4175006 100.7145017
  25.1799987  69.0255006 100.7585017  24.9109987  69.2395006 102.2015017
  23.9399987  69.7035006 102.3065017  25.6729987  69.8995006 102.5885017
  24.9609987  68.2895006 102.7115017  26.4709987  68.2655006 100.6505017
  26.6059987  67.9635006  99.6235017  26.4339987  67.4155006 101.3085017
  27.2659987  68.9345006 100.9475017  25.3489987  70.3735006 100.1345017
  25.5009987  70.2565006  99.0715017  26.2069987  70.8615006 100.5715017
  24.4649987  70.9675006 100.3145017  22.8389987  70.9275006  96.7535017
  20.6729987  69.8925006  97.6255017  24.9239987  67.7865006  95.7615017
  26.0229987  67.1355006  95.8765017  26.0699987  66.0075006  96.3395017
  27.1559987  67.9565006  95.2555017  26.8829987  69.0035006  95.3355017
  28.0579987  67.8375006  95.8505017  27.3929987  67.5395006  93.8155017
  27.3559987  66.4565006  93.7635017  26.5699987  67.8975006  93.2045017
  28.6489987  67.9965006  93.2645017  28.6009987  69.0825006  93.2695017
  29.3999987  67.7225006  94.0015017  29.0929987  67.5145006  91.9375017
  29.6119987  68.4305006  91.6605017  29.8559987  66.8315006  92.3025017
  28.4719987  66.9315006  90.7025017  29.1629987  66.8445006  89.8665017
  28.0699987  65.9335006  90.8685017  27.3579987  67.8355006  90.3275017
  26.5049987  67.6425006  90.9765017  27.6399987  68.8715006  90.4915017
  26.9349987  67.6715006  88.8845017  26.1499987  68.3765006  88.6375017
  27.7719987  67.9035006  88.2275017  26.4939987  66.2505006  88.6215017
  26.6329987  65.5275006  89.4115017  25.9309987  65.8155006  87.4915017
  25.6259987  64.7875006  87.3555017  25.6599987  66.6955006  86.3085017
  24.7829987  66.3445006  85.7665017  25.4629987  67.7295006  86.5675017
  26.8789987  66.6265006  85.3555017  27.8019987  66.7145006  85.9275017
  26.9079987  65.6475006  84.8805017  26.8429987  67.7105006  84.2735017
  26.6739987  68.6645006  84.7735017  27.8329987  67.7715006  83.8305017
  25.8229987  67.5335006  83.1925017  24.8509987  67.3375006  83.6405017
  25.7169987  68.4575006  82.6275017  26.1849987  66.4295006  82.2635017
  25.8599987  65.5635006  82.8375017  25.4399987  66.5655006  81.4845017
  27.4899987  66.1105006  81.6625017  27.9529987  67.0355006  81.3235017
  28.1409987  65.7155006  82.4405017  27.4709987  65.0955006  80.4665017
  26.8259987  65.6285006  79.7725017  28.4859987  65.2485006  80.1055017
  27.1569987  63.6325006  80.4145017  27.3319987  63.2355006  79.4195017
  26.1209987  63.4305006  80.6665017  27.7799987  63.0745006  81.1075017
  65.7389987  87.1035006  82.5195017  66.4919987  87.6315006  83.0955017
  65.0769987  87.8445006  82.0815017  66.2449987  86.5925006  81.7045017
  64.9649987  86.1165006  83.3905017  64.4869987  86.6485006  84.2105017
  65.6589987  85.4155006  83.8455017  63.8959987  85.3575006  82.5895017
  64.3679987  84.5905006  81.9755017  63.4139987  86.0445006  81.8965017
  62.8129987  84.7095006  83.4645017  63.2739987  84.0125006  84.1605017
  62.1319987  84.1195006  82.8535017  62.0039987  85.7525006  84.2725017
  61.2639987  86.1875006  83.6055017  62.6919987  86.5555006  84.5305017
  61.3029987  85.2645006  85.5365017  60.5069987  84.5935006  85.2185017
  60.8139987  86.1275006  85.9825017  62.1639987  84.5625006  86.6025017
  62.6129987  83.6865006  86.1385017  61.4929987  84.1885006  87.3745017
  63.2769987  85.4185006  87.2635017  62.8069987  86.3525006  87.5695017
  63.9799987  85.6765006  86.4735017  64.0549987  84.8195006  88.4645017
  64.6729987  85.6055006  88.8925017  64.7439987  84.0675006  88.0805017
  63.1889987  84.1965006  89.5665017  62.4369987  83.5765006  89.0835017
  62.6479987  85.0015006  90.0625017  63.9529987  83.3735006  90.6225017
  64.6379987  82.7185006  90.0885017  63.2379987  82.7215006  91.1205017
  64.7509987  84.1505006  91.6785017  65.4389987  84.8165006  91.1635017
  65.3679987  83.4375006  92.2215017  63.9089987  84.9395006  92.6895017
  63.2959987  84.2445006  93.2605017  63.2189987  85.6035006  92.1765017
  64.7519987  85.7635006  93.6885017  65.3179987  85.0855006  94.3185017
  64.0679987  86.3005006  94.3405017  65.7249987  86.7905006  93.0375017
  65.1859987  87.4575006  92.3775017  66.4879987  86.2765006  92.4645017
  66.2119987  87.8855006  94.0065017  66.2929987  89.0795006  93.7675017
  66.5379987  87.3145006  95.1465017  66.8269987  88.1495006  96.2865017
  66.7289987  89.1605006  95.9215017  67.8339987  88.0005006  96.6495017
  65.7989987  87.8825006  97.3935017  66.1409987  88.3615006  98.2965017
  65.5779987  86.3365006  97.6545017  65.3659987  86.2495006  98.7115017
  66.5499987  85.9005006  97.4595017  64.5689987  85.6725006  96.8845017
  63.0409987  85.7995006  97.2295017  63.1349987  86.7415006  98.5265017
  61.9599987  87.3535006  99.0115017  61.1849987  86.6395006  99.2605017
  61.5409987  88.0115006  98.2555017  62.2789987  88.2705006 100.2175017
  61.3109987  88.5095006 100.6395017  62.7639987  89.1885006  99.9175017
  63.1129987  87.7135006 101.3765017  64.5469987  87.6295006 100.9595017
  64.6019987  87.1025006 100.0165017  65.0819987  87.0765006 101.7175017
  64.9499987  88.6285006 100.8865017  63.0459987  88.5955006 102.5565017
  62.0099987  88.8155006 102.7615017  63.6059987  89.4915006 102.3575017
  63.4819987  88.0585006 103.3865017  62.5439987  86.3905006 101.7925017
  61.5119987  86.5225006 102.0825017  63.1089987  86.0085006 102.6295017
  62.6059987  85.6955006 100.9675017  62.3789987  86.5465006  96.1425017
  62.4689987  84.4955006  97.6135017  64.5949987  88.5315006  96.9955017
  64.5419987  89.8245006  97.1175017  65.3309987  90.5675006  97.6725017
  63.2849987  90.2905006  96.5335017  62.5249987  89.5285006  96.6745017
  62.9199987  91.1745006  97.0505017  63.5309987  90.5775006  95.0775017
  64.3069987  91.3335006  95.0335017  63.9589987  89.6825006  94.6375017
  62.3729987  91.0265006  94.2755017  62.0799987  91.9495006  94.7685017
  62.8409987  91.3185006  93.3385017  61.2119987  90.2375006  93.9805017
  61.1959987  89.3905006  94.6635017  60.3139987  90.8135006  94.1885017
  61.1399987  89.7385006  92.6455017  62.0239987  89.1485006  92.4135017
  60.2929987  89.0615006  92.5565017  60.9959987  90.7865006  91.6695017
  60.1219987  91.4265006  91.7795017  61.8439987  91.4495006  91.5245017
  60.8339987  89.9225006  90.4255017  59.9789987  89.3395006  90.7475017
  60.4489987  90.6815006  89.7455017  61.7999987  89.0895006  89.6995017
  61.6669987  88.0935006  90.0945017  62.7509987  89.2525006  88.7095017
  63.2799987  88.3555006  88.4215017  63.1709987  90.4755006  87.9595017
  63.3489987  90.1255006  86.9445017  62.3099987  91.1325006  87.9075017
  64.3689987  91.2585006  88.4015017  64.6549987  91.9585006  87.6165017
  64.0939987  91.8645006  89.2625017  65.5259987  90.4135006  88.7525017
  66.3719987  91.0315006  89.0535017  65.2989987  89.7755006  89.6015017
  65.9239987  89.5685006  87.5875017  66.6609987  88.7985006  87.8045017
  65.1079987  89.0705006  87.0665017  66.5319987  90.6285006  86.6735017
  66.4699987  91.5075006  87.3125017  67.5759987  90.3285006  86.6825017
  66.1219987  91.0415006  85.2725017  65.7049987  92.0465006  85.3185017
  67.0199987  91.1155006  84.6625017  65.1289987  90.1395006  84.5605017
  65.3909987  89.0875006  84.6485017  64.1449987  90.2385006  85.0145017
  65.0299987  90.5105006  83.1085017  64.2579987  89.9285006  82.6135017
  65.9599987  90.3325006  82.5805017  64.7789987  91.5605006  82.9905017
  44.4269987  20.4455006  79.6365017  44.3939987  20.9925006  78.6995017
  44.3819987  21.1695006  80.4445017  43.5309987  19.8335006  79.6935017
  45.6549987  19.6085006  79.7315017  46.5219987  20.2595006  79.6335017
  45.6749987  18.9425006  78.8735017  45.7769987  18.7915006  81.0435017
  44.8969987  18.1605006  81.1675017  45.7779987  19.4755006  81.8895017
  47.0249987  17.9315006  81.1185017  47.7769987  18.6005006  80.7055017
  46.8329987  17.1835006  80.3505017  47.6069987  17.2475006  82.3595017
  48.6729987  17.0915006  82.2125017  47.1619987  16.2575006  82.4435017
  47.3919987  18.0125006  83.6745017  47.2299987  17.2305006  84.4135017
  46.4329987  18.5085006  83.5405017  48.4209987  19.0315006  84.2255017
  48.6199987  19.7315006  83.4165017  49.3449987  18.4765006  84.3815017
  48.0829987  19.8045006  85.4835017  47.0009987  19.8625006  85.5905017
  48.4339987  20.8295006  85.3825017  48.6669987  19.2045006  86.7155017
  49.7439987  19.0845006  86.6205017  48.2649987  18.2085006  86.8955017
  48.3619987  20.0935006  87.9145017  47.3889987  20.5645006  87.7895017
  49.0879987  20.9035006  87.9765017  48.3919987  19.2935006  89.2135017
  49.3599987  19.4495006  89.6845017  48.3399987  18.2325006  88.9735017
  47.2939987  19.6375006  90.2365017  46.3109987  19.5115006  89.7895017
  47.3679987  20.6865006  90.5155017  47.4109987  18.7795006  91.5115017
  47.1759987  17.7375006  91.3015017  46.7239987  19.0955006  92.2915017
  48.8429987  18.8405006  92.0525017  49.1299987  19.8865006  92.0925017
  49.4729987  18.3695006  91.3025017  49.1309987  18.1815006  93.4215017
  48.8209987  17.1445006  93.4155017  48.5969987  18.6995006  94.2095017
  48.6169987  18.9815006  94.6085017  47.7789987  19.8585006  94.5945017
  49.0869987  18.3835006  95.6795017  48.3029987  18.5835006  96.8515017
  48.1689987  17.6105006  97.2995017  47.3379987  18.9805006  96.5735017
  49.0169987  19.5155006  97.8195017  50.0099987  19.1155006  97.9415017
  48.2869987  19.5485006  99.1955017  48.9879987  19.9915006  99.8895017
  48.1589987  18.5035006  99.4505017  47.0719987  20.2095006  99.2465017
  46.9389987  21.1275006 100.5265017  45.5449987  21.7405006 100.3115017
  44.4619987  21.1655006  99.6115017  43.7999987  20.5695006 100.2265017
  44.8089987  20.5155006  98.8135017  43.7029987  22.2805006  98.9145017
  43.0889987  22.8935006  99.5625017  43.0669987  21.8045006  98.1815017
  44.5659987  23.2335006  98.1515017  45.3919987  24.1445006  98.9735017
  44.7539987  24.6285006  99.6995017  45.8239987  24.8855006  98.3175017
  46.1789987  23.5745006  99.4455017  45.4089987  22.5305006  97.1435017
  44.7749987  21.8785006  96.5615017  46.1779987  21.9785006  97.6525017
  45.8489987  23.2855006  96.5075017  43.6799987  24.0785006  97.5225017
  43.0229987  23.4985006  96.8915017  44.2309987  24.7845006  96.9195017
  43.1009987  24.6105006  98.2635017  46.9709987  20.2965006 101.7485017
  48.0089987  22.1335006 100.3565017  49.0929987  20.8585006  97.3475017
  49.8749987  21.6425006  98.0995017  50.7829987  21.2615006  98.8245017
  49.5539987  23.1095006  97.8315017  48.4839987  23.2055006  97.6765017
  49.7829987  23.7145006  98.7055017  50.3469987  23.5735006  96.6225017
  50.5029987  24.6465006  96.6535017  51.3359987  23.1265006  96.5995017
  49.6039987  23.2245006  95.3765017  49.2329987  22.2045006  95.4405017
  48.7259987  23.8615006  95.3015017  50.3869987  23.3875006  94.1935017
  50.9639987  24.3105006  94.1705017  51.0879987  22.5855006  93.9745017
  49.3509987  23.4455006  93.0905017  48.8499987  22.4825006  93.0215017
  48.5859987  24.1645006  93.3775017  49.8399987  23.7945006  91.8555017
  50.2459987  24.7325006  92.2305017  50.6489987  23.0705006  91.8985017
  49.3619987  23.9975006  90.1945017  50.1919987  23.9585006  89.4985017
  48.6539987  23.2365006  89.8695017  48.7269987  25.2455006  90.1545017
  49.1879987  26.2135006  90.2785017  47.4589987  25.2235006  89.9315017
  46.8909987  26.1415006  89.8965017  46.6269987  23.9675006  89.6935017
  47.2929987  23.1095006  89.7655017  45.8849987  23.8425006  90.4745017
  45.9339987  23.9255006  88.3185017  45.2159987  23.1075006  88.2755017
  45.3629987  24.8385006  88.1625017  46.9599987  23.7695006  87.1795017
  47.9609987  23.9135006  87.5865017  46.9279987  22.7505006  86.8055017
  46.7419987  24.7435006  86.0225017  45.7969987  24.4865006  85.5505017
  46.6129987  25.7415006  86.4385017  47.8469987  24.7745006  84.9855017
  48.7299987  25.2845006  85.3655017  48.1769987  23.7775006  84.7075017
  47.3619987  25.5325006  83.7425017  46.3209987  25.8155006  83.8905017
  47.9199987  26.4645006  83.6655017  47.4759987  24.8055006  82.4465017
  47.2359987  25.4225006  81.5845017  48.4929987  24.4545006  82.2855017
  46.5579987  23.6205006  82.4835017  46.6759987  23.0135006  81.5915017
  45.5159987  23.9165006  82.5395017  46.7689987  22.9905006  83.3425017
  81.0779987  43.0595006  83.2935017  81.2509987  43.8705006  83.9945017
  80.0139987  42.8415006  83.2955017  81.3389987  43.4185006  82.3015017
  81.9799987  41.6955006  83.7005017  81.6319987  41.6035006  84.7275017
  82.9449987  42.1925006  83.7485017  82.1539987  40.1505006  83.0315017
  82.7949987  40.3245006  82.1675017  81.1609987  39.9485006  82.6335017
  82.6019987  39.0045006  83.7195017  82.6779987  38.0755006  83.1595017
  82.1389987  38.7455006  84.6705017  83.9719987  39.5255006  83.9645017
  83.9579987  40.4065006  84.6005017  84.4419987  39.8305006  83.0305017
  84.8019987  38.4785006  84.6115017  85.8389987  38.7985006  84.6935017
  84.8109987  37.5665006  84.0185017  84.2599987  38.1695006  85.9995017
  84.6879987  37.2165006  86.3055017  83.1889987  38.0025006  85.8945017
  84.5029987  39.2025006  87.0915017  84.3249987  40.1905006  86.6695017
  85.5569987  39.1715006  87.3605017  83.6529987  39.0325006  88.3565017
  83.6599987  37.9945006  88.6815017  82.6119987  39.2795006  88.1505017
  84.1669987  39.9205006  89.4885017  85.0429987  40.4665006  89.1445017
  84.5029987  39.2955006  90.3155017  83.1209987  40.8855006  89.9895017
  82.3739987  40.3735006  90.5915017  82.5789987  41.3565006  89.1715017
  83.7789987  41.9755006  90.8575017  83.1179987  42.8375006  90.9005017
  84.6859987  42.3125006  90.3595017  84.1329987  41.5265006  92.2455017
  84.3589987  42.4035006  92.8505017  85.0389987  40.9265006  92.2275017
  83.0269987  40.7395006  92.9515017  82.8309987  39.7865006  92.4715017
  82.0919987  41.2935006  92.9445017  83.4389987  40.4945006  94.4095017
  83.6719987  41.4315006  94.8995017  84.3109987  39.8525006  94.4525017
  82.3099987  39.8755006  95.2195017  81.1269987  40.1305006  95.0945017
  82.8509987  39.0825006  96.1205017  81.9419987  38.3185006  96.9305017
  81.2389987  37.8865006  96.2385017  81.4019987  38.9205006  97.6475017
  82.7799987  37.1695006  97.6615017  82.1909987  36.2695006  97.7385017
  83.0089987  37.7365006  99.0035017  83.3169987  36.9675006  99.6985017
  82.1019987  38.1915006  99.3755017  84.0059987  38.7395006  98.8655017
  84.5529987  39.2305006 100.2765017  86.0809987  39.1075006  99.9175017
  86.5639987  38.1105006  99.0105017  85.7389987  37.4465006  98.7845017
  87.3769987  37.5295006  99.4265017  87.0539987  38.7885006  97.7275017
  87.9069987  39.4065006  97.9625017  87.3499987  38.0215006  97.0245017
  86.0489987  39.7015006  97.0875017  85.1459987  39.2675006  96.9945017
  85.9629987  40.5485006  97.7695017  86.3489987  40.0205006  96.1825017
  84.1499987  40.6465006 100.3605017  84.1769987  38.2415006 101.3045017
  84.0379987  36.7955006  96.9435017  84.3969987  35.7495006  96.1795017
  83.9859987  34.6425006  96.0805017  85.4529987  35.9975006  95.0475017
  86.1389987  36.5805006  95.6525017  85.8699987  34.9945006  95.0075017
  85.2799987  36.6155006  93.5635017  84.2129987  36.5555006  93.3775017
  85.5049987  37.6705006  93.6815017  86.0069987  36.0735006  92.3935017
  85.9609987  34.9935006  92.2805017  85.6799987  36.4915006  91.4445017
  87.3739987  36.4895006  92.6355017  87.4509987  37.5715006  92.7205017
  87.7909987  36.0815006  93.5535017  88.2229987  36.0445006  91.4775017
  89.2799987  36.2185006  91.6705017  88.1169987  34.9735006  91.3175017
  87.8089987  36.7815006  90.1805017  87.6169987  36.0415006  89.4045017
  86.8729987  37.3095006  90.3395017  88.8559987  37.7795006  89.6795017
  89.7369987  37.1925006  89.4455017  88.4739987  38.1515006  88.7295017
  89.1979987  38.9365006  90.5385017  89.2199987  38.7915006  91.6085017
  89.4959987  40.1515006  90.0855017  89.7359987  40.9375006  90.7875017
  89.5449987  40.5815006  88.6415017  90.2709987  41.3865006  88.5415017
  89.8859987  39.7825006  87.9925017  88.1959987  41.0925006  88.1495017
  87.3939987  40.4125006  88.4335017  87.9619987  42.0485006  88.6145017
  88.2059987  41.2605006  86.6455017  89.1369987  41.7175006  86.3085017
  88.1349987  40.3035006  86.1355017  87.0589987  42.1255006  86.2405017
  86.1249987  41.7565006  86.6575017  87.1759987  43.1435006  86.6085017
  86.9749987  42.1485006  84.7025017  87.9869987  41.8875006  84.3975017
  86.3629987  41.2795006  84.4745017  86.5309987  43.3225006  83.8745017
  86.1069987  44.0165006  84.5985017  87.4609987  43.7735006  83.5335017
  85.5869987  43.2195006  82.6965017  86.2129987  43.0905006  81.8165017
  85.0799987  42.2675006  82.8405017  84.5229987  44.3135006  82.4175017
  83.8839987  44.0265006  81.5875017  84.9769987  45.2655006  82.1645017
  83.8879987  44.4715006  83.2845017  29.3559987  27.4155006  80.1495017
  29.5449987  28.1485006  79.3715017  29.1929987  26.4555006  79.6685017
  30.2569987  27.3335006  80.7515017  28.1459987  27.8175006  81.0155017
  27.2919987  27.9265006  80.3495017  28.3529987  28.8085006  81.4105017
  27.7899987  26.8975006  82.1135017  28.5509987  26.1175006  82.0975017
  26.8649987  26.4235006  81.7925017  27.6089987  27.3925006  83.5425017
  27.6759987  26.4925006  84.1495017  26.5709987  27.7175006  83.5975017
  28.4929987  28.4465006  84.1475017  27.9519987  28.8675006  84.9915017
  28.5679987  29.2405006  83.4055017  29.8879987  28.0535006  84.6035017
  30.5519987  27.9765006  83.7445017  29.8659987  27.0665006  85.0595017
  30.4669987  29.0575006  85.6015017  30.5769987  30.0025006  85.0735017
  31.4759987  28.7225006  85.8395017  29.6879987  29.2935006  86.9095017
  28.7499987  29.8005006  86.6855017  30.2519987  29.9675006  87.5515017
  29.3919987  27.9975006  87.6735017  30.2919987  27.3865006  87.6895017
  28.6469987  27.4265006  87.1215017  28.8959987  28.2175006  89.1205017
  28.4339987  27.2895006  89.4485017  28.0989987  28.9595006  89.0865017
  29.9649987  28.6665006  90.1425017  30.5739987  29.4515006  89.6995017
  30.6429987  27.8415006  90.3545017  29.3749987  29.1995006  91.4765017
  28.6279987  28.4795006  91.8025017  28.8329987  30.1115006  91.2345017
  30.3639987  29.5025006  92.6305017  29.8189987  30.0615006  93.3895017
  31.1399987  30.1675006  92.2625017  31.0199987  28.2975006  93.3115017
  31.7679987  28.6465006  94.0165017  31.5459987  27.7245006  92.5525017
  30.0409987  27.3645006  94.0355017  29.2649987  27.0295006  93.3585017
  29.5769987  27.8775006  94.8695017  30.7389987  26.3785006  94.8945017
  30.1069987  25.5345006  95.4825017  32.0359987  26.6275006  94.9775017
  32.7619987  25.8695006  95.9475017  33.6929987  25.6625006  95.4415017
  32.1889987  24.9565006  96.0205017  33.0249987  26.4425006  97.2965017
  33.8019987  25.8575006  97.7595017  31.8049987  26.4205006  98.1415017
  32.0349987  26.8225006  99.1185017  31.5009987  25.3875006  98.2535017
  30.7629987  27.1825006  97.5185017  29.8919987  28.2405006  98.2705017
  30.9889987  28.9475006  99.1715017  31.5969987  30.1325006  98.6645017
  31.8419987  30.0665006  97.6125017  32.5289987  30.3305006  99.1855017
  30.6939987  31.3725006  98.9535017  29.7139987  31.0705006  98.6065017
  30.9899987  32.2655006  98.4225017  30.5059987  31.7965006 100.4205017
  29.5349987  32.9185006 100.5855017  29.8139987  33.7175006  99.9125017
  29.5959987  33.2645006 101.6065017  28.5389987  32.5525006 100.3855017
  29.9069987  30.6635006 101.2025017  30.4799987  29.7705006 101.0055017
  28.8779987  30.5425006 100.9135017  29.9729987  30.9235006 102.2495017
  31.7919987  32.1375006 101.0865017  32.4519987  31.2835006 101.0445017
  31.5999987  32.3955006 102.1175017  32.2479987  32.9775006 100.5825017
  29.2589987  29.2085006  97.3485017  28.9699987  27.4595006  99.1325017
  33.4239987  27.7645006  97.2005017  34.4179987  27.9545006  96.4265017
  35.1419987  27.1355006  95.8875017  34.5939987  29.4155006  96.5325017
  34.1199987  29.7215006  97.4595017  35.6529987  29.6305006  96.6545017
  34.0069987  30.1685006  95.3015017  32.9789987  29.8585006  95.1485017
  33.9729987  31.2345006  95.5005017  34.7359987  29.9265006  94.1335017
  35.7139987  29.6005006  94.4775017  34.2589987  29.0505006  93.7005017
  34.8909987  30.9875006  93.0425017  34.4949987  31.9545006  93.3465017
  35.9189987  31.1635006  92.7335017  34.1269987  30.5205006  91.8915017
  34.2799987  29.4445006  91.8415017  33.0819987  30.6655006  92.1575017
  34.3649987  31.1205006  90.5385017  34.4969987  32.2015006  90.5605017
  35.2239987  30.7175006  90.0095017  33.1129987  30.7845006  89.7555017
  32.7819987  29.7785006  89.9855017  32.3039987  31.4495006  90.0535017
  33.3529987  30.9515006  88.2885017  33.1669987  31.9315006  87.8765017
  33.7889987  30.0035006  87.4405017  33.9199987  30.2805006  86.4045017
  34.1339987  28.5695006  87.7405017  34.3109987  28.5085006  88.8135017
  33.2759987  27.9385006  87.5375017  35.3729987  28.0005006  87.0135017
  36.2599987  28.4475006  87.4615017  35.4219987  26.9375006  87.2395017
  35.4139987  28.1955006  85.4905017  35.2839987  29.2605006  85.2985017
  36.4159987  27.9465006  85.1525017  34.3869987  27.4045006  84.6695017
  34.6049987  26.3415006  84.7495017  33.3919987  27.5435006  85.0895017
  34.3769987  27.8285006  83.1905017  35.3869987  27.6585006  82.8215017
  33.7459987  27.1135006  82.6685017  33.9719987  29.2595006  82.8135017
  32.9329987  29.4705006  83.0615017  34.5649987  30.0025006  83.3435017
  34.1679987  29.4695006  81.2865017  35.0919987  28.9925006  80.9705017
  33.3689987  28.9325006  80.7795017  34.1589987  30.9355006  80.8115017
  34.2129987  30.9905006  79.7285017  34.9999987  31.4955006  81.2075017
  33.2499987  31.4415006  81.1235017  79.7729987  81.9925006  82.9805017
  79.4109987  81.7085006  81.9975017  80.5489987  81.2875006  83.2645017
  80.2349987  82.9715006  82.8925017  78.6329987  82.0105006  84.0115017
  78.1899987  81.0155006  84.0045017  77.8759987  82.6835006  83.6185017
  78.9839987  82.3965006  85.4535017  78.0559987  82.3375006  86.0225017
  79.2509987  83.4505006  85.4215017  80.0909987  81.6345006  86.2075017
  80.2989987  82.1615006  87.1355017  81.0109987  81.6725006  85.6265017
  79.7589987  80.1775006  86.5365017  80.6099987  79.7385006  87.0505017
  79.6609987  79.6415006  85.5935017  78.4909987  79.9495006  87.3855017
  78.3549987  78.8755006  87.4975017  77.6379987  80.3065006  86.8125017
  78.4809987  80.6105006  88.7755017  78.8589987  81.6245006  88.6575017
  79.2079987  80.0845006  89.3925017  77.1139987  80.6545006  89.5175017
  76.6589987  79.6645006  89.5075017  76.4269987  81.3105006  88.9855017
  77.2509987  81.1435006  90.9955017  77.5889987  82.1775006  90.9615017
  78.0619987  80.5745006  91.4485017  75.9869987  81.0435006  91.8975017
  75.7869987  79.9895006  92.0745017  75.1369987  81.4245006  91.3325017
  76.0829987  81.8085006  93.2625017  76.2999987  82.8465006  93.0185017
  76.9629987  81.4295006  93.7795017  74.8519987  81.7765006  94.2405017
  74.6339987  80.7375006  94.4775017  73.9859987  82.1535006  93.6985017
  75.0169987  82.6055006  95.5565017  74.8889987  83.6555006  95.2985017
  76.0389987  82.5015006  95.9115017  74.0519987  82.2785006  96.7055017
  73.0369987  82.1575006  96.3415017  74.0349987  83.0985006  97.4175017
  74.4789987  81.0015006  97.4415017  75.5019987  81.0865006  97.7855017
  74.4039987  80.1435006  96.7835017  73.8829987  79.7105006  96.9445017
  73.0399987  79.5475006  96.0795017  74.2919987  78.8405006  97.8355017
  73.9029987  77.5445006  97.4785017  73.0119987  77.9555006  97.0275017
  73.6269987  76.7185006  98.1185017  74.9239987  77.0755006  96.3525017
  74.6969987  76.0555006  96.0885017  76.2259987  77.1205006  97.2595017
  76.8929987  76.2965006  97.0465017  75.9479987  77.0805006  98.3055017
  76.8149987  78.2805006  96.9805017  78.2279987  78.6095006  97.3735017
  77.6969987  79.5735006  98.5075017  76.9719987  79.0465006  99.6275017
  76.9859987  77.9665006  99.6985017  75.9269987  79.3395006  99.5925017
  77.5269987  79.6885006 100.9035017  76.9849987  79.3175006 101.7645017
  77.4339987  80.7645006 100.8725017  78.9759987  79.4085006 101.1815017
  79.1699987  77.9225006 101.1145017  78.4309987  77.4495006 101.7455017
  80.1599987  77.6985006 101.4835017  79.0849987  77.6045006 100.0865017
  79.8649987  80.0655006 100.1605017  79.5759987  81.1015006 100.0705017
  79.7669987  79.5465006  99.2235017  80.8799987  79.9945006 100.5225017
  79.4739987  79.8605006 102.5125017  79.3209987  80.9255006 102.6065017
  80.5269987  79.6375006 102.5915017  78.9359987  79.3435006 103.2935017
  78.8979987  77.4385006  98.0115017  78.8059987  79.2525006  96.1925017
  74.5779987  77.6195006  95.0845017  74.2949987  76.7115006  93.9895017
  74.1429987  75.5065006  93.9895017  74.9799987  77.4835006  92.9525017
  74.3619987  78.3585006  92.7805017  75.9089987  77.8545006  93.3775017
  75.2259987  76.7375006  91.7195017  75.5339987  75.7385006  92.0095017
  74.2749987  76.6225006  91.2095017  76.3119987  77.3495006  90.7135017
  76.3049987  78.4235006  90.8785017  77.2729987  76.9935006  91.0765017
  76.2089987  77.0325006  89.1405017  76.9859987  77.5665006  88.5965017
  76.3589987  75.9775006  88.9265017  74.8919987  77.4475006  88.6005017
  74.0889987  76.7835006  88.9145017  74.6169987  78.4415006  88.9485017
  74.9649987  77.4665006  87.1055017  75.9309987  77.8335006  86.7625017
  74.8409987  76.4775006  86.6725017  73.8669987  78.3705006  86.5735017
  73.5979987  78.0005006  85.5905017  72.9969987  78.2135006  87.2095017
  74.1749987  79.8505006  86.5335017  73.8719987  80.4585006  87.3725017
  74.7989987  80.4545006  85.5535017  75.0139987  81.5135006  85.5405017
  75.2699987  79.7395006  84.3785017  76.3309987  79.8625006  84.1695017
  75.0669987  78.6765006  84.3055017  74.5229987  80.4435006  83.3575017
  73.4489987  80.3085006  83.2335017  74.7239987  81.4905006  83.1375017
  75.2539987  79.5825006  82.3685017  75.5539987  78.7495006  83.0045017
  74.4319987  79.2175006  81.7585017  76.3659987  79.9535006  81.5095017
  76.2889987  81.0385006  81.4935017  77.2329987  79.7185006  82.1245017
  76.6289987  79.3505006  79.8895017  76.6909987  78.2645006  79.9085017
  75.7809987  79.5885006  79.2535017  78.1109987  79.9635006  79.1695017
  77.9129987  81.0215006  79.3325017  78.7839987  79.6555006  79.9675017
  78.8769987  79.7965006  77.7615017  78.5639987  78.8015006  77.4545017
  78.3049987  80.4895006  77.1475017  80.1689987  79.9555006  77.4935017
  80.3569987  79.8565006  76.4285017  80.7819987  79.2195006  78.0015017
  80.5129987  80.9395006  77.7995017  66.0139987  23.8895006  79.9165017
  65.2409987  23.8995006  79.1545017  66.5659987  24.8215006  79.8405017
  65.5219987  23.8765006  80.8855017  66.9419987  22.6805006  79.7535017
  67.4029987  22.7045006  78.7675017  66.3529987  21.7685006  79.7925017
  68.0839987  22.6435006  80.8645017  68.0999987  23.5835006  81.4165017
  69.0549987  22.5625006  80.3805017  67.9409987  21.5365006  81.8035017
  68.9449987  21.2645006  82.1215017  67.5589987  20.6825006  81.2455017
  67.0949987  21.7525006  83.0215017  66.0949987  22.0525006  82.7195017
  67.5069987  22.5865006  83.5875017  66.9909987  20.5285006  83.9315017
  66.8579987  19.6855006  83.2555017  66.0469987  20.6475006  84.4585017
  68.0649987  20.2075006  84.9135017  69.0059987  20.0115006  84.4035017
  67.8229987  19.3005006  85.4655017  68.2569987  21.3705006  85.9055017
  68.7699987  22.1805006  85.3895017  68.9279987  21.0405006  86.6965017
  66.9449987  21.9165006  86.5405017  66.4039987  21.0705006  86.9585017
  66.3239987  22.3055006  85.7345017  67.1109987  23.0035006  87.6245017
  67.8359987  22.6305006  88.3445017  66.1639987  23.0805006  88.1575017
  67.5279987  24.3965006  87.1325017  66.7619987  24.8355006  86.4975017
  68.4359987  24.3635006  86.5325017  67.7509987  25.3305006  88.3435017
  66.9079987  25.2375006  89.0235017  67.7469987  26.3615006  87.9935017
  69.0799987  25.0695006  89.1015017  69.8849987  25.1705006  88.3755017
  69.0909987  24.0325006  89.4265017  69.4089987  25.9825006  90.3105017
  69.6989987  26.9605006  89.9415017  70.2779987  25.5655006  90.8115017
  68.2789987  26.1455006  91.3435017  67.9499987  25.1785006  91.7015017
  67.4329987  26.6575006  90.9005017  68.6799987  26.9175006  92.6115017
  69.1159987  28.0495006  92.6775017  68.5029987  26.0965006  93.6365017
  69.0679987  26.5095006  94.8765017  68.5799987  27.4115006  95.2145017
  70.1099987  26.7225006  94.6845017  68.9159987  25.3805006  95.9415017
  67.8789987  25.2405006  96.1985017  69.7199987  25.7675006  97.2005017
  69.4629987  26.7795006  97.4835017  70.7679987  25.7385006  96.9305017
  69.4579987  24.8665006  98.2755017  68.6329987  25.3085006  99.5555017
  68.7279987  23.9855006 100.4505017  69.8379987  23.1035006 100.4625017
  69.8369987  22.4645006 101.3355017  70.7579987  23.6795006 100.5045017
  69.9399987  22.2685006  99.1615017  70.8449987  21.6775006  99.2245017
  70.0109987  22.9225006  98.3045017  68.8309987  21.2905006  98.8455017
  67.4659987  21.9125006  98.9315017  67.3759987  22.4165006  99.8845017
  66.7339987  21.1205006  98.8675017  67.3379987  22.5925006  98.1025017
  68.9819987  20.8605006  97.4185017  70.0049987  20.5545006  97.2595017
  68.7109987  21.6785006  96.7745017  68.3159987  20.0245006  97.2605017
  68.8819987  20.1485006  99.8045017  69.8469987  19.6695006  99.7355017
  68.1069987  19.4395006  99.5535017  68.7259987  20.5135006 100.8095017
  69.3339987  26.4355006 100.2245017  67.2299987  25.5265006  99.1505017
  69.4849987  24.1345006  95.4575017  68.6589987  23.4015006  94.7405017
  67.4839987  23.6315006  94.5355017  69.3619987  22.1605006  94.2265017
  70.3939987  22.1615006  94.5635017  68.9179987  21.2545006  94.6315017
  69.2579987  22.1905006  92.6945017  68.4009987  22.7805006  92.3875017
  70.1259987  22.6715006  92.2545017  69.1129987  20.7695006  92.1395017
  69.8999987  20.1495006  92.5605017  68.1749987  20.3635006  92.5115017
  69.1199987  20.6605006  90.6075017  69.2329987  19.6165006  90.3215017
  68.1719987  20.9895006  90.1885017  70.2569987  21.4665006  89.9575017
  70.1529987  21.4825006  88.8745017  70.2109987  22.5045006  90.2815017
  71.6349987  20.8965006  90.3295017  71.8149987  21.0715006  91.3895017
  71.6429987  19.8195006  90.1905017  72.7879987  21.5075006  89.5095017
  73.7049987  20.9855006  89.7575017  72.5969987  21.3085006  88.4555017
  72.9419987  22.9965006  89.6985017  73.3179987  23.3145006  90.6595017
  72.6739987  23.9545006  88.7995017  72.8279987  24.9945006  89.0485017
  72.1559987  23.7265006  87.3995017  72.4639987  22.7395006  87.0585017
  71.0729987  23.7405006  87.3495017  72.7219987  24.7635006  86.4335017
  72.6529987  25.7505006  86.8895017  73.7839987  24.5655006  86.2985017
  72.0299987  24.7835006  85.0545017  72.7329987  25.2055006  84.3365017
  71.8599987  23.7555006  84.7455017  70.7029987  25.5665006  84.9855017
  70.0689987  25.1855006  85.7835017  70.9209987  26.6025006  85.2385017
  69.9389987  25.5195006  83.6335017  69.9009987  24.4965006  83.2635017
  68.9049987  25.8265006  83.7645017  70.6159987  26.3905006  82.5535017
  70.3119987  27.4165006  82.7535017  71.6849987  26.3475006  82.7555017
  70.3929987  26.1005006  81.0875017  70.9039987  25.1425006  81.0305017
  69.3329987  25.8665006  81.1525017  70.6559987  26.9265006  79.7395017
  70.2709987  26.3895006  78.8775017  71.7129987  27.0995006  79.5695017
  70.1649987  27.8945006  79.7725017  40.7349987  84.9395006  79.7825017
  40.6689987  85.8495006  79.1945017  40.6359987  84.0985006  79.1025017
  41.7309987  84.8965006  80.2155017  39.7149987  84.9035006  80.8155017
  38.7119987  84.9455006  80.3935017  39.7989987  85.7525006  81.4875017
  39.8719987  83.6485006  81.5645017  39.0719987  83.0355006  81.1485017
  39.5389987  83.9445006  82.5575017  41.1349987  82.7985006  81.7095017
  41.8819987  82.9425006  80.9325017  40.9869987  81.7225006  81.7895017
  41.6599987  83.3005006  82.9495017  41.6179987  84.3845006  83.0105017
  42.7049987  83.0275006  83.0835017  40.8589987  82.7255006  84.0565017
  41.5629987  82.3155006  84.7785017  40.3129987  81.8775006  83.6485017
  39.8959987  83.6415006  84.7655017  39.3389987  82.9685006  85.4145017
  39.2079987  83.9425006  83.9775017  40.3179987  84.8675006  85.5585017
  39.4939987  85.1135006  86.2265017  40.3939987  85.6935006  84.8535017
  41.6019987  84.7755006  86.3605017  41.7859987  85.7495006  86.8075017
  42.4199987  84.6025006  85.6625017  41.6329987  83.7095006  87.4445017
  41.5779987  82.7235006  86.9895017  40.7529987  83.8015006  88.0805017
  42.8589987  83.8155006  88.2865017  42.7059987  84.4555006  89.1525017
  43.7089987  84.2325006  87.7485017  43.2219987  82.3815006  88.7925017
  42.7829987  81.6935006  88.0735017  42.6659987  82.2485006  89.7185017
  44.6169987  82.0345006  89.0325017  45.3529987  82.3355006  88.2885017
  44.8849987  81.0255006  89.3345017  44.7329987  82.8245006  90.0505017
  44.8769987  83.7805006  89.5575017  45.7049987  82.5155006  90.4265017
  43.3959987  83.0845006  91.7305017  43.2119987  82.1355006  92.2185017
  42.4489987  83.4955006  91.3995017  43.6589987  84.7805006  93.3455017
  44.6259987  85.6395006  93.4705017  43.4459987  84.2995006  94.4175017
  44.1219987  84.2015006  95.7415017  45.1739987  84.3705006  95.9155017
  43.8179987  83.3035006  96.2605017  43.3809987  85.2975006  96.1675017
  43.5559987  85.5535006  97.1995017  41.9699987  84.7965006  95.9965017
  41.7749987  83.8785006  96.5335017  41.7309987  84.6445006  94.9515017
  41.2119987  85.8365006  96.5205017  39.8439987  85.3465006  97.0785017
  40.1829987  85.2655006  98.6405017  40.6909987  86.4345006  99.2695017
  40.2059987  87.3295006  98.9035017  41.7459987  86.5385006  99.0355017
  40.6239987  86.3575006 100.8105017  41.0169987  87.2875006 101.2025017
  41.2689987  85.5485006 101.1215017  39.2959987  86.1335006 101.5285017
  38.6939987  84.8405006 101.0955017  38.6709987  84.8145006 100.0145017
  37.6859987  84.7965006 101.4815017  39.2749987  84.0285006 101.5055017
  39.5369987  86.1055006 102.9995017  40.1219987  86.9715006 103.2675017
  40.0459987  85.1935006 103.2545017  38.5729987  86.1445006 103.4855017
  38.3169987  87.2305006 101.1835017  38.7389987  88.1845006 101.4625017
  37.3979987  87.0685006 101.7255017  38.1179987  87.2155006 100.1215017
  38.8739987  86.4245006  96.8315017  39.5989987  83.9695006  96.5935017
  43.4129987  86.4525006  95.3175017  44.2509987  87.1945006  95.6075017
  45.1059987  86.9505006  96.5045017  44.0099987  88.3555006  94.4375017
  42.9979987  88.6635006  94.6795017  44.6559987  89.1595006  94.7815017
  44.1899987  88.1065006  92.9325017  44.9609987  87.3545006  92.8045017
  43.2769987  87.6705006  92.5385017  44.5629987  89.3465006  92.1235017
  45.3859987  89.8925006  92.5775017  44.8969987  89.0665006  91.1275017
  43.4319987  90.1885006  92.0005017  43.2429987  90.6605006  92.9625017
  43.6359987  90.9955006  91.3015017  42.1709987  89.4715006  91.5655017
  42.1869987  88.4415006  91.9155017  41.3109987  89.9395006  92.0395017
  41.9689987  89.4885006  90.0885017  41.5959987  90.4975006  89.9195017
  42.9819987  89.4675006  89.6975017  41.1299987  88.5095006  89.3075017
  41.3859987  88.4375006  88.2565017  41.1709987  87.4955006  89.7025017
  39.7709987  89.0275006  89.4865017  39.5109987  89.6195006  90.3515017
  38.8319987  88.8105006  88.6135017  37.8269987  89.1845006  88.7455017
  39.0349987  88.0325006  87.3415017  40.0819987  87.7895006  87.1695017
  38.4899987  87.0985006  87.2655017  38.5969987  88.9355006  86.2845017
  37.5919987  89.2895006  86.5095017  39.2369987  89.8155006  86.2935017
  38.6179987  88.3175006  84.8995017  38.1919987  87.3585006  85.1955017
  37.7969987  88.9035006  84.4955017  39.7379987  88.0715006  83.7315017
  40.6009987  87.7665006  84.3195017  39.3679987  87.1705006  83.2455017
  40.1979987  89.1615006  82.5785017  39.4059987  88.8935006  81.8815017
  39.8289987  90.0215006  83.1305017  41.3799987  89.5365006  81.7955017
  41.2869987  89.2865006  80.7405017  41.5909987  90.6035006  81.8355017
  42.6219987  88.7575006  82.3895017  42.9689987  89.3895006  83.2035017
  42.1549987  87.8965006  82.8625017  43.9779987  88.2145006  81.4635017
  44.6559987  87.6305006  82.0785017  44.5449987  89.0425006  81.0515017
  43.6589987  87.5875006  80.6355017  82.0709987  69.2195006  80.3005017
  81.7899987  70.2285006  80.0155017  81.2409987  68.7875006  80.8525017
  82.1959987  68.6415006  79.3895017  83.3689987  69.2145006  81.1465017
  83.1849987  69.8495006  82.0115017  84.1259987  69.7195006  80.5535017
  83.8759987  67.8965006  81.6075017  83.5569987  67.1875006  80.8435017
  83.2859987  67.6705006  82.4935017  85.4489987  67.6415006  81.9555017
  86.0529987  68.0195006  81.1335017  85.6419987  66.5705006  82.0035017
  85.8609987  68.2165006  83.0885017  85.2339987  67.9915006  83.9475017
  85.9079987  69.3025006  83.0205017  87.2469987  67.6735006  83.3385017
  87.5819987  68.1555006  84.2555017  87.8629987  68.0795006  82.5385017
  87.4889987  66.1505006  83.4445017  87.8059987  65.7395006  82.4875017
  86.5709987  65.6285006  83.7105017  88.5389987  65.8635006  84.4795017
  89.3879987  66.5425006  84.4085017  88.9459987  64.8575006  84.3915017
  87.8909987  66.0195006  85.8265017  86.9359987  65.5005006  85.8685017
  87.6779987  67.0655006  86.0455017  88.7739987  65.4855006  86.8505017
  89.5969987  66.1385006  87.1315017  89.2179987  64.5175006  86.6175017
  87.8059987  65.3255006  88.0275017  88.2959987  64.5765006  88.6455017
  86.9449987  64.8325006  87.5805017  87.3319987  66.4395006  88.9195017
  86.4199987  66.7845006  88.4385017  88.0719987  67.2225006  88.7655017
  87.1069987  66.2745006  90.4005017  88.0229987  65.8645006  90.8225017
  86.3389987  65.5215006  90.5535017  86.7519987  67.4935006  91.1725017
  85.8179987  67.9275006  90.8305017  87.5159987  68.2565006  91.0505017
  86.6339987  67.1525006  92.6735017  87.5439987  66.6865006  93.0295017
  85.8069987  66.4725006  92.8425017  86.1409987  68.3715006  93.4155017
  86.0579987  69.4455006  92.8785017  85.6609987  68.1565006  94.6075017
  85.0939987  69.3775006  95.1795017  84.6759987  69.9525006  94.3675017
  85.8489987  69.9685006  95.6775017  83.9789987  68.9545006  96.1675017
  83.3609987  69.7825006  96.4745017  84.6759987  68.3405006  97.3925017
  83.9989987  68.3245006  98.2365017  85.5279987  68.9595006  97.6435017
  85.0959987  67.0315006  97.0705017  85.9279987  66.1865006  98.0795017
  84.7729987  65.5365006  98.9545017  84.7909987  65.4975006 100.3735017
  84.0499987  66.1515006 100.8155017  85.7569987  65.8345006 100.7395017
  84.6379987  64.0405006 100.9035017  83.6179987  63.7685006 100.6615017
  84.7589987  64.0145006 101.9765017  85.5119987  62.9105006 100.3545017
  86.9549987  63.2885006 100.4665017  87.0909987  64.2675006 100.0275017
  87.5339987  62.5605006  99.9175017  87.2419987  63.2705006 101.5075017
  85.3049987  61.6515006 101.1395017  84.2449987  61.4645006 101.2145017
  85.7539987  61.7655006 102.1105017  85.7849987  60.8495006 100.5975017
  85.0689987  62.6835006  98.9425017  84.0189987  62.4335006  98.9355017
  85.6379987  61.8695006  98.5185017  85.2349987  63.5805006  98.3635017
  86.6209987  65.1435006  97.2965017  86.7059987  67.1095006  98.9285017
  83.1259987  68.0135006  95.4965017  81.9899987  67.6235006  96.0645017
  81.4579987  68.1865006  97.0075017  81.3919987  66.4105006  95.3285017
  80.8959987  65.8045006  96.0805017  80.6069987  66.7625006  94.6645017
  82.4599987  65.6075006  94.5515017  83.0269987  66.2985006  93.9375017
  83.1669987  65.1835006  95.2575017  81.8959987  64.5195006  93.6775017
  81.2429987  63.9315006  94.3175017  81.2469987  65.0315006  92.9705017
  82.8189987  63.6135006  92.9115017  83.4329987  63.1145006  93.6595017
  82.2069987  62.8395006  92.4555017  83.7409987  64.2015006  91.8495017
  84.2199987  65.0885006  92.2595017  84.5379987  63.4835006  91.6675017
  83.1009987  64.5425006  90.5495017  82.6029987  63.6365006  90.2075017
  82.3159987  65.2655006  90.7525017  84.0049987  65.0965006  89.4075017
  84.3759987  65.9625006  89.9435017  84.7859987  64.3405006  89.4685017
  83.7629987  65.4155006  87.9725017  83.6449987  66.3635006  87.4705017
  83.7039987  64.3085006  87.2125017  83.5599987  64.6505006  86.1975017
  83.7759987  62.8735006  87.3455017  84.8209987  62.5865006  87.2425017
  83.4729987  62.5665006  88.3405017  82.9489987  62.0885006  86.2885017
  82.6609987  61.0895006  86.6115017  82.0269987  62.5945006  86.0095017
  83.7979987  61.9925006  85.1425017  84.0349987  60.9335006  85.2465017
  83.0159987  62.0565006  84.3915017  85.0489987  62.7465006  84.6475017
  85.0059987  63.7665006  85.0235017  85.9329987  62.2945006  85.0945017
  85.2029987  62.7575006  83.1255017  85.9459987  63.5115006  82.8735017
  85.6289987  61.8065006  82.8185017  83.9919987  63.0395006  82.3475017
  83.2079987  62.3415006  82.6345017  83.6229987  64.0305006  82.6065017
  84.1699987  62.9715006  80.8575017  83.3919987  63.5475006  80.3625017
  85.1069987  63.4665006  80.6105017  84.1959987  61.5875006  80.2975017
  84.4149987  61.6065006  79.2345017  83.2459987  61.0805006  80.4255017
  84.9589987  60.9845006  80.7815017  23.0349987  84.2455006  83.0385017
  23.0349987  84.9915006  82.2495017  22.1239987  84.3745006  83.6155017
  22.9909987  83.2665006  82.5685017  24.1109987  84.3575006  83.8085017
  24.2209987  85.2525006  84.4185017  25.0859987  84.1665006  83.3675017
  23.7229987  83.2535006  84.6525017  24.4349987  83.2245006  85.4775017
  23.8989987  82.3515006  84.0705017  22.2919987  83.1995006  85.2145017
  22.1249987  82.1925006  85.5895017  21.5949987  83.3325006  84.3885017
  21.9419987  84.2415006  86.3755017  21.9239987  85.1955006  85.8555017
  22.8509987  84.2375006  86.9755017  20.6899987  84.1555006  87.3285017
  19.8629987  84.7555006  86.9525017  20.9179987  84.5395006  88.3205017
  20.2049987  82.5645006  87.4525017  20.6569987  81.9445006  86.6805017
  19.1269987  82.4615006  87.3325017  20.5639987  82.0995006  88.6635017
  20.0539987  82.6235006  89.4705017  21.6299987  82.2195006  88.8495017
  20.2289987  80.7085006  88.7175017  20.7899987  80.1865006  89.4895017
  20.4559987  80.1995006  87.7815017  18.8239987  80.5945006  88.9905017
  18.1299987  80.9665006  88.2405017  18.4619987  80.9615006  89.9505017
  18.8129987  79.1295006  89.0005017  19.7719987  78.9165006  88.5345017
  18.0569987  78.9205006  88.2455017  18.6409987  78.2445006  90.0915017
  19.5139987  77.6265006  90.2885017  17.8089987  77.5585006  89.9485017
  18.3549987  79.0885006  91.2425017  17.2969987  79.1615006  91.4895017
  18.7269987  80.1085006  91.1915017  18.9749987  78.4435006  92.2545017
  19.9159987  78.0665006  91.8675017  18.3599987  77.5775006  92.4845017
  19.2359987  79.2145006  93.5525017  18.3139987  79.6285006  93.9395017
  19.9339987  80.0245006  93.3765017  19.8939987  78.5735006  94.9935017
  19.4829987  77.8835006  95.9735017  21.0609987  78.6715006  94.7065017
  21.8729987  77.8565006  95.5405017  21.9359987  76.8745006  95.1025017
  21.5659987  77.7595006  96.5725017  23.2099987  78.5685006  95.4345017
  23.6689987  78.4205006  94.4695017  24.1419987  78.0485006  96.5445017
  25.1059987  78.5345006  96.4825017  24.2869987  76.9845006  96.4285017
  23.5109987  78.2985006  97.8085017  24.2009987  77.7755006  99.1255017
  23.9389987  78.9835006 100.1405017  23.2359987  80.1475006  99.7835017
  23.5269987  80.4265006  98.7785017  23.4229987  80.9825006 100.4465017
  21.7529987  79.8225006  99.8205017  21.5139987  78.9665006  99.2085017
  21.4009987  79.6505006 100.8285017  21.0169987  80.9735006  99.2195017
  21.3129987  81.8555006  99.6025017  21.2709987  80.9485006  98.1595017
  20.0219987  80.8885006  99.3345017  23.4769987  76.5855006  99.6075017
  25.6489987  77.6755006  98.8895017  22.9009987  79.9945006  95.5245017
  23.8519987  80.8765006  95.6235017  25.0459987  80.6785006  95.6375017
  23.2709987  82.2955006  95.7475017  22.4049987  82.2285006  96.3985017
  23.9869987  82.9255006  96.2695017  22.9129987  82.8865006  94.3725017
  22.8069987  83.9595006  94.4895017  23.7559987  82.7395006  93.7045017
  21.6499987  82.3275006  93.7405017  21.5699987  81.2615006  93.9375017
  20.7829987  82.7875006  94.2085017  21.5869987  82.5905006  92.2245017
  20.5569987  82.4565006  91.8985017  21.8379987  83.6285006  92.0195017
  22.4949987  81.6745006  91.3605017  22.2859987  81.8385006  90.3055017
  23.5329987  81.9625006  91.5115017  22.3479987  80.1745006  91.6845017
  22.9159987  79.9775006  92.5925017  21.3079987  79.9695006  91.9225017
  22.8009987  79.2015006  90.5785017  22.5669987  78.1825006  90.8635017
  22.2369987  79.4035006  89.6685017  24.2539987  79.3565006  90.2825017
  24.9429987  79.1365006  91.0845017  24.7869987  79.7345006  89.0985017
  25.8659987  79.7895006  89.0675017  24.1079987  80.0965006  87.7815017
  23.2669987  80.7425006  88.0285017  24.7799987  80.6925006  87.1745017
  23.5719987  78.8985006  86.9385017  24.3049987  78.0945006  86.9845017
  22.6779987  78.5225006  87.4315017  23.2419987  79.2145006  85.4565017
  22.6979987  80.1585006  85.4305017  24.1759987  79.3875006  84.9285017
  22.4259987  78.1385006  84.7155017  22.3419987  78.4095006  83.6655017
  22.9559987  77.1885006  84.7425017  21.0589987  77.9595006  85.3095017
  20.5249987  77.1255006  84.8585017  21.0839987  77.7535006  86.3765017
  20.2949987  79.1695006  85.0535017  19.4599987  79.2725006  85.7445017
  20.9049987  80.0615006  85.1815017  19.7999987  79.1595006  83.7675017
  19.3179987  80.1085006  83.5475017  20.6449987  79.0915006  83.0855017
  18.8119987  77.9915006  83.4605017  18.5299987  77.9905006  82.4115017
  17.8999987  78.0685006  84.0425017  19.2639987  77.0285006  83.6815017
  26.4249987  41.7395006  81.8525017  25.9299987  41.8475006  80.8925017
  26.6649987  40.6885006  81.9855017  27.3619987  42.2865006  81.8045017
  25.5289987  42.2645006  83.0135017  24.5869987  41.7195006  83.0455017
  25.2729987  43.3075006  82.8495017  26.2439987  42.1055006  84.3465017
  27.3019987  42.2685006  84.1425017  26.1459987  41.0535006  84.6055017
  25.8249987  42.9505006  85.5675017  25.6539987  43.9975006  85.3255017
  26.5459987  42.9435006  86.3835017  24.5059987  42.3375006  86.0495017
  24.6949987  41.3105006  86.3505017  23.8359987  42.2855006  85.1925017
  23.8019987  43.0715006  87.1995017  24.4999987  43.1555006  88.0305017
  22.9819987  42.4495006  87.5525017  23.2619987  44.4715006  86.8445017
  22.4469987  44.3275006  86.1375017  24.0509987  44.9865006  86.2975017
  22.7799987  45.3635006  87.9995017  22.0629987  46.0575006  87.5635017
  23.6399987  45.9615006  88.2965017  22.1779987  44.7305006  89.2115017
  22.1609987  45.3945006  90.0735017  22.7079987  43.8335006  89.5295017
  20.9069987  44.4025006  88.8725017  20.8189987  43.5365006  88.2205017
  20.3389987  45.2015006  88.3965017  20.3039987  44.0995006  90.2125017
  19.2269987  44.2515006  90.1985017  20.6919987  44.7565006  90.9885017
  20.5989987  42.5435006  90.6245017  21.6219987  42.2755006  90.3705017
  19.9579987  41.8825006  90.0435017  20.3499987  42.2995006  92.0635017
  19.4459987  42.8725006  92.2615017  21.1579987  42.8215006  92.5695017
  20.1739987  40.8815006  92.7085017  21.1969987  40.5295006  92.7895017
  19.7129987  40.3245006  91.8975017  19.4039987  40.5505006  94.0465017
  18.3889987  40.9235006  94.0015017  19.9049987  41.0065006  94.8925017
  19.8589987  39.3205006  94.6075017  19.8759987  38.2705006  94.0375017
  20.1659987  39.5055006  95.8095017  20.7929987  38.3215006  96.2945017
  20.6909987  37.5905006  95.5065017  20.3109987  37.9485006  97.1865017
  22.3049987  38.6265006  96.5595017  22.7039987  37.6975006  96.9315017
  22.5529987  39.7445006  97.5775017  23.5909987  39.6575006  97.8685017
  21.9319987  39.4775006  98.4235017  22.2729987  41.0345006  97.1625017
  21.6059987  42.1085006  98.1045017  22.7339987  42.3275006  99.1845017
  24.0319987  42.5985006  98.7235017  24.0859987  43.4075006  98.0065017
  24.4639987  41.7275006  98.2385017  24.9289987  42.8725006  99.9275017
  25.9399987  42.8215006  99.5445017  24.8079987  42.1175006 100.6905017
  24.8239987  44.2185006 100.6485017  23.4959987  44.4445006 101.2905017
  22.7229987  44.2625006 100.5565017  23.4539987  45.4735006 101.6165017
  23.4029987  43.7895006 102.1445017  25.9539987  44.1405006 101.6005017
  26.8399987  43.8475006 101.0575017  25.7139987  43.4325006 102.3735017
  26.0879987  45.1255006 102.0245017  25.1239987  45.2685006  99.6395017
  26.1089987  45.0985006  99.2315017  25.0909987  46.2375006 100.1155017
  24.3889987  45.2295006  98.8485017  21.3699987  43.2755006  97.2625017
  20.4589987  41.5255006  98.8275017  22.9559987  38.9685006  95.3775017
  24.2519987  38.8905006  95.4475017  24.9619987  38.5755006  96.3935017
  24.6639987  39.3105006  94.1075017  25.5069987  38.7325006  93.7435017
  23.8849987  39.2055006  93.3565017  25.0319987  40.7955006  94.3235017
  24.3209987  41.2505006  95.0045017  26.0019987  40.8775006  94.8035017
  25.0359987  41.5615006  93.0325017  25.0449987  42.5925006  93.3775017
  26.0369987  41.3585006  92.6605017  24.0199987  41.3995006  91.8475017
  23.4369987  40.5515006  92.2025017  23.3899987  42.2765006  91.9765017
  24.3029987  41.1985006  90.3125017  23.4739987  41.6335006  89.7585017
  25.1789987  41.7955006  90.0655017  24.5429987  39.7345006  89.8225017
  24.6259987  39.8045006  88.7395017  25.5249987  39.4465006  90.1875017
  23.5939987  38.6875006  90.1645017  23.8639987  38.0385006  90.9895017
  22.5789987  39.0285006  90.3625017  23.6039987  37.9765006  88.9245017
  23.9699987  37.0935006  88.4225017  22.8419987  38.7905006  88.2265017
  22.9979987  38.1305006  87.3855017  21.8299987  40.1565006  87.8755017
  21.8139987  40.6105006  88.8645017  22.5009987  40.7605006  87.2755017
  20.1279987  40.2475006  87.1705017  20.2169987  39.5315006  86.3545017
  19.5729987  39.7425006  87.9585017  19.4249987  41.3245006  86.7515017
  18.3489987  41.1605006  86.8065017  19.6269987  42.2135006  87.3415017
  19.8149987  41.5735006  85.3205017  20.7979987  42.0235006  85.2035017
  19.8109987  40.6845006  84.6925017  18.8199987  42.4655006  84.8695017
  18.1029987  41.9625006  84.2245017  18.2409987  42.8815006  85.6895017
  19.4519987  43.5605006  84.0845017  18.7139987  44.3365006  83.8895017
  20.2299987  44.0275006  84.6845017  20.0749987  43.1165006  82.7265017
  20.4149987  44.0625006  82.3125017  20.9699987  42.6085006  83.0775017
  19.4309987  42.2705006  81.6105017  20.1499987  42.0565006  80.8255017
  18.5899987  42.7785006  81.1515017  19.0719987  41.3215006  81.9975017
  76.0519987  24.1925006  81.8295017  75.6289987  24.3335006  80.8395017
  75.5429987  23.3505006  82.2905017  77.0959987  23.9185006  81.7065017
  75.9149987  25.4235006  82.6565017  74.8509987  25.6545006  82.6805017
  76.3869987  26.2175006  82.0845017  76.4419987  25.4105006  84.0405017
  75.8689987  24.7785006  84.7185017  76.4589987  26.4005006  84.4925017
  77.8549987  24.8985006  83.9605017  78.4489987  25.4915006  83.2685017
  77.8989987  23.8745006  83.5945017  78.4909987  24.9685006  85.3245017
  79.0749987  24.0695006  85.5055017  77.7069987  24.9805006  86.0795017
  79.3859987  26.1825006  85.5115017  78.8569987  27.1135006  85.3145017
  80.2389987  26.1685006  84.8365017  79.8809987  26.1815006  86.9435017
  80.3739987  25.2365006  87.1625017  79.0349987  26.2495006  87.6265017
  80.8379987  27.3195006  87.2205017  80.5659987  28.2005006  86.6405017
  81.8489987  27.0555006  86.9165017  80.8359987  27.6715006  88.6935017
  79.8959987  28.1695006  88.9225017  81.6199987  28.4075006  88.8685017
  81.0309987  26.4875006  89.6515017  81.9009987  25.9135006  89.3385017
  80.1779987  25.8145006  89.5745017  81.1899987  26.9245006  91.0875017
  82.0839987  27.5435006  91.1175017  81.4219987  26.0305006  91.6635017
  80.0499987  27.6875006  91.7755017  79.1849987  27.0305006  91.7155017
  79.8369987  28.5315006  91.1225017  80.2209987  28.2145006  93.2275017
  81.2439987  28.5655006  93.3475017  80.0939987  27.3995006  93.9345017
  79.2969987  29.3395006  93.6055017  78.2749987  29.0725006  93.3585017
  79.5479987  30.2105006  93.0055017  79.3729987  29.7285006  95.0835017
  80.3919987  29.9675006  95.3605017  79.0249987  28.9135006  95.7065017
  78.3009987  30.7575006  95.2215017  77.9449987  31.4175006  94.2695017
  77.8839987  30.7435006  96.4335017  76.7289987  31.4095006  96.9205017
  76.0639987  31.6235006  96.0975017  77.0699987  32.3405006  97.3495017
  76.0069987  30.5395006  97.9825017  75.2799987  31.2645006  98.3105017
  76.6329987  29.9155006  99.1305017  75.9549987  29.2135006  99.5975017
  76.8839987  30.6855006  99.8495017  77.8039987  29.2535006  98.6875017
  78.7479987  28.6935006  99.7905017  78.8829987  27.1785006  99.3595017
  78.3659987  26.7025006  98.1165017  79.0869987  26.0605006  97.6275017
  78.2169987  27.5545006  97.4595017  76.9769987  26.0125006  98.2105017
  76.7939987  25.6175006  97.2195017  76.2309987  26.7625006  98.4285017
  76.7079987  24.8685006  99.1655017  76.0849987  25.4825006 100.3815017
  76.7079987  26.3025006 100.7115017  76.0409987  24.7265006 101.1515017
  75.0859987  25.8095006 100.1365017  75.7619987  23.9505006  98.4865017
  76.1409987  23.7375006  97.4985017  74.7919987  24.4135006  98.4445017
  75.7179987  23.0425006  99.0705017  77.9409987  24.1215006  99.5215017
  78.3949987  23.7355006  98.6215017  77.6829987  23.3035006 100.1765017
  78.6309987  24.7835006 100.0245017  79.9949987  29.4495006  99.6855017
  77.9949987  28.7125006 101.0645017  75.4619987  29.3675006  97.4415017
  74.8309987  28.2095006  97.6635017  74.3009987  28.1245006  98.7795017
  74.1169987  27.4265006  96.1155017  73.4499987  26.6715006  96.5175017
  73.4749987  28.1955006  95.6925017  75.0149987  26.8795006  95.1075017
  75.6149987  27.7035006  94.7375017  75.7039987  26.2095006  95.6115017
  74.3909987  26.1895006  93.9685017  73.4999987  25.6115006  94.1975017
  74.1239987  26.8445006  93.1425017  75.5039987  25.2695006  93.5145017
  75.9199987  24.8005006  94.4045017  75.0769987  24.4665006  92.9195017
  76.6729987  25.9245006  92.7125017  77.3359987  26.4115006  93.4245017
  77.2489987  25.1155006  92.2665017  76.2859987  26.9315006  91.5965017
  75.7849987  27.7785006  92.0625017  77.1889987  27.3245006  91.1375017
  75.3849987  26.3515006  90.4925017  74.8689987  25.4895006  90.8995017
  74.6179987  27.0925006  90.2715017  76.0999987  26.0025006  89.2125017
  76.9399987  25.3365006  89.3425017  75.8209987  26.3965006  87.9625017
  76.4729987  26.0145006  87.1895017  74.7289987  27.2935006  87.4545017
  74.5029987  27.1025006  86.4065017  73.7859987  27.2245006  87.9855017
  75.2499987  28.6495006  87.5685017  74.6339987  29.2245006  86.8785017
  74.9479987  28.9515006  88.5695017  76.6929987  29.0005006  87.3625017
  77.2709987  28.5395006  88.1635017  77.0319987  28.5395006  86.4385017
  76.9819987  30.4415006  87.3255017  76.3369987  30.9915006  88.0065017
  78.0039987  30.6575006  87.6325017  76.7789987  30.9175006  85.9465017
  75.9019987  30.3535006  85.6345017  76.4369987  31.9375006  86.1005017
  77.7749987  30.8745006  84.8285017  78.7869987  30.9665006  85.2205017
  77.7319987  29.9095006  84.3255017  77.5579987  31.9575006  83.8035017
  76.9219987  31.6375006  82.9815017  77.0539987  32.8105006  84.2525017
  78.7029987  32.3495006  83.3365017  78.5759987  33.1905006  82.6615017
  79.2069987  31.5625006  82.7855017  79.3639987  32.6665006  84.1385017
  85.3819987  33.4935006  81.3895017  85.5089987  33.8215006  80.3625017
  84.8569987  34.2785006  81.9255017  84.7399987  32.6165006  81.3795017
  86.7639987  33.1735006  82.0615017  87.4159987  34.0455006  82.0785017
  87.3019987  32.4005006  81.5195017  86.5059987  32.7375006  83.4385017
  85.5919987  32.1445006  83.4175017  86.2689987  33.6355006  84.0045017
  87.5789987  31.9735006  84.1785017  88.5579987  32.3385006  83.8765017
  87.5519987  30.9205006  83.9035017  87.4539987  32.1055006  85.7225017
  88.4329987  31.8885006  86.1415017  86.7969987  31.2995006  86.0455017
  86.9289987  33.4825006  86.3245017  85.9809987  33.7255006  85.8485017
  87.6239987  34.2695006  86.0385017  86.7479987  33.4955006  87.8535017
  86.7399987  34.5115006  88.2455017  87.5669987  32.9825006  88.3565017
  85.4929987  32.8415006  88.1895017  85.5379987  31.7745006  87.9765017
  84.6719987  33.2365006  87.5935017  85.1879987  33.0445006  89.6525017
  84.1549987  32.7785006  89.8665017  85.2929987  34.0945006  89.9225017
  86.1159987  32.2065006  90.5235017  87.1369987  32.4965006  90.2865017
  86.0139987  31.1665006  90.2145017  85.8829987  32.3065006  92.0095017
  85.6819987  33.3545006  92.2205017  86.8279987  32.0755006  92.4985017
  84.7969987  31.4855006  92.6245017  83.8939987  32.0005006  92.3075017
  84.9089987  31.6945006  93.6865017  84.6409987  30.0315006  92.4445017
  85.5669987  29.5385006  92.7335017  84.4829987  29.7925006  91.3965017
  83.4919987  29.4175006  93.2805017  82.5609987  29.9685006  93.1955017
  83.7389987  29.3785006  94.3385017  83.2809987  28.0095006  92.7855017
  84.2059987  27.4495006  92.8305017  82.9289987  28.0185006  91.7605017
  84.1809987  27.0555006  93.4055017  85.1649987  26.6585006  92.8375017
  83.5819987  26.6375006  94.5125017  84.1489987  25.5445006  95.2335017
  84.6979987  25.0225006  94.4675017  83.3769987  24.8925006  95.6165017
  85.1119987  26.0025006  96.3745017  85.6609987  25.1365006  96.7095017
  84.2789987  26.5955006  97.5585017  84.8569987  26.5055006  98.4685017
  83.3789987  26.0085006  97.6645017  83.9199987  27.9535006  97.3035017
  83.7599987  28.9915006  98.4765017  85.0969987  28.7585006  99.3265017
  85.5439987  29.8705006 100.1015017  84.6679987  30.3325006 100.5385017
  86.0649987  30.6065006  99.5025017  86.4899987  29.3835006 101.2145017
  87.0399987  30.2325006 101.5915017  85.8869987  28.9665006 102.0095017
  87.5379987  28.3675006 100.7775017  87.1379987  27.6145006 100.2425017
  88.2229987  28.9265006 100.1385017  88.0389987  27.9795006 101.5585017
  83.7999987  30.3395006  97.8845017  82.6899987  28.5355006  99.3715017
  86.0709987  26.9375006  95.8535017  86.9069987  27.5145006  96.6805017
  87.2339987  27.1525006  97.8015017  87.2799987  28.8625006  96.0755017
  86.5469987  29.0565006  95.2995017  87.1209987  29.6265006  96.8325017
  88.6929987  28.9105006  95.5435017  89.0029987  29.9475006  95.4725017
  89.3639987  28.4445006  96.2585017  88.8489987  28.2525006  94.1875017
  89.0869987  27.1935006  94.2505017  87.9389987  28.3235006  93.5965017
  89.9189987  28.9675006  93.4865017  89.7259987  30.0125006  93.7235017
  90.8299987  28.6995006  94.0165017  90.1799987  28.8505006  91.9315017
  90.7739987  29.7505006  91.7905017  90.8849987  28.0215006  91.9465017
  89.2029987  28.6635006  90.6915017  89.6149987  29.3925006  89.9955017
  89.4969987  27.6855006  90.3205017  87.7139987  28.7525006  90.6745017
  87.2339987  29.0305006  91.6055017  87.2969987  29.4045006  89.9085017
  87.4139987  27.3615006  90.3195017  88.2549987  26.7615006  90.6335017
  86.4469987  26.7565006  89.7735017  86.3459987  25.7005006  89.5675017
  85.3159987  27.5445006  89.3645017  84.4149987  26.9385006  89.2805017
  85.0669987  28.3695006  90.0235017  85.6559987  28.0855006  87.9835017
  86.4769987  28.8015006  87.9825017  85.9329987  27.3055006  87.2775017
  84.4009987  28.7605006  87.5065017  83.5639987  28.0675006  87.5895017
  84.1639987  29.6005006  88.1535017  84.5109987  29.2435006  86.0695017
  83.6539987  29.8685006  85.8285017  85.3899987  29.8745006  85.9525017
  84.5959987  28.0755006  85.0895017  85.5709987  27.6045006  85.1965017
  83.8679987  27.3195006  85.3715017  84.4179987  28.4485006  83.6365017
  85.1249987  29.2365006  83.3835017  84.6849987  27.5935006  83.0185017
  83.0489987  28.8995006  83.2535017  82.2559987  28.2235006  83.5635017
  82.8059987  29.8635006  83.6955017  83.0319987  29.0365006  81.7655017
  82.0859987  29.4475006  81.4275017  83.1669987  28.0815006  81.2685017
  83.8219987  29.7005006  81.4255017  59.7079987  18.0035006  78.2345017
  59.4879987  18.0095006  77.1715017  58.9119987  18.5415006  78.7405017
  59.6749987  16.9715006  78.5735017  61.0369987  18.6175006  78.5155017
  61.0649987  19.6465006  78.1605017  61.8179987  18.0875006  77.9765017
  61.3279987  18.5955006  80.0275017  60.4309987  18.9825006  80.5115017
  62.1019987  19.3445006  80.1845017  61.7659987  17.2775006  80.7355017
  62.4739987  16.7715006  80.0825017  60.8999987  16.6215006  80.8085017
  62.3959987  17.4315006  82.1065017  63.2379987  18.1005006  81.9475017
  62.8199987  16.4495006  82.3085017  61.6589987  17.8755006  83.2575017
  60.7399987  17.2995006  83.3535017  61.3559987  18.9125006  83.1265017
  62.4669987  17.7475006  84.5365017  63.4389987  18.2245006  84.4235017
  62.6659987  16.7005006  84.7595017  61.7379987  18.3725006  85.6965017
  61.0129987  17.6625006  86.0925017  61.1639987  19.2275006  85.3445017
  62.6719987  18.8205006  86.8225017  63.1679987  19.7425006  86.5255017
  63.4599987  18.0785006  86.9465017  61.9649987  19.0345006  88.1625017
  61.5729987  18.0935006  88.5435017  61.1079987  19.6975006  88.0475017
  62.9379987  19.6425006  89.1705017  63.1019987  20.6885006  88.9205017
  63.9079987  19.1555006  89.0865017  62.4609987  19.5645006  90.6115017
  62.5059987  18.5385006  90.9685017  61.4159987  19.8615006  90.6705017
  63.2809987  20.4775006  91.5275017  62.9959987  21.5175006  91.3805017
  64.3449987  20.4205006  91.3135017  63.0469987  20.1265006  93.0045017
  63.8599987  20.5465006  93.5885017  63.1209987  19.0455006  93.0945017
  61.6899987  20.5825006  93.6145017  60.8639987  20.2025006  93.0275017
  61.6309987  21.6645006  93.6375017  61.6769987  22.0405006  94.1355017
  62.3509987  22.9515006  93.6935017  60.8299987  22.1615006  95.1565017
  60.8409987  23.4705006  95.7835017  60.0329987  24.0345006  95.3425017
  61.7739987  23.9805006  95.5915017  60.6069987  23.2975006  97.3045017
  60.6699987  24.2705006  97.7625017  61.6639987  22.3535006  97.9275017
  62.6129987  22.5155006  97.4345017  61.3399987  21.3395006  97.7305017
  61.7869987  22.5715006  99.3245017  62.3549987  21.4195006 100.2695017
  61.2649987  20.2715006 100.1955017  59.8729987  20.3445006  99.9755017
  59.4809987  21.3425006 100.1235017  59.3529987  19.7015006 100.6795017
  59.4979987  19.8025006  98.5775017  60.0519987  20.3445006  97.8215017
  58.4439987  19.9955006  98.4405017  59.6949987  18.3475006  98.2635017
  61.1259987  17.9625006  98.3685017  61.7139987  18.6565006  97.7835017
  61.2329987  16.9665006  97.9665017  61.4149987  17.9665006  99.4085017
  58.8699987  17.5545006  99.2265017  57.8679987  17.9555006  99.2305017
  59.3199987  17.6085006 100.2015017  58.8579987  16.5325006  98.8765017
  59.2929987  18.1265006  96.8605017  58.2629987  18.4255006  96.7345017
  59.3969987  17.0785006  96.6225017  59.9259987  18.7105006  96.2075017
  63.5889987  20.8695006  99.6615017  62.4589987  22.0075006 101.6205017
  59.2909987  22.7605006  97.5395017  58.3889987  23.7455006  97.5085017
  58.6859987  24.9165006  97.4115017  57.0329987  23.1185006  97.7115017
  57.1099987  22.3645006  98.4885017  56.3219987  23.8535006  98.0795017
  56.5729987  22.5265006  96.3865017  55.5009987  22.3605006  96.3965017
  56.7639987  23.2075006  95.5635017  57.2759987  21.2085006  96.1365017
  58.3459987  21.3685006  96.0315017  57.1489987  20.5685006  97.0055017
  56.7519987  20.5025006  94.9515017  57.3299987  19.5805006  94.9805017
  55.7439987  20.2395006  95.2615017  56.7109987  20.9975006  93.5085017
  55.8849987  20.5635006  92.9495017  56.5709987  22.0755006  93.4675017
  57.9999987  20.6565006  92.8325017  58.8039987  20.6205006  93.5665017
  57.9529987  19.6695006  92.3805017  58.3529987  21.6775006  91.7445017
  58.7209987  22.5395006  92.2885017  59.2139987  21.2445006  91.2365017
  57.3339987  22.0835006  90.7065017  56.2879987  22.0395006  90.9705017
  57.6359987  22.5145006  89.4665017  56.8219987  22.7795006  88.8075017
  59.0049987  22.6875006  88.8545017  59.1639987  23.7435006  88.6415017
  59.7959987  22.3925006  89.5345017  59.1449987  21.9025006  87.5355017
  59.1439987  20.8275006  87.7105017  58.3029987  22.1035006  86.8765017
  60.4429987  22.3035006  86.8295017  61.2769987  22.2025006  87.5245017
  60.6449987  21.6175006  86.0115017  60.4029987  23.7465006  86.2905017
  59.4229987  23.9265006  85.8555017  60.4979987  24.4405006  87.1235017
  61.4979987  24.0445006  85.2565017  61.3299987  25.0575006  84.8945017
  62.4489987  24.0705006  85.7815017  61.5959987  23.1205006  84.0405017
  62.2199987  23.5665006  83.2675017  62.0759987  22.1815006  84.3115017
  60.2449987  22.8125006  83.4465017  60.3469987  22.1035006  82.6285017
  59.6509987  22.3055006  84.2045017  59.4829987  24.0315006  82.9655017
  58.4869987  23.7565006  82.6315017  59.9819987  24.5195006  82.1345017
  59.3739987  24.7635006  83.7615017  30.6779987  80.0845006  81.9145017
  30.9249987  79.0885006  81.5595017  30.6809987  80.7515006  81.0575017
  29.6639987  80.0545006  82.3045017  31.6679987  80.5555006  82.9875017
  32.6699987  80.5365006  82.5635017  31.6639987  79.8275006  83.7945017
  31.3809987  81.9575006  83.5405017  32.2529987  82.3365006  84.0735017
  30.5809987  81.8985006  84.2755017  30.9719987  82.9675006  82.4545017
  30.0149987  82.6625006  82.0375017  31.6849987  82.9275006  81.6325017
  30.8539987  84.3895006  82.9445017  30.4449987  85.0185006  82.1585017
  31.8499987  84.7755006  83.1565017  30.0029987  84.5245006  84.1645017
  30.3859987  84.0065006  85.0415017  28.9759987  84.1895006  84.0385017
  30.0129987  85.9935006  84.4165017  29.2689987  86.0135006  85.2115017
  29.4969987  86.3045006  83.5085017  31.1109987  86.9895006  84.7335017
  30.7079987  88.0015006  84.7135017  31.8779987  86.9525006  83.9625017
  31.7429987  86.7345006  86.0725017  30.9699987  86.6155006  86.8285017
  32.3319987  87.5995006  86.3745017  32.6229987  85.5145006  86.0625017
  33.3269987  85.6025006  85.2375017  32.0089987  84.6395006  85.8485017
  33.3769987  85.2905006  87.3715017  34.2779987  85.8955006  87.3015017
  33.7079987  84.2535006  87.3615017  32.6979987  85.5905006  88.7095017
  31.7329987  85.0915006  88.6605017  32.4889987  86.6585006  88.6885017
  33.4049987  85.2515006  90.0415017  34.2479987  84.5995006  89.8215017
  32.7339987  84.6775006  90.6745017  33.9209987  86.4295006  90.8155017
  33.0399987  86.8775006  91.2635017  34.2669987  87.1165006  90.0475017
  35.0279987  86.2945006  91.8925017  35.9059987  85.8185006  91.4755017
  34.6729987  85.6995006  92.7265017  34.1449987  86.2165006  92.8815017
  33.7379987  87.3345006  92.9085017  33.9559987  85.1165006  93.5165017
  33.3479987  84.8905006  94.8155017  33.6699987  85.8485006  95.1905017
  33.7809987  84.1075006  95.4195017  31.7779987  84.8005006  94.8185017
  31.5219987  85.6895006  94.2665017  31.1839987  84.8555006  96.2135017
  30.5039987  85.6945006  96.2715017  32.0019987  85.0305006  96.9035017
  30.5279987  83.6635006  96.5215017  31.3329987  82.3865006  96.9645017
  32.2489987  82.9215006  98.1585017  31.6719987  83.5525006  99.3195017
  30.5919987  83.6505006  99.3075017  32.0969987  84.5415006  99.2485017
  32.1599987  82.9245006 100.6815017  33.2109987  83.1385006 100.8075017
  31.9859987  81.4265006 100.6465017  31.1969987  81.2725006 101.2775017
  31.8219987  81.0525006  99.6885017  32.7799987  80.9535006 101.0385017
  31.5049987  83.5945006 101.9195017  30.3729987  81.4365006  97.5595017
  32.2429987  81.8475006  95.9365017  31.3599987  83.7315006  93.9565017
  30.1039987  83.9725006  93.4215017  29.3839987  84.9215006  93.6915017
  30.9139987  82.8375006 102.7435017  31.6359987  84.8335006 102.0775017
  29.7619987  82.9375006  92.3495017  30.6149987  82.8975006  91.6795017
  29.7089987  81.9605006  92.8225017  28.4389987  83.2665006  91.5915017
  27.7039987  83.4925006  92.3565017  28.6109987  84.1955006  91.0565017
  27.8579987  82.2085006  90.6305017  28.1219987  81.2285006  91.0195017
  26.7759987  82.2815006  90.7025017  28.2599987  82.3135006  89.1485017
  27.7409987  81.5495006  88.5725017  27.9629987  83.2685006  88.7235017
  29.7589987  82.1305006  88.9465017  30.2999987  82.9015006  89.4915017
  30.0599987  81.1815006  89.3855017  30.1919987  82.1495006  87.4715017
  29.3629987  81.7895006  86.8635017  30.3789987  83.1735006  87.1595017
  31.4399987  81.3105006  87.1745017  31.2789987  80.2725006  87.4435017
  31.6519987  81.3215006  86.1065017  32.6209987  81.8815006  87.9035017
  32.3749987  82.5695006  88.6985017  33.9199987  81.6305006  87.6935017
  34.6359987  82.1365006  88.3245017  34.5449987  80.7055006  86.6675017
  35.2259987  80.0315006  87.1845017  33.7999987  80.0775006  86.1925017
  35.3459987  81.4655006  85.5815017  35.9159987  80.7365006  85.0075017
  34.6289987  81.9025006  84.8895017  36.2749987  82.5495006  86.0855017
  35.6989987  83.3615006  86.5285017  36.9179987  82.1685006  86.8745017
  37.1219987  83.0945006  84.9685017  37.9819987  83.5285006  85.4725017
  37.4899987  82.2155006  84.4425017  36.5589987  84.0815006  83.9605017
  37.2949987  84.2815006  83.1835017  35.6949987  83.6625006  83.4505017
  36.1909987  85.4035006  84.6045017  35.3109987  85.3395006  85.2415017
  36.9859987  85.8095006  85.2275017  35.8979987  86.4165006  83.4545017
  35.2409987  85.9425006  82.7295017  35.3199987  87.2275006  83.8915017
  37.0879987  86.9995006  82.7455017  36.7779987  87.7535006  82.0285017
  37.6469987  86.2445006  82.2025017  37.7689987  87.4715006  83.4485017
  13.7209987  66.7135006  82.7225017  13.7299987  67.4645006  81.9385017
  14.6799987  66.7545006  83.2315017  12.9549987  66.9945006  83.4405017
  13.4559987  65.3195006  82.1535017  14.2089987  64.9335006  81.4685017
  12.4969987  65.1825006  81.6615017  13.4979987  64.5545006  83.3915017
  14.3969987  64.7825006  83.9635017  13.5409987  63.4885006  83.1755017
  12.3029987  64.8165006  84.2335017  11.3849987  64.5465006  83.7165017
  12.2029987  65.8685006  84.4965017  12.4079987  63.9825006  85.5125017
  12.8959987  63.0445006  85.2615017  11.3929987  63.7285006  85.8135017
  13.1199987  64.6035006  86.6635017  14.1839987  64.4405006  86.5005017
  12.8549987  64.0265006  87.5465017  12.8719987  66.0945006  86.9395017
  11.8039987  66.2945006  86.9995017  13.2489987  66.6985006  86.1155017
  13.5419987  66.5395006  88.2385017  12.9609987  66.1275006  89.0625017
  13.4389987  67.6205006  88.3055017  15.0199987  66.1595006  88.4215017
  15.5939987  66.5285006  87.5735017  15.1179987  65.0745006  88.4055017
  15.6299987  66.7055006  89.7275017  15.8559987  67.7605006  89.5855017
  16.5849987  66.2095006  89.9005017  14.7359987  66.5215006  90.9585017
  14.6959987  65.4775006  91.2605017  13.7069987  66.8185006  90.7615017
  15.2799987  67.3375006  92.1245017  15.4559987  68.3535006  91.7785017
  16.2549987  66.9335006  92.3905017  14.4139987  67.3515006  93.3545017
  14.8169987  67.9565006  94.1645017  14.1939987  66.3775006  93.7825017
  13.0999987  68.0025006  92.8845017  12.5309987  67.3485006  92.2315017
  13.2989987  68.9115006  92.3235017  12.3329987  68.3245006  93.9835017
  12.8929987  68.9505006  94.6665017  12.0269987  67.4265006  94.5065017
  11.9179987  66.6205006  93.9225017  12.1379987  65.5805006  93.8845017
  11.4739987  65.4065006  96.1975017  10.8329987  64.8225006  96.9765017
  10.2209987  64.0265006  96.5785017  10.4019987  65.1685006  97.9045017
  12.3149987  64.3175006  97.1935017  12.0809987  63.3575006  97.6235017
  13.2929987  65.0875006  98.1225017  13.9649987  64.3415006  98.5255017
  12.6629987  65.4555006  98.9225017  14.0279987  66.1555006  97.5395017
  14.8069987  67.2255006  98.3705017  15.8599987  66.2845006  98.9795017
  17.0339987  65.9275006  98.3135017  17.7839987  66.7075006  98.2725017
  16.8349987  65.6375006  97.2855017  17.5899987  64.6605006  98.9915017
  18.6309987  64.6165006  98.6975017  17.0829987  63.7885006  98.6045017
  17.5809987  64.5105006 100.5045017  16.1599987  64.3405006 100.9875017
  15.5559987  65.1355006 100.5715017  16.1629987  64.4125006 102.0645017
  15.8029987  63.3655006 100.6905017  18.4209987  63.3585006 100.8885017
  19.3759987  63.4505006 100.3945017  17.9189987  62.4495006 100.6085017
  18.5529987  63.3975006 101.9605017  18.2009987  65.6755006 101.1485017
  19.2139987  65.7825006 100.7905017  18.2089987  65.5275006 102.2175017
  17.6329987  66.5635006 100.9105017  15.3309987  68.2145006  97.3995017
  13.9719987  67.7185006  99.4975017  13.0579987  64.1365006  95.8425017
  13.8909987  63.2635006  95.8905017  14.0699987  62.4975006  96.8225017
  14.7859987  63.1395006  94.7045017  14.1959987  62.7705006  93.8715017
  15.1459987  64.1205006  94.4035017  15.9099987  62.2365006  95.0285017
  15.5969987  61.3705006  95.6005017  16.4189987  61.8495006  94.1515017
  16.8519987  63.0425006  95.8435017  16.3309987  63.4945006  96.6835017
  17.6039987  62.3845006  96.2725017  17.5599987  64.1235006  95.0215017
  16.8299987  64.9045006  94.8165017  18.3319987  64.5825006  95.6345017
  18.1869987  63.6785006  93.6795017  18.8159987  62.8015006  93.8135017
  17.4059987  63.3875006  92.9795017  19.0229987  64.8185006  93.0435017
  18.5809987  65.7565006  93.3755017  20.0209987  64.7815006  93.4715017
  19.1459987  64.8285006  91.5085017  18.1659987  64.9215006  91.0555017
  19.7129987  65.7045006  91.1955017  19.8429987  63.6165006  91.0265017
  20.8499987  63.3915006  91.3435017  19.2689987  62.7635006  90.2125017
  19.8649987  61.9115006  89.9205017  17.8889987  62.7805006  89.6145017
  17.4339987  61.8075006  89.7905017  17.2559987  63.5065006  90.1125017
  17.8809987  63.0485006  88.1045017  18.2589987  62.1515006  87.6145017
  16.8369987  63.1375006  87.8085017  18.6579987  64.2775006  87.5975017
  18.4209987  65.1245006  88.2415017  19.7219987  64.0945006  87.7155017
  18.3619987  64.6545006  86.1375017  18.2829987  63.7325006  85.5665017
  17.3799987  65.1225006  86.0975017  19.3989987  65.5925006  85.4825017
  19.6289987  66.4285006  86.1405017  20.3429987  65.0825006  85.3095017
  18.8629987  66.1635006  84.1665017  17.8649987  66.5715006  84.3135017
  19.4839987  66.9955006  83.8415017  18.8049987  65.1275006  83.0335017
  19.7709987  65.0565006  82.5405017  18.6279987  64.1515006  83.4795017
  17.7309987  65.3925006  82.0015017  17.6819987  64.5835006  81.2795017
  17.9149987  66.3085006  81.4505017  16.7539987  65.4785006  82.4685017
  47.5379987  92.8595006  80.2205017  47.2789987  93.5165006  79.3965017
  47.1339987  91.8755006  79.9995017  48.6209987  92.7715006  80.2455017
  47.1249987  93.2695006  81.2385017  46.0579987  93.3785006  81.0535017
  47.5319987  94.2765006  81.2805017  47.3259987  92.5865006  82.5295017
  46.4089987  92.0135006  82.6615017  47.2789987  93.4005006  83.2505017
  48.5319987  91.6995006  82.8745017  48.6369987  91.0065006  82.0425017
  48.2369987  91.0975006  83.7325017  49.8799987  92.3375006  83.1475017
  49.7859987  93.4135006  83.2705017  50.5469987  92.1845006  82.3005017
  50.5039987  91.7625006  84.3765017  51.4999987  92.1695006  84.5395017
  50.6259987  90.6845006  84.2895017  49.6259987  92.0745006  85.5905017
  48.7179987  91.4745006  85.5825017  49.3029987  93.1145006  85.5845017
  50.4029987  91.7955006  86.8765017  50.1699987  92.5515006  87.6245017
  51.4729987  91.8705006  86.6915017  50.0859987  90.4145006  87.4415017
  50.7169987  90.2105006  88.3035017  50.3209987  89.6475006  86.7045017
  48.6029987  90.2885006  87.8525017  48.4809987  89.3085006  88.3085017
  48.0119987  90.2745006  86.9365017  48.0519987  91.3855006  88.7975017
  46.9659987  91.3355006  88.8215017  48.2999987  92.3745006  88.4155017
  48.5669987  91.2535006  90.2165017  49.6369987  91.0625006  90.1875017
  48.1129987  90.3735006  90.6695017  48.2749987  92.4515006  91.0915017
  47.2589987  92.4635006  91.4815017  48.4319987  93.4175006  90.6205017
  49.2269987  92.3135006  92.2685017  50.2629987  92.2905006  91.9465017
  49.0419987  91.3835006  92.7995017  49.0399987  93.4045006  93.1805017
  48.0039987  93.4665006  93.4895017  49.3199987  94.3405006  92.7115017
  47.5389987  93.4545006  93.6235017  46.5119987  94.0765006  93.2595017
  47.5579987  92.6985006  94.5575017  46.2099987  92.4045006  94.6305017
  46.0069987  91.9415006  93.6765017  45.6179987  93.3045006  94.7195017
  45.9249987  91.5085006  95.6775017  44.8619987  91.3525006  95.7595017
  46.5139987  91.9155006  97.0755017  46.2139987  91.2005006  97.8295017
  46.1179987  92.8875006  97.3425017  47.8869987  91.9665006  96.9785017
  48.5599987  92.2165006  98.3705017  48.1619987  90.8775006  99.1635017
  48.6669987  89.5665006  98.9135017  49.5809987  89.3885006  99.4655017
  48.9219987  89.4835006  97.8605017  47.6149987  88.4205006  99.1755017
  48.1759987  87.5105006  99.3455017  46.9889987  88.2855006  98.3055017
  46.6619987  88.5485006 100.3605017  45.7839987  89.7325006 100.1145017
  46.4089987  90.5815006  99.8745017  45.2319987  89.9325006 101.0205017
  45.0959987  89.4985006  99.3155017  45.7639987  87.3765006 100.5405017
  46.3639987  86.4795006 100.5235017  45.0289987  87.3735006  99.7555017
  45.2829987  87.4825006 101.5025017  47.4759987  88.7185006 101.6165017
  48.1339987  87.8695006 101.7315017  46.8109987  88.7785006 102.4645017
  48.0579987  89.6265006 101.5485017  49.9839987  92.3055006  98.0185017
  47.8569987  93.3745006  98.9955017  46.4269987  90.3675006  95.1595017
  46.0859987  89.4105006  95.8725017  45.1379987  89.4395006  96.6715017
  46.7269987  88.2395006  94.9845017  47.5289987  87.8625006  95.6105017
  45.9739987  87.4555006  94.9605017  47.2039987  88.5715006  93.6025017
  46.4449987  89.1965006  93.1435017  48.0879987  89.1945006  93.6975017
  47.4889987  87.4315006  92.7175017  48.2009987  86.7585006  93.1895017
  46.5779987  86.8565006  92.5745017  47.9889987  87.8515006  91.4025017
  47.1749987  88.1235006  90.7335017  48.6469987  88.7165006  91.4475017
  48.7159987  86.7385006  90.8105017  49.6939987  86.9505006  90.3835017
  48.8439987  85.8595006  91.4395017  47.8439987  86.4345006  89.8115017
  48.5059987  85.9055006  89.1275017  47.2259987  85.6775006  90.2865017
  46.7019987  87.6215006  88.8045017  47.2649987  88.5475006  88.8335017
  46.8089987  87.2295006  87.7935017  45.1429987  87.8825006  89.0915017
  44.7639987  86.8845006  89.2535017  44.4659987  88.6615006  89.1655017
  43.4329987  88.8885006  89.3875017  45.2219987  89.7525006  88.8675017
  45.0659987  90.6875006  89.4025017  46.2749987  89.7205006  88.6125017
  44.4249987  89.7885006  87.6405017  43.4729987  89.4835006  88.0725017
  44.3769987  90.8705006  87.5345017  44.5889987  89.1365006  86.2195017
  45.5319987  88.5895006  86.2175017  43.8059987  88.3925006  86.1005017
  44.5609987  90.1285006  84.9955017  43.6429987  90.6575006  85.2395017
  45.3779987  90.7855006  85.2875017  44.6279987  89.8905006  83.5805017
  45.6849987  89.8425006  83.3265017  44.2359987  88.8915006  83.4095017
  43.9009987  90.9745006  82.5445017  42.8469987  91.0115006  82.8145017
  44.3079987  91.9555006  82.7815017  44.0119987  90.7505006  80.9885017
  45.0739987  90.5195006  80.9985017  43.4999987  89.7905006  81.0125017
  43.6779987  91.4225006  79.7555017  43.8929987  90.7885006  78.9005017
  44.2409987  92.3415006  79.6295017  42.6219987  91.6755006  79.7225017
  15.6069987  55.1815006  82.5345017  15.1809987  55.0915006  81.5405017
  16.5859987  54.7115006  82.5195017  15.7529987  56.2395006  82.7365017
  14.6989987  54.5385006  83.5905017  14.5679987  53.5095006  83.2595017
  13.7369987  55.0265006  83.4585017  15.1019987  54.5455006  85.1005017
  16.1639987  54.7735006  85.1865017  14.9769987  53.5395006  85.4955017
  14.3169987  55.5005006  85.9665017  13.2609987  55.2445006  85.9115017
  14.4029987  56.5125006  85.5745017  14.7489987  55.4875006  87.4405017
  15.7769987  55.8225006  87.5505017  14.7139987  54.4735006  87.8355017
  13.8389987  56.3905006  88.2845017  12.8529987  55.9315006  88.3225017
  13.7159987  57.3325006  87.7545017  14.3199987  56.6715006  89.7075017
  13.9449987  57.6365006  90.0425017  15.4069987  56.7435006  89.7255017
  13.8709987  55.5885006  90.6875017  13.7409987  54.6405006  90.1665017
  12.8989987  55.8405006  91.1075017  14.8789987  55.4055006  91.8235017
  14.9609987  56.3025006  92.4335017  15.8799987  55.2045006  91.4425017
  14.4309987  54.2415006  92.6955017  13.9619987  53.5045006  92.0465017
  13.6479987  54.6035006  93.3615017  15.5349987  53.5805006  93.5275017
  15.9119987  54.2635006  94.2855017  16.3919987  53.3055006  92.9155017
  14.9959987  52.3365006  94.2265017  14.3629987  51.7665006  93.5515017
  14.3639987  52.6265006  95.0635017  16.1289987  51.4575006  94.7525017
  16.8459987  52.0585006  95.3095017  16.6869987  50.9885006  93.9465017
  15.5959987  50.3725006  95.6875017  16.3629987  49.6115006  95.7915017
  14.7549987  49.9045006  95.1825017  15.1349987  50.8275006  97.0955017
  14.3929987  51.6115006  97.0165017  15.9769987  51.2025006  97.6655017
  16.3339987  51.2635006  97.9435017  17.4779987  51.1485006  97.5825017
  15.9349987  51.7715006  99.1365017  16.9289987  51.7715006 100.2025017
  17.6099987  50.9635006  99.9825017  16.3489987  51.5155006 101.0775017
  17.7139987  53.0915006 100.4235017  18.5759987  52.8385006 101.0175017
  16.8839987  54.1645006 101.1395017  16.4549987  53.7215006 102.0275017
  16.0819987  54.4315006 100.4625017  17.6609987  55.3295006 101.4825017
  16.9009987  56.7455006 101.5565017  16.2249987  56.7485006 100.0945017
  16.0429987  57.9515006  99.3505017  16.9819987  58.4635006  99.1855017
  15.4169987  58.6325006  99.9205017  15.2859987  57.7265006  98.0085017
  15.3749987  58.6265006  97.4135017  14.2419987  57.5595006  98.2325017
  15.7029987  56.5895006  97.1005017  15.2529987  55.3025006  97.7135017
  15.5919987  55.2715006  98.7395017  15.7029987  54.4935006  97.1575017
  14.1779987  55.2375006  97.6425017  15.0449987  56.6895006  95.7635017
  15.1849987  57.6905006  95.3865017  14.0019987  56.4505006  95.8675017
  15.5289987  55.9765006  95.1115017  17.1989987  56.6105006  97.0045017
  17.5169987  57.5685006  96.6205017  17.5229987  55.8265006  96.3365017
  17.6259987  56.4485006  97.9835017  15.8779987  56.6935006 102.6255017
  17.8809987  57.8525006 101.6315017  18.0929987  53.7415006  99.1725017
  19.2659987  53.3225006  98.8205017  19.8019987  52.4135006  99.4035017
  19.8709987  54.0345006  97.6055017  19.1399987  54.7575006  97.2585017
  20.7339987  54.6145006  97.9245017  20.2509987  53.0385006  96.5145017
  21.1299987  52.5005006  96.8525017  19.4589987  52.3005006  96.4365017
  20.5349987  53.6465006  95.1345017  21.3849987  54.3125006  95.2605017
  20.8849987  52.8215006  94.5185017  19.4079987  54.3695006  94.3885017
  18.4269987  53.9445006  94.5905017  19.3289987  55.4325006  94.6035017
  19.7159987  54.1865006  92.8935017  20.7589987  54.4385006  92.7105017
  19.6129987  53.1305006  92.6505017  18.8299987  54.9915006  91.9535017
  17.7919987  54.9175006  92.2725017  19.0869987  56.0465006  91.9875017
  18.9509987  54.5025006  90.4995017  19.9659987  54.5995006  90.1325017
  18.6989987  53.4455006  90.4285017  17.9819987  55.2905006  89.6395017
  16.9419987  55.1375006  89.8875017  18.2519987  56.1405006  88.6445017
  17.4449987  56.6365006  88.1245017  19.6089987  56.5045006  88.1485017
  19.6199987  57.5865006  88.0305017  20.3499987  56.2735006  88.9065017
  20.0289987  55.8735006  86.8175017  19.2919987  56.0775006  86.0415017
  20.9629987  56.3125006  86.4715017  20.2069987  54.3745006  86.9655017
  20.6059987  54.1735006  87.9595017  19.2299987  53.9005006  86.9285017
  21.1159987  53.7415006  85.9245017  21.9809987  54.3765006  85.7445017
  21.5059987  52.7895006  86.2805017  20.4169987  53.5355006  84.7275017
  19.4069987  53.2265006  84.9905017  20.3139987  54.4965006  84.2305017
  21.0239987  52.4355006  83.6925017  21.8179987  53.0545006  83.2775017
  21.4979987  51.7935006  84.4335017  20.4159987  51.4835006  82.4865017
  20.6939987  52.0405006  81.5955017  21.1029987  50.6415006  82.5345017
  18.8789987  50.9055006  82.3165017  18.8109987  50.2355006  81.4645017
  18.1609987  51.7035006  82.1605017  18.5699987  50.3515006  83.1985017
  75.6449987  89.1455006  77.6835017  75.0219987  89.5005006  76.8685017
  76.4119987  89.8935006  77.8645017  75.0239987  89.0895006  78.5735017
  76.2339987  87.8525006  77.3745017  76.7229987  88.0835006  76.4295017
  75.3349987  87.2965006  77.1245017  77.2029987  86.9555006  78.2585017
  78.2199987  87.3015006  78.0765017  77.1509987  85.9465006  77.8535017
  76.9599987  86.8875006  79.7385017  76.0169987  86.3465006  79.7695017
  76.7199987  87.9245006  79.9675017  77.8529987  86.3455006  80.7935017
  78.8689987  86.6825006  80.6035017  77.8689987  85.2605006  80.6995017
  77.4629987  86.7235006  82.2315017  76.4229987  86.4575006  82.4145017
  77.5289987  87.8015006  82.3615017  78.3519987  86.0345006  83.2725017
  79.3859987  86.3355006  83.1165017  78.3209987  84.9575006  83.1145017
  77.9469987  86.3455006  84.7195017  76.9459987  85.9335006  84.8445017
  77.8389987  87.4275006  84.7745017  78.8439987  85.8645006  85.8805017
  79.8629987  86.2275006  85.7605017  78.9089987  84.7775006  85.8975017
  78.2849987  86.3575006  87.2165017  77.2309987  86.0895006  87.2455017
  78.3229987  87.4465006  87.2085017  78.9959987  85.8355006  88.4795017
  80.0719987  85.9345006  88.3495017  78.8029987  84.7705006  88.5985017
  78.5919987  86.5765006  89.7775017  79.1989987  86.1875006  90.5915017
  77.5639987  86.3045006  90.0085017  78.6959987  88.1235006  89.7255017
  78.0089987  88.5075006  88.9735017  79.6899987  88.4375006  89.4185017
  78.3509987  88.7915006  91.0695017  79.1299987  88.5535006  91.7865017
  77.4359987  88.3355006  91.4375017  78.1529987  90.3245006  91.0235017
  77.4019987  90.5875006  90.2895017  79.0819987  90.8175006  90.7625017
  77.5369987  90.8455006  92.3425017  76.3929987  90.6345006  92.6865017
  78.4419987  91.5375006  93.0405017  78.1389987  91.8175006  94.4285017
  77.1369987  92.2155006  94.4845017  78.8359987  92.5635006  94.7825017
  78.2479987  90.5065006  95.2695017  77.4209987  89.8715006  94.9965017
  78.2659987  90.7175006  96.8095017  77.4019987  91.3035006  97.0915017
  79.1589987  91.2835006  97.0405017  78.2729987  89.4665006  97.5085017
  79.1319987  89.1375006  98.7875017  78.3419987  87.9365006  99.4855017
  77.9909987  86.7985006  98.7145017  77.6799987  87.1295006  97.7315017
  77.1149987  86.3575006  99.1825017  79.0009987  85.6685006  98.6155017
  79.8969987  85.9485006  98.0765017  78.5509987  84.8185006  98.1235017
  79.4599987  85.1795006  99.9315017  80.5089987  86.0935006 100.4795017
  81.2689987  86.2395006  99.7245017  80.9439987  85.6195006 101.3465017
  80.0459987  87.0245006 100.7695017  78.3309987  85.0805006 100.8995017
  77.5249987  84.5365006 100.4315017  78.0239987  86.0715006 101.1835017
  78.6919987  84.5395006 101.7625017  80.0899987  83.8615006  99.7435017
  79.3749987  83.1855006  99.2985017  80.4029987  83.4775006 100.7025017
  80.9499987  83.9615006  99.0965017  80.4479987  88.6045006  98.3765017
  79.1069987  90.2855006  99.7125017  79.4719987  89.8815006  94.9315017
  79.4199987  88.5715006  95.0535017  78.4289987  87.8705006  95.1345017
  80.8299987  88.0405006  95.0055017  81.4609987  88.6665006  95.6275017
  80.8809987  87.0445006  95.4375017  81.2909987  88.0325006  93.5505017
  80.6929987  87.3175006  92.9975017  81.0929987  89.0005006  93.1015017
  82.7559987  87.6815006  93.3915017  83.3989987  88.4505006  93.8115017
  82.9859987  86.7665006  93.9315017  83.0889987  87.4705006  91.9035017
  84.1059987  87.0975006  91.7925017  82.4409987  86.7295006  91.4405017
  82.9709987  88.7815006  91.1285017  82.1299987  89.3575006  91.5095017
  83.8589987  89.3815006  91.3165017  82.8209987  88.6015006  89.6585017
  83.7619987  88.2115006  89.2745017  82.0729987  87.8355006  89.4725017
  82.4469987  89.8285006  88.8955017  83.4719987  90.1765006  88.9555017
  82.3719987  89.2535006  87.9735017  81.5639987  90.8885006  88.8275017
  81.4569987  91.6825006  89.5515017  80.7889987  90.9375006  87.7665017
  80.1019987  91.7645006  87.6565017  80.7399987  89.9305006  86.6185017
  81.5789987  89.2475006  86.7395017  79.8439987  89.3225006  86.6765017
  80.8359987  90.5665006  85.2255017  79.9469987  91.1705006  85.0475017
  81.6779987  91.2565006  85.2185017  81.0059987  89.5395006  84.0695017
  81.9649987  89.0365006  84.1915017  80.2449987  88.7695006  84.1655017
  80.9329987  90.1645006  82.6495017  79.9489987  90.6185006  82.5505017
  81.6509987  90.9825006  82.6115017  81.1899987  89.2115006  81.4745017
  80.8549987  88.1935006  81.6625017  80.7219987  89.5105006  80.5405017
  82.7129987  89.1835006  81.3125017  83.0529987  90.1625006  80.9795017
  83.1679987  89.0225006  82.2885017  83.2289987  88.1705006  80.3855017
  82.8859987  87.2305006  80.8115017  82.6159987  88.3375006  79.5025017
  84.9289987  88.0055006  79.8785017  85.0319987  87.2345006  79.1215017
  85.5749987  87.7355006  80.7075017  85.3029987  88.9345006  79.4575017
  86.4779987  74.9745006  80.5635017  87.0449987  75.2885006  79.6925017
  87.1339987  75.0375006  81.4265017  85.6729987  75.6895006  80.7085017
  85.9449987  73.5965006  80.3925017  86.7479987  72.8775006  80.2425017
  85.3069987  73.5295006  79.5155017  85.1759987  73.2245006  81.6155017
  84.5949987  72.3175006  81.4515017  84.4559987  74.0035006  81.8605017
  86.0939987  73.0235006  82.8115017  86.5919987  73.9505006  83.0875017
  86.8859987  72.3055006  82.6065017  85.2749987  72.5435006  83.9915017
  84.8089987  71.5825006  83.7905017  84.4639987  73.2375006  84.2055017
  86.1599987  72.4135006  85.2185017  86.5139987  73.3995006  85.5145017
  87.0459987  71.8345006  84.9665017  85.4519987  71.7595006  86.3955017
  85.3079987  70.7015006  86.1845017  84.4559987  72.1875006  86.4975017
  86.2009987  71.9125006  87.7105017  85.4699987  71.9955006  88.5135017
  86.7409987  72.8575006  87.6915017  87.1469987  70.8165006  88.0225017
  87.9029987  70.7715006  87.2415017  86.6129987  69.8685006  87.9835017
  87.8419987  70.9555006  89.4015017  88.3269987  71.9285006  89.3705017
  88.6419987  70.2155006  89.3925017  87.0719987  70.8175006  90.6405017
  86.4539987  69.9225006  90.6225017  86.3909987  71.6525006  90.7945017
  88.0359987  70.7185006  91.8415017  88.5429987  69.7615006  91.7435017
  87.4039987  70.6385006  92.7245017  89.0359987  71.8115006  92.0655017
  88.6459987  72.8095006  91.8735017  89.9569987  71.7305006  91.4955017
  89.3639987  71.7095006  93.5705017  89.9719987  70.8205006  93.7015017
  88.4169987  71.5185006  94.0685017  90.0259987  72.8565006  94.2375017
  89.4519987  73.7625006  94.0905017  91.0199987  73.0055006  93.8335017
  90.3539987  72.9455006  95.6525017  90.5649987  72.0285006  96.4025017
  90.5299987  74.2295006  95.8865017  91.2999987  74.6275006  97.0065017
  92.1909987  75.0285006  96.5465017  91.5799987  73.8485006  97.7005017
  90.5189987  75.7455006  97.7195017  91.2229987  76.3245006  98.2935017
  89.4659987  75.1025006  98.6675017  89.8899987  75.0135006  99.6585017
  89.2569987  74.1095006  98.2895017  88.2869987  75.8735006  98.7025017
  87.1089987  75.5725006  99.6905017  86.7419987  74.0665006  99.4575017
  86.1699987  73.5845006  98.2735017  86.4749987  72.5705006  98.0495017
  86.4899987  74.1945006  97.4345017  84.6399987  73.7065006  98.2995017
  84.2649987  73.5225006  97.3005017  84.2859987  74.6715006  98.6305017
  83.9579987  72.6835006  99.1915017  82.4689987  72.7915006  99.1305017
  82.1899987  73.8215006  99.3055017  82.0569987  72.1665006  99.9085017
  82.1309987  72.4405006  98.1665017  84.2089987  71.3255006  98.6335017
  85.2669987  71.2215006  98.4465017  83.6369987  71.2055006  97.7305017
  83.8909987  70.6075006  99.3755017  84.4279987  72.8675006 100.6035017
  85.5019987  72.7565006 100.6385017  83.9659987  72.1205006 101.2315017
  84.1499987  73.8525006 100.9505017  87.6149987  75.6615006 101.0755017
  85.9259987  76.3965006  99.3375017  90.0049987  76.6455006  96.7305017
  89.5819987  77.8505006  97.1045017  89.8769987  78.4355006  98.1305017
  88.6229987  78.3415006  96.0165017  88.4589987  79.4025006  96.1745017
  89.0989987  78.2555006  95.0435017  87.3069987  77.5425006  96.0625017
  87.4969987  76.5895006  96.5435017  86.5939987  78.0605006  96.6955017
  86.6959987  77.2955006  94.6875017  85.6579987  76.9855006  94.7805017
  86.6859987  78.2245006  94.1235017  87.4799987  76.2605006  93.9005017
  88.4929987  76.6255006  93.7405017  87.5759987  75.3365006  94.4645017
  86.8669987  75.9485006  92.5515017  86.7159987  76.8755006  92.0015017
  87.5819987  75.3665006  91.9735017  85.5489987  75.1775006  92.6175017
  85.7439987  74.1425006  92.8955017  84.9019987  75.5855006  93.3895017
  84.7959987  75.2105006  91.2765017  85.4689987  74.8495006  90.5075017
  83.9849987  74.4855006  91.3395017  84.2149987  76.5525006  90.9045017
  83.6149987  76.9785006  91.6945017  84.3429987  77.2745006  89.7725017
  83.8249987  78.2225006  89.7395017  85.1279987  76.9515006  88.5085017
  85.2609987  75.8765006  88.3985017  84.6599987  77.2945006  87.5925017
  86.5029987  77.5895006  88.6435017  86.3539987  78.6585006  88.7895017
  86.9349987  77.2145006  89.5695017  87.4889987  77.3645006  87.5025017
  87.1269987  77.9125006  86.6325017  88.4379987  77.8175006  87.7735017
  87.7189987  75.8735006  87.1105017  87.9399987  75.3325006  88.0275017
  86.7729987  75.4785006  86.7445017  88.8119987  75.6085006  86.0715017
  88.3269987  75.5175006  85.1015017  89.4389987  76.4935006  86.0075017
  89.6989987  74.3395006  86.2855017  89.9919987  74.3665006  87.3335017
  89.0179987  73.4965006  86.1845017  90.9759987  74.0555006  85.4185017
  91.6239987  74.9245006  85.5025017  91.4969987  73.2475006  85.9275017
  90.8179987  73.6945006  83.9925017  91.7769987  73.4435006  83.5495017
  90.3959987  74.5085006  83.4125017  90.1649987  72.8335006  83.8775017
  30.0439987  24.7235006  81.5145017  29.4849987  25.3645006  80.8395017
  29.7919987  23.6935006  81.2775017  31.1009987  24.8605006  81.3015017
  29.7359987  25.0435006  82.9555017  28.6529987  24.9425006  82.9965017
  29.9449987  26.1085006  83.0045017  30.3149987  24.3745006  84.0855017
  30.4479987  25.0705006  84.9145017  31.3099987  24.0165006  83.8305017
  29.4909987  23.2045006  84.5475017  29.9629987  22.8065006  85.4425017
  29.5609987  22.4205006  83.7955017  28.0029987  23.4855006  84.8565017
  27.5019987  23.8585006  83.9675017  27.9349987  24.2775006  85.6005017
  27.2539987  22.2465006  85.3665017  27.2529987  21.4895006  84.5845017
  26.2119987  22.5095006  85.5365017  27.8369987  21.6505006  86.6445017
  27.7749987  22.3855006  87.4455017  28.8969987  21.4495006  86.4975017
  27.1309987  20.3545006  87.0875017  27.8159987  19.7235006  87.6535017
  26.8269987  19.7715006  86.2205017  25.9099987  20.6585006  87.9395017
  25.3689987  19.7405006  88.1565017  25.2189987  21.2945006  87.3875017
  26.2909987  21.3475006  89.2575017  26.6669987  22.3475006  89.0545017
  27.1059987  20.8075006  89.7395017  25.1099987  21.4195006  90.2075017
  24.7099987  20.4175006  90.3485017  24.3109987  22.0025006  89.7535017
  25.4429987  22.0045006  91.5855017  24.5149987  22.3035006  92.0675017
  26.0159987  22.9175006  91.4365017  26.2489987  21.0605006  92.5175017
  26.9209987  20.4685006  91.8985017  25.5729987  20.3555006  92.9935017
  27.0909987  21.7575006  93.5995017  26.5169987  22.5095006  94.1315017
  27.9379987  22.2685006  93.1495017  27.6179987  20.7315006  94.5965017
  28.1669987  19.9525006  94.0835017  26.7979987  20.2785006  95.1415017
  29.0169987  20.2825006  94.2905017  29.6449987  20.4005006  93.2525017
  29.4109987  19.7455006  95.3815017  30.7449987  19.3555006  95.2845017
  31.1029987  19.7975006  94.3665017  30.7529987  18.2795006  95.1855017
  31.6039987  19.7995006  96.4505017  32.4619987  19.1635006  96.3115017
  31.0799987  19.6495006  97.8415017  32.0629987  19.6495006  98.2935017
  30.7759987  18.6245006  97.6735017  30.1599987  20.3015006  98.6705017
  29.7199987  20.1045006 100.2935017  28.6979987  21.2825006 100.0945017
  27.9829987  21.6365006  98.8735017  26.9509987  21.8955006  99.0715017
  27.9629987  20.7805006  98.2055017  28.6889987  22.7495006  98.0815017
  28.0449987  23.2625006  97.3785017  29.4879987  22.2695006  97.5345017
  29.3349987  23.8195006  98.8945017  28.4959987  24.2315006 100.0355017
  27.5039987  24.4595006  99.6705017  28.9359987  25.1165006 100.4705017
  28.4829987  23.4365006 100.7665017  30.6839987  23.3305006  99.3565017
  31.2179987  22.9415006  98.5035017  30.5449987  22.5765006 100.1105017
  31.2109987  24.1785006  99.7695017  29.3749987  24.9505006  98.0085017
  29.9299987  24.6875006  97.1205017  29.8609987  25.7755006  98.5075017
  28.3679987  25.2335006  97.7395017  28.9419987  18.8935006 100.7215017
  30.9739987  20.2965006 101.0385017  31.9109987  21.0545006  96.4215017
  32.6779987  21.4625006  95.5255017  33.2499987  20.9235006  94.6045017
  32.6029987  22.8715006  95.8205017  31.8029987  23.0885006  96.5205017
  33.5089987  23.2665006  96.2725017  32.3459987  23.5165006  94.4215017
  32.7109987  24.5345006  94.5005017  33.0129987  23.0105006  93.7305017
  30.9179987  23.5365006  93.8485017  30.6129987  22.5175006  93.6245017
  30.2489987  23.8885006  94.6295017  30.7309987  24.4405006  92.5885017
  29.6829987  24.6805006  92.4205017  31.2529987  25.3915006  92.6595017
  31.2509987  23.6825006  91.3705017  32.3329987  23.7895006  91.3275017
  31.0569987  22.6235006  91.5265017  30.6389987  24.1025006  90.0105017
  29.6019987  24.3795006  90.1925017  31.1419987  25.0035006  89.6695017
  30.6949987  23.0565006  88.8905017  30.0619987  22.2075006  89.1215017
  30.3139987  23.4795006  87.9625017  32.1039987  22.6325006  88.6765017
  32.8849987  23.3465006  88.4645017  32.4469987  21.3925006  88.7505017
  33.4719987  21.0825006  88.6085017  31.5139987  20.2805006  89.0335017
  31.9729987  19.3275006  89.2895017  30.6989987  20.4225006  89.7335017
  30.9349987  20.1725006  87.5705017  29.9529987  19.7155006  87.6885017
  30.7549987  21.2035006  87.2725017  31.7399987  19.4185006  86.4045017
  32.4969987  20.1685006  86.1775017  32.2419987  18.6445006  86.9785017
  31.2009987  18.8085006  85.0675017  30.4839987  18.0505006  85.3755017
  30.6229987  19.6025006  84.5975017  32.1319987  18.2465006  84.0885017
  32.7599987  19.0515006  83.7115017  32.8039987  17.5585006  84.5935017
  31.5169987  17.5955006  82.9565017  31.3339987  18.4605006  82.3215017
  32.3869987  17.0925006  82.5385017  30.3819987  16.7055006  82.8585017
  30.6669987  15.7855006  83.3635017  29.6199987  17.1635006  83.4855017
  29.8049987  16.3925006  81.5905017  28.9139987  15.7845006  81.7125017
  30.4909987  15.8395006  80.9575017  29.5199987  17.2955006  81.0575017
  58.5019987  89.1275006  81.9025017  59.4729987  88.6425006  81.8785017
  58.5399987  89.9785006  81.2295017  57.7729987  88.4265006  81.5055017
  58.1299987  89.5625006  83.3285017  58.9049987  90.2325006  83.6955017
  58.1599987  88.6835006  83.9665017  56.7579987  90.2595006  83.4485017
  55.9799987  89.5725006  83.1155017  56.7379987  91.0975006  82.7545017
  56.4089987  90.7775006  84.8455017  55.3439987  90.9875006  84.9125017
  56.9159987  91.7195006  85.0515017  56.7739987  89.7615006  85.9225017
  57.8489987  89.7865006  86.0815017  56.5439987  88.7675006  85.5415017
  56.0659987  89.9635006  87.2735017  56.4719987  89.2065006  87.9415017
  55.0239987  89.6975006  87.1105017  56.1369987  91.3455006  87.9635017
  56.0119987  92.1235006  87.2125017  57.1339987  91.4825006  88.3805017
  55.0929987  91.5395006  89.0715017  55.2179987  90.7915006  89.8535017
  54.0859987  91.4065006  88.6815017  55.2159987  92.9415006  89.6865017
  54.4849987  92.9995006  90.4895017  54.8889987  93.6505006  88.9265017
  56.5979987  93.3695006  90.2215017  56.5439987  94.4175006  90.5075017
  57.3189987  93.3125006  89.4065017  57.1059987  92.5245006  91.4065017
  57.9679987  93.0355006  91.8305017  57.4769987  91.5785006  91.0175017
  56.0899987  92.2455006  92.5505017  55.4239987  91.4575006  92.2075017
  55.4759987  93.1375006  92.6555017  56.6769987  91.8815006  93.9405017
  55.8529987  91.8315006  94.6505017  57.3229987  92.6855006  94.2815017
  57.4529987  90.5435006  94.0145017  58.3419987  90.6535006  93.4025017
  56.8249987  89.8025006  93.5275017  57.8629987  90.0005006  95.4245017
  56.9939987  89.9145006  96.0645017  58.5759987  90.6685006  95.8935017
  59.0579987  90.7115006  95.9285017  59.4259987  91.7215006  95.3905017
  59.6199987  90.1475006  96.9985017  60.7059987  90.9025006  97.5525017
  61.3729987  91.2575006  96.7805017  61.1869987  90.1005006  98.0935017
  60.3239987  92.0595006  98.5035017  61.2289987  92.4815006  98.9085017
  59.3769987  91.7825006  99.5855017  59.4439987  92.5605006 100.3335017
  59.6599987  90.8405006 100.0385017  58.0409987  91.7035006  99.0595017
  57.0399987  90.8615006  99.8915017  55.9729987  91.9645006 100.2585017
  56.4279987  93.2445006 100.6995017  57.2949987  93.1525006 101.3405017
  55.6489987  93.7075006 101.2985017  56.6929987  94.2315006  99.5505017
  57.6169987  94.0745006  99.0095017  56.7549987  95.1735006 100.0765017
  55.6329987  94.4125006  98.5045017  55.8279987  95.7555006  98.0975017
  55.8469987  96.3835006  98.9775017  54.9969987  96.0365006  97.4685017
  56.7469987  95.8215006  97.5355017  55.7199987  93.4185006  97.3735017
  55.7939987  92.4275006  97.7935017  56.5759987  93.6525006  96.7655017
  54.8129987  93.5095006  96.7935017  54.2599987  94.4405006  99.0475017
  54.0679987  93.5195006  99.5775017  53.5579987  94.5415006  98.2335017
  54.1549987  95.2795006  99.7205017  56.4549987  89.8465006  99.0025017
  57.7359987  90.3585006 101.0955017  59.5439987  92.9625006  97.7955017
  60.2319987  93.4485006  97.1425017  61.4579987  93.6915006  97.4885017
  58.9439987  94.1455006  95.9805017  58.1929987  93.3645006  96.0325017
  58.5459987  94.9795006  96.5535017  59.3009987  94.6445006  94.2435017
  60.3629987  94.6975006  94.4555017  59.1149987  93.6345006  93.8935017
  58.9879987  95.5655006  93.2305017  58.0269987  95.2645006  92.8205017
  58.8189987  96.5145006  93.7335017  60.0309987  95.7935006  92.0605017
  59.5649987  96.3295006  91.2355017  60.8769987  96.3985006  92.3775017
  60.5439987  94.4735006  91.5385017  61.1929987  94.0485006  92.3005017
  59.6859987  93.8085006  91.4665017  61.2569987  94.4775006  90.2265017
  60.5699987  94.8935006  89.4915017  62.0899987  95.1715006  90.2955017
  61.7729987  93.1525006  89.7315017  62.3859987  93.1705006  88.8375017
  62.3179987  92.5595006  90.4655017  60.4279987  92.4815006  89.4635017
  59.7929987  92.6435006  90.3215017  59.8999987  91.7785006  88.4275017
  58.9049987  91.3645006  88.5025017  60.5789987  91.5025006  87.1215017
  61.6669987  91.4585006  87.1055017  60.2339987  90.7375006  86.4355017
  60.1599987  92.8395006  86.6215017  59.0759987  92.9185006  86.6985017
  60.5669987  93.5945006  87.2915017  60.5879987  93.1475006  85.2095017
  61.6729987  93.1105006  85.1095017  60.1929987  92.4235006  84.5015017
  60.0989987  94.5345006  84.8395017  60.4279987  95.2825006  85.5575017
  60.4719987  94.8585006  83.8695017  58.5759987  94.4845006  84.8005017
  58.2889987  93.6525006  84.1595017  58.2179987  94.2305006  85.7945017
  57.8629987  95.7355006  84.2925017  56.7899987  95.5645006  84.3625017
  58.0849987  96.5495006  84.9795017  58.1919987  96.2005006  82.8635017
  57.4889987  96.9795006  82.5785017  59.1659987  96.6825006  82.9085017
  58.2259987  95.1275006  81.7805017  58.5519987  95.5465006  80.8335017
  57.2499987  94.6825006  81.6205017  58.9139987  94.3285006  82.0435017
  56.8489987  14.9395006  80.7195017  57.8549987  15.0905006  81.0985017
  56.7509987  15.5125006  79.8025017  56.7469987  13.8885006  80.4635017
  55.9149987  15.3125006  81.6355017  56.1919987  16.3435006  81.8485017
  56.2069987  14.7315006  82.5065017  54.1779987  15.2185006  81.4015017
  54.0999987  14.7855006  80.4045017  53.9079987  16.2675006  81.2965017
  53.1309987  14.5265006  82.3515017  53.5009987  13.5965006  82.7775017
  52.1909987  14.2805006  81.8605017  52.8889987  15.4245006  83.3865017
  52.2979987  16.2805006  83.0715017  53.8119987  15.8255006  83.8005017
  52.1329987  14.6785006  84.4765017  52.7659987  13.9165006  84.9275017
  51.2759987  14.1545006  84.0585017  51.6699987  15.6095006  85.5235017
  50.8369987  16.1535006  85.0815017  52.4749987  16.3325006  85.6465017
  51.2539987  15.0785006  86.8985017  52.0939987  14.6575006  87.4485017
  50.5099987  14.2875006  86.8275017  50.6699987  16.2505006  87.6895017
  49.5839987  16.1835006  87.6765017  50.9219987  17.1825006  87.1855017
  51.1579987  16.3125006  89.1405017  50.8919987  17.2805006  89.5585017
  52.2469987  16.2635006  89.1515017  50.5919987  15.1845006  90.0225017
  50.8829987  14.2265006  89.5975017  49.5039987  15.2095006  89.9945017
  51.0649987  15.2285006  91.4935017  50.4849987  14.5155006  92.0745017
  50.8359987  16.2105006  91.9025017  52.5769987  14.9575006  91.6745017
  53.1569987  15.6385006  91.0545017  52.8479987  13.9535006  91.3595017
  53.0129987  15.1595006  93.1375017  52.2489987  14.7435006  93.7855017
  53.0359987  16.2295006  93.3255017  54.3749987  14.5675006  93.5195017
  55.1489987  14.9435006  92.8625017  54.3509987  13.4865006  93.4455017
  55.4099987  15.7015006  93.7435017  56.3419987  16.1395006  93.0825017
  55.1169987  16.2535006  94.8545017  56.0099987  17.3685006  95.0235017
  55.9339987  17.9085006  94.0925017  57.0489987  17.1455006  95.2185017
  55.3989987  18.1945006  96.1715017  56.0169987  19.0765006  96.2195017
  55.4089987  17.4795006  97.5205017  55.0029987  18.1225006  98.2895017
  56.4339987  17.2405006  97.7745017  54.6499987  16.3115006  97.4085017
  53.8969987  15.6955006  98.6355017  53.1779987  16.9855006  99.2435017
  52.2689987  17.7805006  98.5035017  51.6629987  17.2355006  97.7915017
  52.7809987  18.5565006  97.9415017  51.3889987  18.5295006  99.5175017
  50.8239987  19.1175006  98.8055017  51.8409987  19.1965006 100.2375017
  50.3559987  17.7115006 100.2935017  49.3809987  16.9965006  99.3885017
  48.9699987  17.7125006  98.6905017  48.5899987  16.5925006 100.0035017
  49.8959987  16.1915006  98.8845017  50.9589987  16.5325006 100.9295017
  51.8349987  16.8475006 101.4755017  51.2069987  15.8125006 100.1705017
  50.2259987  16.1225006 101.6095017  49.7759987  18.5245006 101.4435017
  50.5759987  18.8335006 102.0995017  49.0739987  17.9135006 101.9915017
  49.2679987  19.3935006 101.0505017  52.9699987  14.7295006  98.0385017
  54.9699987  15.2485006  99.5455017  54.0779987  18.6245006  95.7795017
  53.7799987  19.5775006  94.9405017  54.4039987  20.2205006  94.1815017
  52.4509987  20.0105006  94.9065017  51.7549987  19.1795006  94.8565017
  52.1559987  20.5935006  95.7755017  52.4169987  20.8805006  93.6075017
  51.9559987  21.8335006  93.8445017  53.4339987  21.1065006  93.3045017
  51.6879987  20.2565006  92.4885017  50.8479987  19.6495006  92.8165017
  51.2769987  21.0025006  91.8135017  52.6799987  19.4015006  91.7195017
  53.1929987  18.7825006  92.4535017  52.1199987  18.7195006  91.0845017
  53.7289987  20.1115006  90.8745017  53.4489987  21.1595006  90.7955017
  54.6639987  20.0895006  91.4305017  53.9779987  19.5475006  89.4795017
  54.3859987  18.5415006  89.5655017  53.0419987  19.4525006  88.9355017
  54.9269987  20.4055006  88.6655017  54.4959987  21.3995006  88.6595017
  55.8409987  20.4705006  89.2545017  55.2789987  19.9665006  87.2915017
  56.3519987  19.9195006  87.1825017  54.5339987  19.6225006  86.2145017
  55.1609987  19.3545006  85.3765017  53.0479987  19.5275006  85.9305017
  52.6789987  18.6465006  86.4525017  52.5309987  20.3765006  86.3645017
  52.6519987  19.3965006  84.3835017  53.0129987  18.4045006  84.1165017
  51.5669987  19.3245006  84.4185017  53.0629987  20.4145006  83.2785017
  53.8749987  20.9945006  83.7165017  53.5079987  19.8185006  82.4865017
  52.0569987  21.3425006  82.6945017  51.6609987  20.8555006  81.8065017
  51.2299987  21.4085006  83.3995017  52.5059987  22.6625006  82.3685017
  51.8319987  23.5075006  82.2435017  53.4689987  23.0885006  82.6375017
  52.6049987  21.9735006  81.0855017  52.7459987  20.9035006  81.2245017
  51.6869987  22.0845006  80.5115017  53.5369987  22.4055006  80.4155017
  53.1639987  22.0545006  79.4565017  53.2309987  23.4465006  80.4895017
  55.1629987  22.3375006  80.4215017  55.5779987  22.9725006  79.6445017
  55.5269987  21.3305006  80.2475017  55.5639987  22.6735006  81.3735017
  89.3159987  42.4105006  81.8635017  88.8669987  42.6595006  80.9075017
  88.6439987  42.7535006  82.6445017  89.3719987  41.3275006  81.9305017
  90.6859987  43.0365006  82.0065017  90.6169987  44.1195006  81.9215017
  91.3319987  42.7075006  81.1975017  91.3089987  42.6765006  83.3575017
  91.5479987  41.6135006  83.3795017  90.5709987  42.8355006  84.1415017
  92.5669987  43.4855006  83.7025017  92.3719987  44.5425006  83.5355017
  93.3809987  43.2195006  83.0295017  93.0269987  43.2935006  85.1605017
  94.0189987  43.7205006  85.2855017  93.1269987  42.2265006  85.3545017
  92.0829987  43.9125006  86.2055017  91.2439987  43.2355006  86.3575017
  91.6639987  44.8285006  85.7945017  92.7439987  44.2215006  87.5705017
  92.1349987  44.9505006  88.1025017  93.7079987  44.6985006  87.3975017
  92.9429987  42.9815006  88.4585017  93.1999987  42.1535006  87.7985017
  91.9739987  42.7365006  88.8895017  93.9899987  43.0775006  89.5845017
  93.7179987  43.8365006  90.3145017  94.9659987  43.3665006  89.1955017
  94.1069987  41.7145006  90.2865017  94.9939987  41.7295006  90.9155017
  94.2809987  40.9485006  89.5315017  92.8569987  41.3235006  91.1345017
  92.8909987  40.2475006  91.2935017  91.9669987  41.5125006  90.5375017
  92.7049987  42.0155006  92.5115017  92.8449987  43.0845006  92.3725017
  93.5239987  41.6815006  93.1455017  91.3749987  41.7445006  93.2415017
  91.1919987  40.6725006  93.2995017  90.5299987  42.1695006  92.7075017
  91.3939987  42.2995006  94.6735017  91.7129987  43.3365006  94.6745017
  92.1209987  41.7465006  95.2625017  90.0139987  42.1905006  95.3645017
  89.6599987  41.1675006  95.3455017  89.2889987  42.8185006  94.8605017
  89.6789987  40.7545006  95.7415017  89.2129987  39.9515006  94.9535017
  89.8509987  40.5435006  97.0395017  89.9809987  39.1445006  97.3405017
  89.2959987  38.8325006  96.5665017  89.6139987  38.8015006  98.2965017
  91.3279987  38.6155006  97.0725017  91.2629987  37.5415006  97.1215017
  92.2759987  39.1455006  98.2065017  93.1679987  38.5355006  98.2545017
  91.7489987  39.0645006  99.1485017  92.6119987  40.4915006  97.9455017
  94.0539987  41.1465006  98.0095017  93.6429987  42.4675006  98.7675017
  92.5489987  43.2495006  98.3265017  92.0599987  42.8715006  97.4375017
  92.8569987  44.2665006  98.0995017  91.5579987  43.3795006  99.4855017
  91.2939987  42.3855006  99.8225017  90.6629987  43.8775006  99.1405017
  92.0039987  44.1355006 100.7315017  90.8919987  44.0855006 101.6995017
  89.9879987  44.4095006 101.2035017  91.1249987  44.7605006 102.5095017
  90.8039987  43.0795006 102.0805017  93.1719987  43.5155006 101.4005017
  93.9359987  43.3365006 100.6595017  92.8609987  42.6015006 101.8735017
  93.5299987  44.2165006 102.1405017  92.3149987  45.5565006 100.4075017
  93.0889987  45.5885006  99.6555017  92.6569987  46.0575006 101.3005017
  91.4249987  46.0455006 100.0375017  94.9089987  40.3825006  98.9395017
  94.4939987  41.5185006  96.6495017  91.5869987  38.8245006  95.6705017
  92.8149987  38.6045006  95.2665017  93.8219987  38.5605006  95.9065017
  93.0349987  38.4535006  93.7555017  92.0749987  38.0575006  93.4395017
  93.0619987  39.4825006  93.4055017  94.2379987  37.6225006  93.1665017
  95.1069987  37.7855006  93.7955017  94.0079987  36.5645006  93.2405017
  94.5829987  37.9675006  91.7605017  94.7249987  39.0405006  91.6605017
  95.5349987  37.5105006  91.5045017  93.5769987  37.5065006  90.8135017
  93.2949987  36.4815006  91.0485017  92.6659987  38.0955006  90.8845017
  94.1079987  37.5505006  89.2905017  95.1769987  37.6855006  89.4435017
  93.9729987  36.5105006  88.9995017  93.6579987  38.4155006  88.1785017
  94.2249987  39.3325006  88.3315017  94.0689987  37.9455006  87.2895017
  92.2369987  38.7545006  87.9225017  91.7689987  39.0235006  88.8615017
  92.2079987  39.6465006  87.2985017  91.5229987  37.7295006  87.2755017
  91.2419987  37.2495006  88.2005017  91.0769987  37.1525006  86.1105017
  90.4789987  36.2605006  86.2265017  91.2649987  37.5275006  84.8255017
  91.9959987  38.3285006  84.7305017  91.5799987  36.7455006  84.1435017
  89.9339987  38.0555006  84.3945017  89.1219987  37.3305006  84.3745017
  89.5689987  38.9045006  84.9695017  90.2399987  38.5035006  82.9945017
  89.6059987  39.3525006  82.7405017  91.2639987  38.8615006  82.9375017
  90.0319987  37.4015006  81.9725017  90.1989987  36.4445006  82.4615017
  88.9899987  37.4035006  81.6565017  90.9309987  37.5235006  80.7425017
  91.9669987  37.5395006  81.0755017  90.8269987  36.6265006  80.1385017
  90.7109987  38.6805006  79.9395017  91.0769987  39.6135006  80.3635017
  91.1219987  38.6255006  78.9335017  89.2649987  38.7535006  79.8425017
  88.6719987  37.9665006  79.3835017  88.6889987  39.0965006  80.6995017
  89.4019987  39.7815006  78.9715017  88.4329987  40.1975006  78.7105017
  89.8809987  39.4705006  78.0495017  89.9999987  40.5805006  79.4005017
  70.9699987  93.3305006  82.5605017  70.8889987  93.7115006  81.5475017
  72.0259987  93.2745006  82.8105017  70.5129987  94.0585006  83.2245017
  70.3119987  91.9965006  82.6925017  70.7769987  91.3115006  81.9855017
  69.2759987  92.0985006  82.3815017  70.3829987  91.3945006  84.0985017
  69.7149987  91.9115006  84.7875017  71.3839987  91.5025006  84.5115017
  70.0259987  89.9035006  84.0715017  70.6609987  89.4055006  83.3425017
  69.0039987  89.7795006  83.7165017  70.1839987  89.1955006  85.4245017
  71.1389987  89.4005006  85.9015017  70.1159987  88.1125006  85.3305017
  69.1169987  89.6695006  86.2855017  68.2109987  89.2535006  85.8475017
  69.0779987  90.7415006  86.1035017  69.1129987  89.4135006  87.7925017
  68.2559987  89.9135006  88.2405017  69.9969987  89.8675006  88.2375017
  69.0749987  87.9405006  88.1475017  69.8459987  87.3925006  87.6075017
  68.1259987  87.4955006  87.8555017  69.2769987  87.7525006  89.6325017
  68.5929987  88.3955006  90.1825017  70.2809987  88.0685006  89.9115017
  69.0659987  86.3025006  90.0655017  69.7339987  85.6455006  89.5115017
  68.0529987  85.9795006  89.8265017  69.2899987  86.1525006  91.4835017
  69.2789987  85.0925006  91.7295017  68.4619987  86.5985006  92.0315017
  70.4479987  86.6775006  91.9235017  70.3759987  87.6945006  92.3015017
  71.2439987  86.6845006  91.1805017  70.9099987  85.5575006  93.2485017
  70.9979987  84.5595006  92.8235017  70.1019987  85.5095006  93.9735017
  73.1389987  86.1005006  94.4935017  73.2579987  87.1785006  94.4955017
  73.9399987  85.6965006  93.8805017  73.2869987  85.6305006  95.7665017
  73.1389987  84.5585006  95.7945017  72.5669987  86.0985006  96.4275017
  74.3229987  86.4715006  96.2345017  75.2599987  86.9605006  95.6175017
  74.0929987  86.3995006  97.4905017  75.1259987  86.8515006  98.2245017
  75.9689987  86.5745006  97.6095017  75.1699987  86.3005006  99.1535017
  75.1299987  88.3735006  98.4835017  76.0679987  88.6075006  98.9605017
  73.9579987  88.7665006  99.4095017  73.8999987  89.8465006  99.4235017
  74.2329987  88.4205006 100.3985017  72.7099987  88.2055006  99.0175017
  71.6239987  89.0815006  98.2905017  71.7239987  90.5115006  99.0205017
  70.9609987  90.6975006 100.2345017  71.0949987  89.8695006 100.9185017
  69.9029987  90.7265006  99.9895017  71.2569987  92.0625006 100.9395017
  72.1889987  91.9585006 101.4795017  70.4719987  92.2985006 101.6435017
  71.4189987  93.2895006 100.0715017  72.7709987  93.2775006  99.4375017
  73.5129987  93.1225006 100.2085017  72.9279987  94.2385006  98.9695017
  72.7999987  92.5005006  98.6885017  70.3729987  93.2965006  98.9985017
  69.4099987  93.1295006  99.4575017  70.6039987  92.5315006  98.2785017
  70.3969987  94.2705006  98.5305017  71.2639987  94.5195006 100.9055017
  70.2929987  94.5095006 101.3775017  71.3499987  95.3905006 100.2725017
  72.0369987  94.5435006 101.6605017  72.0209987  89.2275006  96.8785017
  70.2889987  88.5265006  98.5635017  75.0799987  89.0875006  97.2525017
  75.2409987  90.3745006  97.3125017  75.5349987  91.0415006  98.2995017
  75.1329987  90.9025006  95.8915017  76.1379987  91.1235006  95.5475017
  74.7629987  90.1145006  95.2405017  74.2369987  92.1185006  95.8385017
  73.2869987  91.9225006  96.3235017  74.6729987  92.9625006  96.3625017
  73.9859987  92.4875006  94.3815017  73.7709987  93.5495006  94.2935017
  74.8939987  92.3145006  93.8085017  72.8639987  91.6775006  93.7655017
  73.1359987  90.6235006  93.7685017  71.9539987  91.7575006  94.3555017
  72.5579987  92.0905006  92.3295017  71.7409987  91.4915006  91.9335017
  72.2099987  93.1215006  92.3185017  73.7649987  91.9735006  91.4055017
  74.4569987  92.7885006  91.6125017  74.3069987  91.0535006  91.6045017
  73.3779987  92.0025006  89.9295017  72.8959987  91.0815006  89.6215017
  72.6669987  92.8025006  89.7295017  74.6219987  92.2555006  89.1295017
  74.8669987  93.2835006  88.9095017  75.4689987  91.3105006  88.6715017
  76.3539987  91.5585006  88.1025017  75.2809987  89.8335006  88.9025017
  76.2119987  89.3305006  88.6455017  75.0999987  89.6205006  89.9505017
  74.1519987  89.2205006  88.0535017  74.1139987  88.1525006  88.2645017
  73.2119987  89.6345006  88.4145017  74.2509987  89.4395006  86.5355017
  73.2949987  89.1325006  86.1105017  74.3269987  90.5105006  86.3695017
  75.3889987  88.7245006  85.7905017  76.2919987  88.6845006  86.3955017
  75.1329987  87.6925006  85.5575017  75.6669987  89.4845006  84.4845017
  75.9279987  90.5155006  84.7155017  76.5349987  89.0635006  83.9845017
  74.4909987  89.5045006  83.5455017  73.5469987  89.7625006  84.0235017
  74.6059987  90.1945006  82.7115017  74.3849987  88.1305006  83.0055017
  75.3739987  87.6825006  82.9465017  73.8329987  87.5345006  83.7295017
  73.7209987  88.0215006  81.7025017  73.6029987  86.9805006  81.4155017
  74.2849987  88.5135006  80.9175017  72.7319987  88.4705006  81.7295017
  40.5689987  21.4025006  82.2245017  41.3739987  21.1785006  81.5315017
  40.9399987  22.1305006  82.9395017  39.7689987  21.8735006  81.6605017
  40.0779987  20.1475006  82.9235017  40.9259987  19.6975006  83.4375017
  39.7759987  19.4405006  82.1555017  38.9379987  20.3575006  83.9225017
  38.0779987  20.8405006  83.4575017  39.2489987  21.0125006  84.7345017
  38.5049987  19.0255006  84.5165017  38.3419987  18.2765006  83.7445017
  37.5689987  19.0985006  85.0675017  39.5839987  18.5405006  85.4335017
  39.8259987  19.2585006  86.2125017  40.5119987  18.3455006  84.8985017
  39.0929987  17.2385006  86.0905017  39.0829987  16.4365006  85.3545017
  38.0639987  17.3595006  86.4235017  39.9129987  16.8465006  87.2115017
  39.7549987  17.7035006  87.8635017  40.9009987  16.9775006  86.7715017
  39.8999987  15.6215006  88.0125017  40.8269987  15.0505006  87.9785017
  39.1039987  14.9235006  87.7575017  39.6809987  16.1365006  89.4225017
  38.9489987  16.9395006  89.4785017  40.5879987  16.5205006  89.8865017
  39.1879987  14.9615006  90.2015017  39.9339987  14.1735006  90.1215017
  38.2909987  14.5835006  89.7115017  38.8659987  15.2515006  91.7285017
  37.9989987  15.9085006  91.7615017  39.6929987  15.8215006  92.1475017
  38.5649987  13.9495006  92.6845017  39.4409987  13.3085006  92.6195017
  37.7519987  13.4035006  92.2095017  38.1769987  14.2075006  94.2355017
  37.1509987  14.5705006  94.2215017  38.7889987  15.0375006  94.5775017
  38.2649987  13.0315006  95.2915017  39.1739987  12.4555006  95.1525017
  37.4329987  12.3475006  95.1455017  38.2149987  13.5735006  96.7755017
  37.3309987  14.1805006  96.9275017  39.0909987  14.1755006  96.9875017
  39.4619987  13.8635006  97.7405017  39.6129987  13.3145006  98.8295017
  40.2819987  14.7085006  97.2535017  41.4689987  15.1395006  97.9015017
  42.3359987  14.5535006  97.6355017  41.2679987  15.0135006  98.9555017
  41.7209987  16.7505006  97.5285017  42.6179987  17.0805006  98.0265017
  40.5669987  17.3735006  98.1335017  40.7359987  18.4415006  98.1495017
  40.5299987  17.0125006  99.1535017  39.3289987  17.0655006  97.4435017
  38.2319987  18.1805006  97.6135017  37.8239987  18.0715006  99.1695017
  37.7659987  16.8135006  99.8425017  38.7509987  16.4925006 100.1545017
  37.4019987  16.0615006  99.1485017  36.7619987  16.7875006 101.0395017
  37.0869987  17.5865006 101.6945017  36.8649987  15.8475006 101.5615017
  35.2699987  16.9945006 100.8435017  34.7409987  16.0495006  99.8395017
  35.3539987  16.1115006  98.9505017  33.7289987  16.3445006  99.6045017
  34.7399987  15.0555006 100.2605017  34.5559987  16.6935006 102.1245017
  35.0429987  17.2325006 102.9225017  34.5759987  15.6325006 102.2965017
  33.5369987  17.0355006 102.0145017  35.0279987  18.3975006 100.4105017
  35.4199987  19.0725006 101.1565017  33.9659987  18.5565006 100.3005017
  35.5199987  18.5725006  99.4645017  38.8639987  19.4785006  97.3135017
  37.0019987  17.8155006  96.8765017  41.6689987  17.2275006  96.1145017
  41.7019987  18.2525006  95.4295017  41.7949987  19.3635006  95.9285017
  41.7799987  18.0515006  93.8365017  42.7689987  17.7175006  93.5415017
  41.0899987  17.2915006  93.4785017  41.4419987  19.4205006  93.2515017
  42.0789987  20.1705006  93.7065017  41.6699987  19.4365006  92.1905017
  39.9709987  19.8075006  93.4745017  39.7499987  19.7935006  94.5385017
  39.8339987  20.8365006  93.1495017  38.9709987  18.9165006  92.7165017
  39.1479987  18.9715006  91.6435017  39.0659987  17.8675006  92.9865017
  37.5309987  19.3715006  92.9925017  37.3899987  19.5055006  94.0635017
  37.3819987  20.3515006  92.5425017  36.4709987  18.4265006  92.4595017
  36.6789987  17.4025006  92.7645017  35.4839987  18.6665006  92.8435017
  36.4329987  18.5005006  90.9435017  36.2699987  19.5265006  90.6325017
  37.4069987  18.2115006  90.5505017  35.4379987  17.6285006  90.3895017
  35.3799987  16.6385006  90.8155017  34.5949987  17.9155006  89.4385017
  33.8909987  17.1705006  89.0965017  34.4869987  19.1765006  88.7615017
  33.4749987  19.5395006  88.9315017  35.1499987  19.8995006  89.2235017
  34.7309987  19.1485006  87.2975017  34.0829987  19.8775006  86.8115017
  35.7509987  19.4765006  87.1085017  34.5199987  17.7785006  86.6645017
  35.2199987  17.0415006  87.0575017  33.5249987  17.3855006  86.8565017
  34.7259987  17.9155006  85.1865017  34.0249987  18.6485006  84.7935017
  35.7209987  18.3095006  84.9885017  34.5559987  16.5825006  84.4515017
  35.4079987  15.9415006  84.6715017  33.6839987  16.0575006  84.8325017
  34.4549987  16.7315006  82.9045017  33.8179987  17.5925006  82.7085017
  35.4469987  17.0025006  82.5485017  33.9469987  15.5525006  82.0735017
  32.8599987  15.5535006  82.0425017  34.2719987  15.6975006  81.0455017
  34.4329987  14.2125006  82.5485017  34.1139987  13.4255006  81.8725017
  34.0509987  13.9685006  83.5345017  35.5179987  14.1865006  82.5995017
  22.0949987  35.3945006  79.3815017  21.8629987  34.5735006  78.7105017
  23.1529987  35.3385006  79.6205017  21.9289987  36.3215006  78.8385017
  21.1979987  35.3345006  80.7055017  21.4069987  34.3365006  81.0865017
  20.1919987  35.3005006  80.2965017  21.2619987  36.3085006  81.8255017
  20.6869987  37.2055006  81.5985017  22.2869987  36.6395006  81.9805017
  20.7479987  35.6965006  83.1275017  21.2339987  34.7455006  83.3335017
  19.6799987  35.4875006  83.0885017  21.0249987  36.6205006  84.2455017
  20.5259987  36.2925006  85.1535017  20.6299987  37.6095006  84.0205017
  22.5309987  36.7265006  84.5165017  22.9629987  37.2155006  83.6455017
  22.9139987  35.7085006  84.5145017  22.9689987  37.3885006  85.6915017
  24.0539987  37.3825006  85.7815017  22.5859987  36.9125006  86.5935017
  22.5009987  38.7595006  85.6395017  22.2349987  39.2415006  84.6995017
  22.9249987  39.5375006  86.2715017  21.1139987  38.1545006  86.3635017
  21.0829987  37.2655006  85.7375017  20.4559987  38.8815006  85.8895017
  20.4729987  37.7525006  88.0095017  20.9809987  36.7985006  88.1315017
  19.4489987  37.5185006  87.7205017  20.4579987  38.5885006  89.4725017
  19.6609987  39.3195006  89.3555017  21.3879987  39.1545006  89.4785017
  20.2889987  37.9255006  90.7625017  20.7059987  38.4655006  91.6085017
  20.7139987  36.9245006  90.8025017  18.8479987  37.8235006  90.8965017
  18.5359987  37.3865006  89.9495017  18.4989987  38.8525006  90.8865017
  18.1869987  37.1185006  91.9445017  17.1139987  37.2805006  91.9155017
  18.5329987  37.4745006  92.9115017  18.4589987  35.6865006  91.8515017
  19.5259987  35.5035006  91.8445017  18.0299987  35.2795006  90.9435017
  17.9409987  35.1155006  93.1415017  16.7799987  34.8325006  93.3315017
  18.9299987  34.9745006  94.0115017  18.5889987  34.3565006  95.2775017
  17.6809987  33.7995006  95.1025017  18.3959987  35.1255006  96.0115017
  19.7279987  33.3985006  95.7565017  19.6229987  32.4775006  95.2075017
  19.7149987  33.1055006  97.2975017  18.8549987  32.4915006  97.5265017
  19.6039987  34.0595006  97.7985017  20.9219987  32.4565006  97.7205017
  22.0559987  33.1645006  98.5505017  21.7829987  34.6855006  98.2905017
  22.8059987  35.6055006  98.5255017  22.8139987  36.3535006  97.7435017
  23.7519987  35.0765006  98.4555017  22.8119987  36.2635006  99.9235017
  23.6969987  36.8715006 100.0645017  22.8619987  35.4165006 100.5925017
  21.6519987  37.1075006 100.4075017  20.3369987  36.4565006 100.3395017
  20.1999987  36.0585006  99.3435017  19.5839987  37.2045006 100.5395017
  20.2889987  35.6835006 101.0925017  21.9319987  37.6855006 101.7175017
  22.9009987  38.1585006 101.6835017  21.8999987  36.9075006 102.4585017
  21.1669987  38.4225006 101.9155017  21.4809987  38.1555006  99.5575017
  22.3919987  38.7335006  99.5175017  20.6739987  38.7765006  99.9175017
  21.2389987  37.7845006  98.5715017  21.8559987  33.0235006 100.0085017
  23.3739987  32.7785006  97.9925017  20.9939987  34.0135006  95.4105017
  21.9479987  33.2215006  94.9595017  21.8499987  32.0235006  94.7435017
  23.1889987  34.0545006  94.6175017  23.3739987  34.7285006  95.4475017
  24.0599987  33.4065006  94.5615017  22.9759987  34.8175006  93.2895017
  22.1299987  35.4845006  93.4165017  23.8369987  35.4545006  93.1115017
  22.7309987  33.9255006  92.0755017  23.3309987  33.0275006  92.1995017
  21.6929987  33.6055006  92.1265017  22.9849987  34.5415006  90.6935017
  22.3959987  35.4455006  90.5505017  24.0229987  34.8275006  90.5395017
  22.5839987  33.5275006  89.6125017  23.1149987  33.7325006  88.6855017
  22.8879987  32.5295006  89.9215017  21.0569987  33.5185006  89.3395017
  20.5759987  32.9465006  90.1315017  20.6739987  34.5325006  89.4175017
  20.6459987  32.9415006  87.9735017  20.9039987  31.8905006  87.9155017
  19.5639987  32.9985006  87.8635017  21.2859987  33.7215006  86.8535017
  21.1099987  34.7865006  86.8315017  22.0679987  33.2105006  85.8865017
  22.4779987  33.8735006  85.1385017  22.4649987  31.7625006  85.7105017
  23.3939987  31.7205006  85.1435017  22.6659987  31.2785006  86.6595017
  21.4049987  30.9685006  84.9505017  21.6759987  29.9225006  85.0915017
  20.4879987  31.1235006  85.5155017  21.1319987  31.2305006  83.4635017
  20.7889987  32.2455006  83.2615017  21.9949987  31.0685006  82.8235017
  20.0559987  30.2675006  83.0985017  20.4579987  29.3085006  83.4175017
  19.2469987  30.5025006  83.7885017  19.4909987  30.1515006  81.6795017
  19.1799987  29.1285006  81.4765017  18.6009987  30.7625006  81.5575017
  20.4889987  30.5215006  80.6855017  20.7889987  31.5345006  80.9485017
  21.3469987  29.8875006  80.8995017  20.2239987  30.4735006  79.2445017
  21.1779987  30.6515006  78.7535017  19.9809987  29.4315006  79.0495017
  19.2149987  31.3025006  78.6445017  19.1009987  31.0685006  77.5905017
  19.4589987  32.3565006  78.7185017  18.2509987  31.1525006  79.1225017
  13.1339987  46.9915006  81.5715017  12.6649987  47.2015006  80.6155017
  13.2749987  45.9165006  81.6425017  14.1179987  47.4525006  81.5655017
  12.3019987  47.5075006  82.7125017  11.3199987  47.0435006  82.6375017
  12.1509987  48.5705006  82.5435017  12.8619987  47.2725006  84.1135017
  12.4989987  46.3275006  84.5175017  12.5029987  48.0465006  84.7895017
  14.4009987  47.2775006  84.1385017  14.7739987  48.0665006  83.4895017
  14.7909987  46.3445006  83.7335017  14.9669987  47.4955006  85.5545017
  14.8379987  46.5675006  86.1065017  14.3259987  48.2305006  86.0385017
  16.4419987  47.9475006  85.6725017  16.5979987  48.3935006  86.6535017
  16.6299987  48.7355006  84.9465017  17.4419987  46.8305006  85.4665017
  18.3719987  47.1715006  85.0145017  17.0639987  46.0375006  84.8225017
  17.7249987  46.2785006  86.8045017  16.8169987  45.8965006  87.2695017
  18.1089987  47.0475006  87.4725017  18.6929987  45.2105006  86.7015017
  19.7469987  45.4535006  86.5855017  18.4979987  44.3745006  86.0305017
  18.4429987  44.7925006  88.0745017  18.0639987  45.7325006  88.4685017
  19.4719987  44.7085006  88.4225017  17.6739987  43.6925006  88.5985017
  17.4929987  43.0415006  87.7465017  16.7069987  44.1125006  88.8685017
  18.1529987  42.9065006  89.6635017  19.0959987  43.3465006  89.9795017
  18.3979987  41.9325006  89.2435017  17.3139987  42.7185006  90.7695017
  17.5539987  41.6695006  90.9325017  16.3699987  42.7355006  90.2315017
  17.1189987  43.3815006  92.1485017  16.0589987  43.5175006  92.3355017
  17.5619987  44.3735006  92.1135017  17.7299987  42.6245006  93.2955017
  18.7829987  42.4475006  93.1145017  17.2339987  41.6695006  93.4245017
  17.3649987  42.9315006  94.6165017  16.2299987  42.8745006  95.0145017
  18.4919987  43.2515006  95.2545017  18.3979987  43.7615006  96.4965017
  19.2199987  43.3175006  97.0325017  17.4719987  43.4555006  96.9615017
  18.5269987  45.2465006  96.4875017  19.5049987  45.5535006  96.1525017
  18.2989987  45.7125006  97.9385017  19.0259987  45.2865006  98.6155017
  17.3109987  45.4405006  98.2815017  18.3969987  47.0865006  97.8965017
  17.3769987  48.0505006  98.4965017  16.7879987  47.2805006  99.7505017
  16.4339987  47.9635006 100.9485017  17.3539987  48.4155006 101.2955017
  16.0919987  47.2525006 101.6895017  15.3499987  49.0485006 100.7695017
  15.0059987  49.3765006 101.7385017  15.7719987  49.8895006 100.2365017
  14.1349987  48.5525006 100.0495017  14.3689987  48.0555006  99.2065017
  13.6579987  47.8595006 100.7445017  13.4999987  49.2975006  99.8195017
  18.1139987  49.1705006  99.0645017  16.1669987  48.2205006  97.6595017
  17.5639987  45.8075006  95.5515017  17.9269987  46.9755006  94.9985017
  19.0069987  47.5155006  95.1095017  16.8309987  47.4645006  94.0315017
  16.3489987  48.3005006  94.5265017  17.3219987  47.8805006  93.1555017
  15.8319987  46.3815006  93.6385017  16.3459987  45.5245006  93.2165017
  15.2909987  46.0115006  94.5035017  14.8449987  46.9335006  92.6045017
  14.2519987  47.7405006  93.0285017  15.3929987  47.3655006  91.7705017
  13.9279987  45.8355006  92.0685017  14.5449987  44.9965006  91.7525017
  13.2899987  45.4605006  92.8645017  13.0399987  46.2635006  90.8765017
  12.3519987  47.0405006  91.2045017  13.6769987  46.7225006  90.1225017
  12.2519987  45.1325006  90.2255017  11.5009987  44.7265006  90.9015017
  11.7209987  45.4505006  89.3325017  13.2229987  44.0425006  89.8465017
  13.4989987  43.5225006  90.7565017  12.6749987  43.3245006  89.2375017
  14.4609987  44.4945006  89.0725017  14.9119987  45.4475006  89.3025017
  15.0319987  43.7725006  88.1315017  15.8859987  44.0285006  87.5215017
  14.5409987  42.6115006  87.8845017  14.7209987  42.0325006  88.7885017
  13.4649987  42.7195006  87.8025017  15.1589987  41.6645006  86.4745017
  16.1649987  41.4455006  86.8315017  14.5819987  40.7525006  86.6135017
  15.2129987  42.0265006  84.8885017  14.1679987  42.2685006  84.6975017
  15.7459987  42.9735006  84.9065017  15.6949987  41.2465006  83.8555017
  16.7419987  41.2085006  84.1475017  15.2649987  40.2865006  84.1375017
  15.5909987  41.4095006  82.4655017  16.3179987  40.8155006  81.9155017
  14.6199987  41.1375006  82.0615017  15.8979987  42.9775006  82.1665017
  15.7189987  43.2005006  81.1165017  15.2089987  43.6045006  82.7295017
  17.0809987  43.3225006  82.4545017  17.2039987  43.4155006  83.5305017
  17.7579987  42.5285006  82.1465017  17.5079987  44.6145006  81.7845017
  18.5529987  44.8265006  81.9875017  16.9299987  45.4635006  82.1345017
  17.3849987  44.5545006  80.7065017  91.7639987  57.4165006  79.8725017
  90.8969987  57.7285006  79.2985017  92.5899987  58.0705006  79.6075017
  91.5409987  57.5785006  80.9235017  92.0959987  56.0115006  79.6145017
  92.5599987  55.6685006  78.6915017  91.5059987  55.1785006  79.9875017
  93.0549987  56.3305006  80.4985017  93.3119987  57.2585006  79.9885017
  93.7459987  55.5785006  80.1215017  93.2899987  56.4965006  81.9885017
  94.0929987  55.8575006  82.3495017  92.4149987  56.2495006  82.5875017
  93.6919987  58.0065006  82.2445017  93.2249987  58.6305006  81.4875017
  94.7669987  58.1015006  82.0975017  93.3289987  58.5345006  83.6025017
  92.2499987  58.6555006  83.6865017  93.7579987  59.5225006  83.7525017
  93.8189987  57.5995006  84.7065017  94.9049987  57.6155006  84.7705017
  93.5419987  56.5685006  84.4895017  93.2239987  58.0105006  86.0665017
  92.1379987  58.0265006  85.9795017  93.5259987  59.0335006  86.2835017
  93.6259987  57.1025006  87.2415017  94.3529987  56.3745006  86.8875017
  92.7539987  56.5325006  87.5575017  94.2049987  57.8535006  88.4485017
  95.0589987  58.4395006  88.1165017  94.5929987  57.1275006  89.1635017
  93.1919987  58.7565006  89.1495017  92.3399987  58.1755006  89.4955017
  92.7909987  59.5045006  88.4675017  93.8179987  59.4565006  90.3545017
  94.4299987  60.2955006  90.0345017  94.4859987  58.7745006  90.8775017
  92.7489987  59.9295006  91.3265017  92.0849987  59.1115006  91.6005017
  92.1169987  60.7055006  90.9045017  93.3909987  60.4495006  92.5885017
  94.2519987  59.8725006  92.9105017  92.6979987  60.4745006  93.4255017
  93.8099987  61.8105006  92.2945017  92.9719987  62.3965006  91.9385017
  94.5829987  61.8115006  91.5345017  93.3149987  62.5355006  93.5245017
  92.5389987  63.4355006  93.4415017  94.0429987  62.2575006  94.6045017
  94.0639987  63.1695006  95.7455017  94.5349987  64.0095006  95.2615017
  94.7619987  62.7175006  96.4335017  92.8649987  63.5895006  96.4275017
  92.8159987  64.6195006  96.7365017  92.9689987  62.6825006  97.6325017
  92.2729987  63.0115006  98.3925017  93.9749987  62.7725006  98.0285017
  92.7049987  61.3675006  97.2555017  93.6739987  60.1425006  97.2825017
  93.4219987  59.5305006  98.7165017  92.3179987  59.9385006  99.5035017
  91.4649987  60.2935006  98.9355017  92.6639987  60.7485006 100.1245017
  91.9059987  58.7745006 100.4435017  92.7969987  58.2405006 100.7395017
  91.0109987  57.8245006  99.7335017  90.0999987  58.0065006 100.1585017
  91.0119987  57.9515006  98.6995017  91.2509987  56.8715006  99.9355017
  91.2449987  59.3985006 101.6735017  93.1239987  59.1825006  96.3165017
  95.1019987  60.5465006  97.2185017  91.7729987  63.4125006  95.6475017
  90.8349987  64.2485006  95.8885017  90.8129987  65.1485006  96.7035017
  90.0119987  59.2015006 101.8605017  91.9859987  60.1235006 102.3905017
  89.6819987  63.7495006  95.1095017  89.7399987  62.6655006  95.1195017
  88.7659987  64.0035006  95.6365017  89.6709987  64.3065006  93.6925017
  89.3709987  65.3485006  93.7015017  90.6649987  64.2845006  93.2575017
  88.7019987  63.5135006  92.8135017  88.9339987  62.4565006  92.9215017
  87.7069987  63.6495006  93.2295017  88.6689987  63.8845006  91.3705017
  88.1789987  63.0955006  90.8035017  88.0809987  64.7845006  91.2095017
  90.0499987  64.0945006  90.7955017  90.5319987  64.9225006  91.3105017
  90.6509987  63.2125006  91.0105017  90.0769987  64.3385006  89.3555017
  89.2949987  63.6235006  89.1035017  89.6039987  65.3165006  89.3755017
  91.1139987  64.3325006  88.2835017  90.6489987  64.6325006  87.3515017
  91.8489987  65.1005006  88.5205017  91.7969987  63.0695006  88.1415017
  92.4099987  62.7625006  88.9755017  91.7369987  62.2455006  87.0985017
  92.3139987  61.3335006  87.1545017  90.9539987  62.4015006  85.8135017
  90.6519987  61.4005006  85.5085017  90.0379987  62.9485006  86.0085017
  91.6989987  63.0565006  84.6425017  91.1079987  62.9685006  83.7315017
  91.8029987  64.1225006  84.8345017  93.0949987  62.4455006  84.4115017
  93.7629987  62.8335006  85.1805017  93.0319987  61.3735006  84.5765017
  93.7049987  62.7155006  83.0295017  93.9869987  63.7645006  82.9755017
  94.6279987  62.1475006  82.9305017  92.7639987  62.3625006  81.8615017
  92.1569987  61.5005006  82.1305017  92.0639987  63.1735006  81.6825017
  93.5159987  62.0245006  80.5695017  93.8459987  62.9585006  80.1175017
  94.4209987  61.4845006  80.8415017  92.7659987  61.2125006  79.5145017
  93.4409987  60.7605006  78.7915017  92.2439987  60.3845006  79.9895017
  91.8159987  62.0205006  78.8345017  91.2229987  61.4235006  78.1475017
  92.2909987  62.8055006  78.2555017  91.1339987  62.4935006  79.5345017
  66.3949987  99.0065006  81.3175017  67.2239987  98.4085006  80.9525017
  65.9329987  98.4665006  82.1395017  66.8049987  99.9285006  81.7195017
  65.3999987  99.2885006  80.2235017  64.9589987  98.3835006  79.8095017
  65.8379987  99.8255006  79.3865017  64.3169987 100.1195006  80.8625017
  64.2889987 101.1395006  80.4785017  64.4559987 100.2065006  81.9385017
  62.9979987  99.4585006  80.6065017  62.8989987  99.3755006  79.5265017
  62.2219987 100.1515006  80.9275017  62.7359987  98.0685006  81.2365017
  63.6879987  97.5455006  81.2635017  62.1099987  97.5265006  80.5295017
  62.0959987  98.0085006  82.6285017  62.1859987  96.9955006  83.0175017
  61.0299987  98.2065006  82.5395017  62.7049987  98.9835006  83.6215017
  62.3039987  99.9835006  83.4695017  63.7809987  99.0615006  83.4695017
  62.4299987  98.5435006  85.0525017  62.7869987  97.5215006  85.1725017
  61.3519987  98.5085006  85.2025017  63.0569987  99.4235006  86.1245017
  62.8759987 100.4775006  85.9225017  64.1389987  99.3005006  86.1495017
  62.4859987  99.0695006  87.4695017  62.9339987  98.1365006  87.8045017
  61.4189987  98.8745006  87.3615017  62.6869987 100.1185006  88.4855017
  62.2049987 101.0565006  88.2165017  63.7349987 100.3565006  88.6605017
  62.0969987  99.6405006  89.7115017  61.0369987  99.5565006  89.4825017
  62.1949987 100.4805006  90.3965017  62.5909987  98.3585006  90.4265017
  62.8269987  97.6175006  89.6645017  61.7829987  97.9395006  91.0195017
  63.8289987  98.5305006  91.3185017  64.2049987  99.5175006  91.0715017
  64.5369987  97.8135006  90.9115017  63.7939987  98.3645006  92.8995017
  63.3899987  97.3975006  93.1705017  63.1779987  99.1355006  93.3465017
  63.5659987  99.6715006  93.7155017  63.8459987 100.7955006  93.3305017
  62.8889987  99.4115006  94.8125017  62.6039987 100.5645006  95.6305017
  61.6579987 100.9315006  95.2635017  63.3409987 101.3505006  95.5565017
  62.4589987 100.0765006  97.0935017  62.2489987 100.9205006  97.7295017
  63.8099987  99.3995006  97.5315017  63.9309987  99.5245006  98.5985017
  64.6069987  99.9315006  97.0275017  63.8379987  98.0085006  97.1825017
  65.0209987  96.9675006  97.3765017  65.6099987  97.4115006  98.7885017
  66.5319987  96.5635006  99.4765017  67.0839987  97.1095006 100.2305017
  67.2659987  96.1895006  98.7685017  65.8569987  95.2795006 100.0895017
  66.6159987  94.6715006 100.5645017  65.4029987  94.7085006  99.2925017
  64.7589987  95.4765006 101.1445017  64.0849987  94.2135006 101.5345017
  63.7639987  93.7025006 100.6375017  63.2249987  94.4665006 102.1365017
  64.7709987  93.6155006 102.1155017  65.3969987  96.1475006 102.3085017
  65.9489987  97.0025006 101.9505017  66.0399987  95.4455006 102.8095017
  64.6049987  96.4675006 102.9705017  63.6789987  96.3605006 100.6385017
  64.1009987  97.3155006 100.3625017  62.9429987  96.5015006 101.4155017
  63.2129987  95.9035006  99.7775017  64.4089987  95.6235006  97.5445017
  66.0309987  97.1155006  96.3105017  61.3209987  99.2095006  97.1815017
  61.2149987  98.3915006  98.1945017  61.6589987  98.4655006  99.3155017
  60.3809987  97.2825006  97.8015017  60.1669987  96.5765006  98.5975017
  59.4189987  97.5345006  97.3615017  61.3419987  96.6865006  96.7405017
  61.6369987  97.4705006  96.0525017  62.2549987  96.3515006  97.2225017
  60.8029987  95.6905006  96.0565017  60.1399987  95.2955006  96.8215017
  60.1769987  96.2725006  95.3835017  61.5479987  94.3345006  95.1225017
  61.2199987  93.4165006  95.6065017  61.1019987  94.3315006  94.1305017
  62.9009987  94.2915006  94.9955017  63.3389987  95.2735006  95.1625017
  63.3259987  93.6375006  95.7545017  63.3129987  93.7845006  93.6365017
  62.6479987  92.9525006  93.4105017  63.0819987  94.5655006  92.9175017
  64.6589987  93.3745006  93.4455017  65.2299987  93.0915006  94.3225017
  64.8239987  92.5915006  92.7065017  65.1419987  94.6715006  92.8835017
  65.5179987  95.3475006  93.6375017  65.1829987  95.0975006  91.5955017
  65.5859987  96.0915006  91.4635017  64.7669987  94.4245006  90.3055017
  65.6769987  93.9375006  89.9595017  64.0819987  93.6295006  90.5785017
  64.1649987  95.2435006  89.1125017  63.1289987  95.4805006  89.3515017
  64.6909987  96.1955006  89.0675017  64.2309987  94.5695006  87.7455017
  65.2409987  94.7525006  87.3795017  64.1659987  93.5015006  87.9365017
  63.2189987  94.9565006  86.6535017  62.2419987  94.5785006  86.9465017
  63.1299987  96.0415006  86.6275017  63.5819987  94.4405006  85.2415017
  63.3469987  93.3785006  85.1915017  62.9379987  94.9215006  84.5105017
  65.0389987  94.6155006  84.8465017  65.2859987  95.6755006  84.8245017
  65.6759987  94.1735006  85.6105017  65.4049987  94.0065006  83.5015017
  66.4849987  94.0605006  83.3865017  65.1679987  92.9475006  83.5745017
  64.7319987  94.5755006  82.2535017  65.0069987  94.0035006  81.3725017
  65.0169987  95.6065006  82.0735017  63.6499987  94.5435006  82.3445017
  90.3609987  33.7135006  80.8305017  89.7509987  34.1255006  80.0325017
  90.5279987  32.6635006  80.6105017  91.3249987  34.2135006  80.8015017
  89.6889987  33.8935006  82.1945017  88.7299987  33.4215006  81.9885017
  89.5159987  34.9655006  82.1605017  90.1829987  33.4635006  83.6475017
  91.2589987  33.6365006  83.6725017  90.0509987  32.3845006  83.7005017
  89.5669987  34.0675006  84.8365017  88.5009987  33.8635006  84.9065017
  89.6699987  35.1505006  84.8805017  90.2619987  33.4445006  86.0425017
  91.2949987  33.7835006  86.0525017  90.2949987  32.3685006  85.8785017
  89.6539987  33.7185006  87.3665017  90.4099987  33.4615006  88.1065017
  88.8509987  32.9945006  87.4875017  89.1429987  35.0525006  87.6445017
  88.3959987  35.1635006  88.4285017  88.7949987  35.6545006  86.8055017
  90.3129987  35.5345006  88.0785017  90.0689987  36.5815006  88.2545017
  90.9129987  35.5105006  87.1705017  91.0999987  35.0375006  89.1815017
  91.1659987  33.9535006  89.1095017  90.5769987  35.2485006  90.1135017
  92.4309987  35.5945006  89.2455017  92.2959987  36.5555006  89.7365017
  92.6879987  35.8145006  88.2095017  93.6669987  34.7765006  89.9445017
  93.5939987  33.8025006  89.4645017  93.3099987  34.6385006  90.9635017
  95.2339987  35.2145006  89.9795017  95.1939987  36.1295006  90.5645017
  95.3999987  35.5205006  88.9485017  96.3599987  34.3925006  90.4095017
  97.3139987  34.8775006  90.2105017  96.4029987  33.4245006  89.9185017
  96.2469987  34.1845006  91.8955017  96.3489987  33.1275006  92.1185017
  95.2459987  34.4755006  92.2025017  97.2639987  34.9765006  92.7295017
  97.2029987  36.0325006  92.4985017  98.2709987  34.6325006  92.5235017
  96.9069987  34.9035006  94.1975017  97.5339987  34.3445006  95.0735017
  95.7479987  35.4815006  94.3285017  95.3119987  35.5245006  95.6865017
  95.9029987  36.2945006  96.1545017  95.5449987  34.5725006  96.1395017
  93.8399987  35.8395006  95.8155017  93.5779987  36.6355006  95.1385017
  93.6839987  36.3065006  97.2795017  94.1379987  37.2815006  97.3975017
  94.2169987  35.6025006  97.9095017  92.3479987  36.3455006  97.6165017
  91.6249987  35.7245006  98.7885017  91.9359987  34.3755006  98.0965017
  91.9389987  33.2105006  98.8505017  91.5919987  32.3185006  98.3405017
  91.2459987  33.4285006  99.6475017  93.3469987  32.9645006  99.5045017
  93.6349987  33.8565006 100.0415017  94.3779987  32.6985006  98.4575017
  94.5599987  31.6985006  98.5635017  94.0679987  32.9575006  97.4975017
  95.2359987  33.1815006  98.6535017  93.3199987  31.8625006 100.5675017
  92.4699987  36.0705006  99.9285017  90.1669987  35.9885006  98.8115017
  92.9709987  34.7655006  95.5915017  92.5749987  34.4685006  94.3945017
  92.8589987  34.9245006  93.3175017  94.1439987  30.9045006 100.5275017
  92.5219987  32.0405006 101.5135017  91.7879987  33.2535006  94.5635017
  92.4569987  32.4125006  94.7155017  91.1699987  33.3075006  95.4565017
  90.9399987  33.0835006  93.3255017  90.0529987  33.7055006  93.3615017
  91.4679987  33.3665006  92.4205017  90.5419987  31.6955006  93.2475017
  91.3949987  31.0605006  93.0225017  90.1659987  31.3675006  94.2135017
  89.4349987  31.4885006  92.1915017  88.9849987  30.5085006  92.3395017
  88.6359987  32.2135006  92.3275017  89.9509987  31.5765006  90.7155017
  89.1369987  31.3175006  90.0415017  90.1989987  32.6155006  90.5055017
  91.2309987  30.6655006  90.3805017  91.7669987  30.5165006  91.3165017
  90.8759987  29.6865006  90.0715017  92.1429987  31.1605006  89.3835017
  91.5329987  31.4595006  88.5395017  92.5659987  32.0755006  89.7965017
  93.2639987  30.2695006  88.9495017  93.5959987  29.3975006  89.4935017
  93.8979987  30.5515006  87.8045017  94.7089987  29.9285006  87.4545017
  93.5749987  31.7225006  86.8875017  93.3609987  31.3325006  85.8935017
  92.6799987  32.2445006  87.2075017  94.7579987  32.7425006  86.7695017
  94.9949987  33.0625006  87.7835017  95.6159987  32.1685006  86.4245017
  94.5819987  33.9655006  85.8785017  93.7149987  34.5415006  86.2025017
  95.4379987  34.6285006  85.9675017  94.4069987  33.5785006  84.4715017
  93.4429987  33.0755006  84.4655017  94.2599987  34.5245006  83.9535017
  95.4229987  32.7535006  83.7215017  96.4249987  33.0845006  83.9895017
  95.3609987  31.7135006  84.0315017  95.2879987  32.8535006  82.2425017
  94.4859987  32.1705006  81.9675017  94.9109987  33.8555006  82.0455017
  96.3939987  32.6145006  81.3925017  97.1979987  31.9075006  81.5825017
  96.3299987  32.7055006  80.3105017  96.7099987  33.7715006  81.8905017
  97.6139987  34.1565006  81.4285017  96.8889987  33.7175006  82.9595017
  95.9189987  34.4975006  81.7245017  16.1419987  74.0475006  79.4405017
  15.5629987  73.1295006  79.4125017  15.6779987  74.7525006  78.7575017
  16.0609987  74.4585006  80.4435017  17.5349987  73.8065006  79.0835017
  17.6519987  73.4085006  78.0775017  18.0239987  73.1005006  79.7495017
  18.1159987  74.9615006  79.1545017  17.7029987  75.7225006  78.4925017
  19.1839987  74.9305006  78.9485017  17.8389987  75.5565006  81.1575017
  16.9679987  75.0285006  81.5395017  17.5789987  76.6135006  81.1685017
  19.0299987  75.3105006  82.1195017  19.5949987  76.1395006  82.5375017
  19.7529987  74.5245006  81.9085017  18.0899987  74.8395006  83.1075017
  17.2779987  74.2325006  82.7105017  17.6229987  75.6215006  83.7015017
  18.9239987  74.0215006  83.9655017  19.6399987  74.5875006  84.5585017
  19.4999987  73.2655006  83.4345017  17.9489987  73.3485006  84.8785017
  18.4389987  72.5205006  85.3895017  17.1419987  72.9105006  84.2945017
  17.3559987  74.3075006  85.9215017  16.5849987  73.7725006  86.4715017
  16.8469987  75.1115006  85.3905017  18.3629987  74.9135006  86.9145017
  17.8069987  75.6245006  87.5215017  19.0689987  75.5005006  86.3275017
  19.1459987  73.9385006  87.8245017  19.9749987  73.5005006  87.2735017
  18.5149987  73.1065006  88.1325017  19.7109987  74.6375006  89.0745017
  20.1739987  75.5805006  88.7945017  20.5029987  74.0265006  89.5045017
  18.6459987  74.8715006  90.1375017  18.1689987  73.9205006  90.3685017
  17.8639987  75.5175006  89.7485017  19.1789987  75.4645006  91.4485017
  19.7009987  76.3995006  91.2735017  19.8959987  74.7835006  91.8995017
  17.9989987  75.7105006  92.4795017  17.4429987  74.7965006  92.6435017
  17.3209987  76.4675006  92.1035017  18.4519987  76.4585006  93.7925017
  19.6449987  76.4535006  93.8165017  17.4579987  77.4375006  94.3105017
  17.2479987  78.8215006  95.1225017  17.0229987  79.4415006  94.2675017
  18.1889987  79.1365006  95.5495017  16.2599987  78.9005006  96.0265017
  16.2949987  79.6805006  96.7695017  16.4329987  77.5515006  96.6885017
  17.3009987  77.5285006  97.3325017  16.5409987  76.7825006  95.9345017
  15.2779987  77.3475006  97.4245017  15.4539987  77.0685006  98.9595017
  16.3469987  75.7375006  98.9555017  15.8559987  74.6545006  98.1645017
  15.9929987  74.8365006  97.1065017  14.7869987  74.5495006  98.3235017
  16.4679987  73.2805006  98.5805017  17.5269987  73.4485006  98.4305017
  16.1479987  72.4775006  97.9315017  16.3289987  72.7475006 100.0085017
  14.9159987  72.2665006 100.1495017  14.2489987  73.0535006  99.8245017
  14.7409987  72.0495006 101.1925017  14.7919987  71.3665006  99.5655017
  17.2409987  71.5675006 100.1915017  18.2259987  71.8395006  99.8455017
  16.8479987  70.7315006  99.6415017  17.2679987  71.3415006 101.2475017
  16.7419987  73.7725006 101.0055017  17.7649987  74.0605006 100.8155017
  16.6619987  73.3545006 101.9975017  16.0969987  74.6355006 100.9235017
  16.2209987  78.1685006  99.5885017  14.0929987  76.7695006  99.4625017
  15.0899987  79.2415006  95.2955017  15.0199987  80.3645006  94.5545017
  15.7629987  81.3155006  94.4865017  13.8949987  80.1345006  93.5935017
  13.0349987  79.8425006  94.1875017  13.6319987  81.0845006  93.1355017
  14.2379987  79.0915006  92.5345017  14.7629987  78.2625006  92.9965017
  13.3309987  78.6735006  92.1095017  15.0909987  79.6665006  91.4465017
  14.6239987  80.4995006  90.9275017  16.0389987  80.0395006  91.8265017
  15.3739987  78.5215006  90.4585017  16.0629987  77.7935006  90.8825017
  14.4809987  77.9685006  90.1775017  15.9969987  79.0945006  89.2215017
  15.3239987  79.8675006  88.8565017  16.8999987  79.6085006  89.5465017
  16.3839987  78.0815006  87.9875017  16.7409987  77.2115006  88.5355017
  15.4069987  77.8155006  87.5935017  17.3999987  78.3835006  86.7205017
  18.3089987  77.8295006  86.9215017  16.9409987  77.9155006  85.8505017
  17.7129987  79.8725006  86.3785017  18.0039987  80.3865006  87.2825017
  17.7019987  80.5715006  85.2735017  17.9849987  81.6035006  85.1215017
  17.2569987  79.8935006  84.0635017  18.1789987  80.1715006  83.5565017
  17.4349987  78.9195006  84.5045017  16.1669987  79.7835006  83.0315017
  15.9229987  80.7855006  82.6795017  16.5729987  79.2505006  82.1735017
  14.9059987  79.0915006  83.4955017  14.2919987  79.9005006  83.8925017
  14.4229987  78.7665006  82.5785017  14.9259987  77.9325006  84.5015017
  15.3539987  77.0705006  83.9945017  15.6209987  78.1925006  85.2985017
  13.5789987  77.5615006  85.1115017  13.5999987  76.5225006  85.4365017
  13.3959987  78.1485006  86.0075017  12.4389987  77.7215006  84.1505017
  11.5959987  78.3115006  84.5055017  12.6979987  78.1235006  83.1725017
  12.0089987  76.3695006  83.9855017  12.7339987  75.7295006  83.4895017
  11.7989987  75.8945006  84.9415017  10.7709987  76.4085006  83.1955017
  10.3389987  75.4165006  83.1065017  10.9429987  76.7795006  82.1905017
  10.0299987  77.0505006  83.6625017  47.4599987  11.3405006  81.4445017
  48.1209987  10.7815006  80.7905017  46.5219987  11.4905006  80.9175017
  47.2539987  10.7215006  82.3135017  48.0799987  12.6675006  81.8535017
  48.3029987  13.1575006  80.9075017  49.0369987  12.3815006  82.2815017
  47.3629987  13.6595006  82.7785017  46.7199987  14.2975006  82.1725017
  48.1139987  14.3155006  83.2135017  46.5359987  13.0425006  83.9185017
  47.2329987  12.6895006  84.6755017  46.0319987  12.1565006  83.5355017
  45.4999987  13.9675006  84.5945017  44.8469987  14.4175006  83.8505017
  46.0119987  14.7915006  85.0895017  44.6359987  13.2105006  85.6265017
  43.9609987  12.5285006  85.1135017  44.0049987  13.9125006  86.1675017
  45.4889987  12.4215006  86.6285017  46.3889987  12.9955006  86.8395017
  45.8199987  11.5015006  86.1485017  44.7899987  12.0805006  87.9415017
  43.7209987  11.9415006  87.7845017  44.8879987  12.8965006  88.6545017
  45.3689987  10.8325006  88.5365017  46.4459987  10.9435006  88.6405017
  45.2139987   9.9965006  87.8545017  44.7709987  10.4975006  89.8765017
  44.9969987   9.4525006  90.0755017  43.6879987  10.5615006  89.7745017
  45.2109987  11.3515006  91.0405017  44.7639987  10.9815006  91.9605017
  44.8569987  12.3745006  90.9225017  46.7279987  11.3605006  91.2125017
  47.1829987  11.6435006  90.2665017  47.0539987  10.3415006  91.4145017
  47.2279987  12.2515006  92.3145017  46.8209987  13.2485006  92.1555017
  48.3079987  12.3485006  92.2435017  46.8599987  11.8135006  93.7295017
  47.3159987  10.8585006  93.9675017  45.7839987  11.6745006  93.7985017
  47.2889987  12.8565006  94.7815017  46.8719987  13.8275006  94.5445017
  48.3689987  12.9405006  94.8115017  46.4049987  14.1195006  94.7785017
  45.7919987  14.5735006  93.8315017  46.5429987  14.7105006  95.9565017
  45.8669987  15.9815006  96.0655017  45.5709987  16.3255006  95.0855017
  46.5239987  16.7135006  96.5135017  44.6669987  15.7515006  96.9155017
  43.9789987  16.5785006  96.8515017  44.9859987  15.4455006  98.4015017
  45.6249987  16.2375006  98.7665017  45.5489987  14.5205006  98.3965017
  43.8289987  15.3185006  99.2255017  43.9689987  14.4785006 100.5585017
  44.2119987  12.9805006 100.0105017  43.0679987  12.2825006  99.4975017
  42.5849987  12.8875006  98.7415017  42.3559987  12.1785006 100.3105017
  43.3119987  10.8375006  98.9825017  42.4599987  10.5085006  98.4015017
  43.4189987  10.1895006  99.8405017  44.5369987  10.5795006  98.1065017
  45.7689987  10.9575006  98.8375017  45.6489987  11.9615006  99.2205017
  46.5919987  10.9315006  98.1395017  45.9409987  10.2425006  99.6275017
  44.7479987   9.1565006  97.7465017  43.8209987   8.7585006  97.3625017
  45.0759987   8.6185006  98.6185017  45.5089987   9.1265006  96.9805017
  44.5299987  11.4105006  96.8515017  43.6349987  11.1955006  96.2875017
  45.3989987  11.1655006  96.2585017  44.5549987  12.4585006  97.1125017
  45.1779987  14.9725006 101.2285017  42.6759987  14.5225006 101.3005017
  44.0559987  14.5955006  96.3045017  42.9639987  14.5285006  95.6645017
  42.2089987  15.3135006  95.4865017  42.2189987  13.3145006  95.5035017
  42.8379987  12.5845006  94.9925017  41.9759987  12.8755006  96.4685017
  40.9559987  13.6425006  94.7165017  40.6359987  12.6955006  94.2965017
  40.2129987  13.9065006  95.4615017  40.9799987  14.6775006  93.6315017
  40.0019987  14.8685006  93.1985017  41.3439987  15.6365006  93.9925017
  41.8709987  14.2015006  92.6315017  42.8799987  14.5565006  92.8365017
  41.9249987  13.1155006  92.6285017  41.5039987  14.6355006  91.3645017
  40.5749987  14.0975006  91.1855017  41.2239987  15.6715006  91.5475017
  42.3369987  14.5815006  90.1595017  42.8819987  13.6385006  90.1595017
  41.7019987  14.5685006  89.2785017  43.3269987  15.7365006  90.0305017
  44.0249987  15.5445006  90.8375017  43.8529987  15.4985006  89.1065017
  42.9179987  17.2115006  89.9945017  42.8669987  17.7805006  90.9105017
  42.6299987  17.8475006  88.8755017  42.3479987  18.8865006  88.7805017
  42.6859987  17.1235006  87.6005017  43.4639987  16.3885006  87.7995017
  41.7509987  16.5755006  87.5675017  42.9519987  17.7365006  86.2565017
  42.2599987  18.5635006  86.1035017  43.9489987  18.1735006  86.2725017
  42.8499987  16.7715006  85.0955017  43.5149987  17.2025006  84.3475017
  43.3429987  15.8735006  85.4585017  41.5499987  16.3995006  84.4455017
  40.8969987  15.9045006  85.1615017  41.0159987  17.2875006  84.1095017
  41.7899987  15.5285006  83.3105017  41.0099987  15.7255006  82.5775017
  42.7209987  15.8355006  82.8425017  41.8119987  14.0085006  83.5835017
  42.4609987  13.7725006  84.4245017  40.8209987  13.6505006  83.8575017
  42.3019987  13.2055006  82.3385017  41.7879987  13.5695006  81.4525017
  43.3519987  13.4495006  82.1925017  42.1609987  11.7225006  82.4205017
  42.6059987  11.2445006  81.5525017  41.1209987  11.4155006  82.4635017
  42.6569987  11.3315006  83.3045017  87.4199987  88.3135006  81.0745017
  87.7669987  87.5225006  80.4175017  87.8749987  89.2425006  80.7435017
  86.3459987  88.4075006  80.9405017  87.7489987  88.0325006  82.4525017
  88.7629987  87.9235006  82.0725017  87.2449987  87.0915006  82.2505017
  87.8069987  88.3175006  84.1315017  87.1529987  89.1855006  84.2155017
  88.8229987  88.6945006  84.2345017  87.4299987  87.0355006  85.6825017
  87.7109987  87.5715006  86.5855017  88.1389987  86.2155006  85.5855017
  85.5019987  86.2585006  85.9385017  84.9389987  86.5965006  85.0725017
  85.1009987  86.8005006  86.7935017  85.3049987  85.0315006  86.0975017
  85.9599987  84.2665006  85.6845017  84.3119987  84.5905006  86.1405017
  85.7539987  85.3715006  87.4815017  86.8349987  85.4495006  87.3855017
  85.5639987  84.4575006  88.0415017  85.2249987  86.5795006  88.2835017
  84.1669987  86.7185006  88.0675017  85.7259987  87.4845006  87.9435017
  85.4059987  86.4425006  89.7135017  84.6809987  85.7125006  90.0665017
  85.1279987  87.3915006  90.1705017  86.7639987  86.0525006  90.1785017
  86.9719987  85.0745006  89.7495017  86.7019987  85.9065006  91.2565017
  87.8749987  86.9845006  89.8775017  87.7569987  87.9305006  90.4025017
  87.9349987  87.2315006  88.8185017  89.1649987  86.3605006  90.3135017
  89.9989987  86.9905006  90.0125017  89.2989987  85.4115006  89.7975017
  89.2119987  86.1165006  91.7665017  90.0409987  85.4455006  91.9845017
  88.3119987  85.6045006  92.0945017  89.3879987  87.3115006  92.5545017
  88.5359987  87.9135006  92.8525017  90.1869987  88.0025006  92.2985017
  89.8209987  86.5005006  93.6855017  90.6509987  85.8665006  93.4015017
  89.0079987  85.8745006  94.0345017  89.2379987  86.5565006  94.8235017
  88.8699987  87.6175006  95.3125017  89.5599987  85.3785006  95.3695017
  88.6249987  84.9455006  96.2775017  88.4009987  85.9365006  96.6335017
  89.1079987  84.3905006  97.0695017  87.2829987  84.2095006  95.7945017
  86.9359987  84.9235006  95.0645017  86.1119987  83.8325006  96.7745017
  85.2659987  83.4555006  96.2165017  85.7989987  84.7115006  97.3185017
  86.5949987  82.8685006  97.6945017  85.4569987  81.9825006  98.2995017
  86.0959987  81.7625006  99.7415017  87.4159987  81.1875006  99.7775017
  88.0599987  81.8535006  99.2175017  87.4369987  80.2095006  99.3135017
  87.9289987  81.0565006 101.2265017  87.1289987  80.6565006 101.8305017
  88.7549987  80.3585006 101.2195017  88.3519987  82.3395006 101.8985017
  88.9669987  82.8865006 101.3195017  87.4259987  82.8965006 102.0515017
  88.8009987  82.1735006 102.7825017  84.2829987  82.8765006  98.4595017
  85.3519987  80.7575006  97.4965017  87.7989987  83.1555006  95.0755017
  86.9649987  82.6965006  94.1985017  85.8569987  83.1135006  93.8975017
  87.6749987  81.5235006  93.6285017  88.7179987  81.6055006  93.9165017
  87.3059987  80.6165006  94.1015017  87.5039987  81.4605006  92.1095017
  87.8459987  80.4995006  91.7425017  86.4539987  81.5275006  91.8425017
  88.2899987  82.5735006  91.4095017  87.6069987  83.1855006  90.8255017
  88.7079987  83.2275006  92.1705017  89.4409987  82.0605006  90.5135017
  88.9779987  81.4055006  89.7775017  89.8279987  82.9125006  89.9605017
  90.6309987  81.3015006  91.1635017  90.2019987  80.4355006  91.6635017
  91.2169987  80.9125006  90.3325017  91.5889987  82.0435006  92.1445017
  91.0129987  82.2525006  93.0445017  92.3709987  81.3475006  92.4345017
  92.2469987  83.3445006  91.6485017  91.5529987  84.0895006  91.2755017
  92.8529987  83.8415006  92.4055017  93.1369987  82.8615006  90.5745017
  93.8049987  82.0565006  90.8435017  93.1919987  83.2995006  89.3245017
  93.9129987  82.7705006  88.7185017  92.4429987  84.3875006  88.5835017
  91.6339987  84.7235006  89.2295017  93.0829987  85.2485006  88.4265017
  91.8409987  83.9545006  87.2525017  91.0639987  84.6665006  86.9775017
  92.6149987  84.0425006  86.4925017  91.2709987  82.5475006  87.2245017
  92.0459987  81.7865006  87.3155017  90.5659987  82.3615006  88.0305017
  90.5659987  82.3865006  85.8885017  91.2229987  82.7675006  85.1095017
  90.4369987  81.3245006  85.6855017  89.2019987  83.0855006  85.8115017
  88.4469987  82.5345006  86.3695017  89.2279987  84.0795006  86.2495017
  88.7449987  83.1675006  84.3585017  87.8249987  83.7475006  84.3115017
  89.4849987  83.7285006  83.7905017  88.5109987  81.8265006  83.6585017
  89.4189987  81.2455006  83.7965017  87.7499987  81.3345006  84.2605017
  88.0939987  81.7695006  82.2095017  87.8889987  80.7465006  81.9075017
  88.8639987  82.1555006  81.5505017  87.1919987  82.3515006  82.0395017
  18.8879987  24.9825006  78.3485017  18.0589987  25.0305006  77.6495017
  19.3289987  23.9925006  78.2725017  19.6349987  25.7015006  78.0245017
  18.4909987  25.2345006  79.5805017  17.7969987  24.5265006  80.0305017
  18.0859987  26.2245006  79.7745017  20.0039987  25.0715006  80.3145017
  20.7439987  25.6855006  79.8005017  20.3479987  24.0435006  80.2205017
  19.9849987  25.4225006  81.7195017  20.9709987  25.3835006  82.1765017
  19.3469987  24.7795006  82.3235017  19.5069987  26.7555006  81.7875017
  18.4899987  26.8325006  81.4115017  20.1129987  27.4115006  81.1645017
  19.5399987  27.2385006  83.1775017  19.7359987  28.3035006  83.0715017
  20.4509987  26.7995006  83.5785017  18.4329987  27.0375006  84.1465017
  17.4919987  26.6795006  83.7345017  18.1839987  27.8905006  84.7765017
  19.0439987  25.9625006  84.9895017  19.5229987  25.4585006  84.1515017
  18.1039987  25.4415006  85.1605017  19.8829987  25.8345006  86.1675017
  20.9209987  25.9915006  85.8805017  19.8209987  24.8115006  86.5365017
  19.5319987  26.7615006  87.2505017  19.2419987  27.7155006  86.8165017
  20.4179987  26.9575006  87.8535017  18.4319987  26.2445006  88.1405017
  18.2529987  25.2015006  87.8875017  17.5109987  26.7745006  87.9045017
  18.6959987  26.3365006  89.6405017  19.5799987  25.7485006  89.8725017
  17.8679987  25.8585006  90.1605017  18.8559987  27.7745006  90.1845017
  17.8869987  28.2625006  90.0905017  19.5349987  28.3165006  89.5325017
  19.3249987  27.9315006  91.6355017  19.3859987  28.9765006  91.9205017
  20.3219987  27.5145006  91.7535017  18.3729987  27.2015006  92.5955017
  18.2699987  26.1625006  92.3095017  17.3939987  27.6645006  92.5805017
  18.8689987  26.9665006  93.9995017  20.0079987  27.1175006  94.3835017
  17.8029987  26.6435006  94.7035017  17.8849987  26.4715006  96.1195017
  17.0029987  27.0525006  96.3405017  18.7239987  26.8815006  96.6635017
  17.6589987  25.0045006  96.4865017  16.6439987  24.6745006  96.3405017
  18.0229987  25.0005006  98.0945017  17.4989987  24.1615006  98.5325017
  17.5959987  25.9165006  98.4825017  19.4419987  24.9315006  98.4045017
  20.0399987  25.7265006  99.6185017  21.5899987  25.7855006  99.2555017
  22.0379987  26.4275006  98.0685017  21.3089987  26.4085006  97.2685017
  22.9299987  25.9405006  97.6845017  22.4709987  27.8675006  98.3865017
  21.6679987  28.4365006  98.8375017  22.7439987  28.3325006  97.4505017
  23.6729987  28.0445006  99.3075017  23.4059987  27.6205006 100.7095017
  22.4989987  28.1025006 101.0495017  24.2379987  27.9405006 101.3185017
  23.3269987  26.5445006 100.7415017  24.8139987  27.2025006  98.8405017
  24.9639987  27.3825006  97.7865017  24.5899987  26.1685006  99.0355017
  25.6889987  27.5075006  99.3965017  23.9769987  29.4975006  99.3985017
  24.1749987  29.8815006  98.4095017  24.8459987  29.6395006 100.0235017
  23.1329987  30.0165006  99.8305017  19.4379987  27.0715006  99.5145017
  19.9029987  24.9365006 100.8725017  18.3209987  24.2225006  95.4265017
  17.9379987  22.9645006  94.9355017  17.3059987  22.1565006  95.4845017
  18.7599987  22.3295006  93.7725017  19.4039987  21.5965006  94.2465017
  18.0629987  21.7615006  93.1615017  19.5319987  23.2965006  92.9465017
  18.7779987  23.8825006  92.4325017  20.0009987  23.9685006  93.6585017
  20.5609987  22.8145006  91.9375017  21.4459987  22.4855006  92.4765017
  20.1549987  21.9295006  91.4525017  20.9369987  23.7915006  90.8955017
  20.0319987  24.2585006  90.5115017  21.5339987  24.5925006  91.3245017
  21.6929987  23.1885006  89.7315017  22.7019987  22.8765006  89.9925017
  21.1969987  22.3055006  89.3345017  21.7579987  24.2425006  88.6385017
  20.7759987  24.6945006  88.5035017  22.4309987  25.0485006  88.9175017
  22.2279987  23.6505006  87.3105017  21.6659987  22.7625006  87.0445017
  22.0839987  24.3595006  86.4965017  23.6779987  23.3505006  87.4285017
  23.9679987  22.3455006  87.6945017  24.6709987  24.2415006  87.2145017
  25.6989987  23.9265006  87.3255017  24.5089987  25.6985006  86.8135017
  23.5509987  26.0905006  87.1525017  25.2679987  26.3595006  87.2175017
  24.5389987  25.7645006  85.2735017  25.4909987  25.3055006  85.0105017
  23.7689987  25.0555006  84.9755017  24.3589987  27.0795006  84.4715017
  23.3139987  27.3865006  84.4295017  24.9019987  27.9095006  84.9155017
  24.8739987  26.8365006  83.0405017  25.1539987  27.8085006  82.6395017
  25.7959987  26.2635006  83.1215017  23.9549987  26.1515006  82.1075017
  23.5579987  25.2785006  82.6225017  23.1049987  26.8055006  81.9335017
  24.5279987  25.6935006  80.7975017  25.6159987  25.6485006  80.8015017
  24.1859987  24.7005006  80.5115017  24.1259987  26.5975006  79.8175017
  24.8409987  27.4125006  79.8985017  24.3769987  26.0735006  78.8985017
  22.7329987  27.1625006  79.6875017  22.6469987  27.7755006  78.7955017
  22.4669987  27.7845006  80.5355017  21.9949987  26.3685006  79.6155017
  23.0829987  84.0575006  80.3425017  22.6629987  83.2695006  79.7255017
  23.6269987  83.5875006  81.1565017  23.8019987  84.6025006  79.7375017
  21.8709987  85.0935006  80.9315017  21.1899987  84.4165006  81.4445017
  21.3609987  85.4095006  80.0255017  22.1879987  86.4685006  81.9515017
  22.2069987  87.3045006  81.2525017  23.2189987  86.3115006  82.2615017
  21.3609987  86.8605006  83.1885017  20.6159987  86.0715006  83.2665017
  20.8209987  87.7565006  82.8845017  21.9859987  87.0885006  84.5825017
  22.1599987  86.1235006  85.0525017  21.2519987  87.6015006  85.2015017
  23.2639987  87.8665006  84.5845017  23.1579987  88.7815006  84.0045017
  24.0619987  87.2975006  84.1115017  23.6659987  88.2115006  85.9815017
  24.2679987  87.4225006  86.4275017  22.7969987  88.3315006  86.6265017
  24.4369987  89.4615006  85.9695017  23.9689987  90.2945006  85.4465017
  25.4489987  89.3845006  85.5755017  24.4999987  89.7715006  87.4355017
  25.3989987  89.4025006  87.9245017  23.6599987  89.3755006  88.0055017
  24.4809987  91.1295006  87.4945017  23.4759987  91.5075006  87.3215017
  25.1079987  91.5615006  86.7155017  25.0279987  91.6315006  88.9725017
  24.4139987  91.0825006  89.6835017  24.7149987  92.6715006  89.0435017
  26.5619987  91.5075006  89.4275017  27.0489987  91.8325006  88.5115017
  26.6569987  90.4235006  89.4545017  27.3179987  92.1205006  90.7015017
  27.4669987  93.1515006  90.3855017  28.2909987  91.6415006  90.6455017
  26.8549987  92.1365006  92.1495017  26.5849987  93.1485006  92.4325017
  27.6919987  91.8465006  92.7795017  25.6859987  91.2075006  92.4395017
  25.9209987  90.1955006  92.1335017  24.8019987  91.5355006  91.9065017
  26.2779987  90.6155006  93.5635017  26.9309987  91.1955006  94.4145017
  26.1009987  89.3635006  93.3695017  26.6129987  88.5625006  94.3955017
  27.6119987  88.9125006  94.6085017  26.6619987  87.5355006  94.0645017
  25.7209987  88.6975006  95.6465017  25.5219987  89.7315006  95.8745017
  26.4339987  88.0265006  96.8355017  27.2719987  88.6395006  97.1385017
  26.8089987  87.0715006  96.4895017  25.5299987  87.8405006  97.9275017
  25.3139987  88.9045006  99.1045017  24.7689987  87.9575006 100.2585017
  25.3729987  86.7145006 100.6055017  25.8749987  86.7475006 101.5635017
  26.1279987  86.4495006  99.8705017  24.3439987  85.5675006 100.5595017
  23.5769987  85.8355006 101.2755017  24.7949987  84.6355006 100.8665017
  23.6069987  85.2665006  99.2545017  24.5359987  85.1275006  98.0915017
  25.1869987  85.9905006  98.0645017  23.9399987  85.0935006  97.1915017
  25.0909987  84.2075006  98.1945017  22.8189987  84.0265006  99.4525017
  22.2479987  84.1255006 100.3625017  23.4899987  83.1875006  99.4985017
  22.1539987  83.9275006  98.6065017  22.5959987  86.3255006  98.9295017
  21.8859987  86.3995006  99.7395017  22.0799987  86.0565006  98.0195017
  23.0969987  87.2735006  98.7935017  26.5819987  89.5225006  99.5015017
  24.2169987  89.7965006  98.7085017  24.4559987  88.0425006  95.3795017
  23.4529987  88.8525006  95.0265017  23.5439987  90.0375006  94.7735017
  22.1549987  88.0555006  94.8975017  22.3979987  87.0065006  95.0355017
  21.4859987  88.3155006  95.7135017  21.4869987  88.3205006  93.5205017
  20.4379987  88.4915006  93.7355017  21.8809987  89.2705006  93.1745017
  21.6059987  87.2745006  92.4125017  20.8279987  86.5525006  92.6465017
  21.2679987  87.8075006  91.5275017  22.8689987  86.5715006  92.0875017
  23.4559987  86.3545006  92.9785017  22.7249987  85.6205006  91.5795017
  23.6689987  87.4725006  91.2055017  23.2859987  87.5155006  90.1875017
  23.6729987  88.4975006  91.5715017  25.0909987  86.9615006  91.1845017
  25.4569987  86.9605006  92.2105017  25.0859987  85.9245006  90.8595017
  26.0589987  87.7435006  90.3055017  25.6089987  88.0065006  89.3555017
  26.3389987  88.6815006  90.7825017  27.2979987  86.9165006  90.1085017
  27.9659987  86.8585006  90.9545017  27.6499987  86.2395006  89.0045017
  28.5769987  85.6855006  89.0215017  26.9009987  86.1415006  87.7055017
  26.7439987  85.0815006  87.5125017  25.9149987  86.5785006  87.8165017
  27.5899987  86.7495006  86.4935017  27.5519987  87.8345006  86.5805017
  28.6429987  86.4785006  86.5345017  26.9959987  86.3125006  85.0975017
  27.3789987  85.3305006  84.8185017  25.9159987  86.2115006  85.1565017
  27.3569987  87.3305006  83.9955017  26.8469987  88.2345006  84.3195017
  28.4199987  87.5095006  84.1475017  27.0949987  87.0875006  82.5075017
  27.3169987  86.0625006  82.2155017  26.0599987  87.2585006  82.2235017
  28.0169987  88.0145006  81.7115017  28.1259987  88.9695006  82.2235017
  29.0169987  87.5875006  81.6525017  27.5269987  88.2745006  80.3145017
  27.9919987  87.5515006  79.6495017  26.4659987  88.0365006  80.3145017
  27.7149987  89.6865006  79.7445017  27.2459987  89.7745006  78.7695017
  28.7629987  89.9395006  79.6245017  27.2679987  90.4325006  80.3955017
  84.7059987  21.6695006  80.0035017  84.2229987  22.3925006  79.3535017
  84.1299987  20.7495006  79.9615017  85.6899987  21.4605006  79.5925017
  84.7919987  22.1045006  81.1955017  83.8379987  22.2945006  81.6835017
  85.3779987  23.0125006  81.3075017  85.4869987  20.9435006  81.8915017
  86.3569987  20.5135006  81.3955017  84.8539987  20.1035006  82.1715017
  85.9129987  21.6215006  83.1005017  85.1049987  22.2415006  83.4835017
  86.7409987  22.2985006  82.8945017  86.3259987  20.6355006  84.1855017
  87.2579987  20.1145006  83.9815017  85.5799987  19.8655006  84.3735017
  86.4969987  21.4745006  85.4255017  85.4909987  21.8145006  85.6645017
  87.0429987  22.3525006  85.0875017  87.1659987  20.9195006  86.7035017
  87.3179987  21.6905006  87.4565017  88.1479987  20.4925006  86.5025017
  86.2679987  19.8555006  87.2585017  86.2129987  19.0135006  86.5695017
  85.2519987  20.2335006  87.3585017  86.7519987  19.3675006  88.6045017
  86.8879987  20.1985006  89.2925017  87.7239987  18.8835006  88.5165017
  85.7439987  18.3735006  89.2005017  86.2489987  17.8065006  89.9785017
  85.4709987  17.6555006  88.4275017  84.4659987  19.0185006  89.7645017
  83.9949987  19.6255006  88.9945017  84.7149987  19.7005006  90.5765017
  83.4399987  17.9885006  90.2635017  83.8639987  16.9875006  90.2445017
  82.5789987  17.9665006  89.5975017  82.9629987  18.3255006  91.6575017
  82.4789987  19.3005006  91.6615017  83.7889987  18.3935006  92.3595017
  81.9699987  17.3125006  92.1635017  82.2759987  16.2885006  91.9765017
  80.9949987  17.4395006  91.7005017  81.8249987  17.5255006  93.6625017
  81.5529987  18.5515006  93.8745017  82.7569987  17.3015006  94.1675017
  82.9269987  16.9525006  94.5075017  83.5529987  15.9445006  94.2415017
  83.0169987  17.6525006  95.6285017  84.1239987  17.2685006  96.4715017
  84.5369987  16.4065006  95.9695017  83.7799987  16.9745006  97.4525017
  85.1799987  18.3865006  96.5695017  86.0579987  18.0275006  97.0805017
  84.5679987  19.5755006  97.3475017  85.3759987  20.1855006  97.7275017
  84.0289987  19.1515006  98.1855017  83.6859987  20.3615006  96.5325017
  83.0899987  21.7055006  97.1245017  83.3309987  21.4195006  98.6635017
  84.3059987  22.1305006  99.3805017  84.3229987  23.1955006  99.1875017
  85.3059987  21.7625006  99.1665017  84.0809987  21.8435006 100.8765017
  83.0739987  22.1645006 101.1125017  84.7779987  22.4295006 101.4585017
  84.1949987  20.4105006 101.4015017  83.0349987  19.5705006 100.9405017
  82.1169987  20.0905006 101.1765017  83.0689987  18.6325006 101.4745017
  83.1339987  19.3875006  99.8805017  85.4649987  19.7965006 100.9275017
  86.2749987  20.4755006 101.1425017  85.3869987  19.5985006  99.8735017
  85.6009987  18.8735006 101.4725017  84.2109987  20.4755006 102.8925017
  85.0409987  21.0875006 103.2125017  84.3219987  19.4775006 103.2895017
  83.2829987  20.9035006 103.2445017  83.9149987  22.8695006  96.7265017
  81.6319987  21.7585006  96.8975017  85.5869987  18.7245006  95.2475017
  86.5409987  19.6185006  95.1705017  87.2329987  20.0155006  96.0935017
  86.7999987  19.7755006  93.6765017  87.1669987  18.8145006  93.3325017
  85.8419987  19.9215006  93.1835017  87.7789987  20.9215006  93.3405017
  88.7399987  20.7405006  93.8085017  87.9689987  20.9665006  92.2725017
  87.2309987  22.2615006  93.8265017  86.6989987  22.1375006  94.7665017
  88.0579987  22.9355006  94.0335017  86.3189987  22.9135006  92.7905017
  86.2389987  23.9735006  93.0225017  86.7719987  22.8515006  91.8035017
  84.9009987  22.3245006  92.7235017  84.9489987  21.3035006  92.3505017
  84.5019987  22.2595006  93.7345017  83.9199987  23.1395006  91.8585017
  83.3709987  23.8535006  92.4705017  84.4379987  23.7205006  91.1005017
  82.9249987  22.1965006  91.1605017  83.4709987  21.5005006  90.5345017
  82.4219987  21.5975006  91.9185017  81.8809987  22.9435006  90.3635017
  81.3639987  23.7025006  90.9315017  81.5299987  22.7985006  89.0705017
  80.7489987  23.4635006  88.7325017  82.0479987  21.8605006  88.0015017
  82.2119987  22.4585006  87.1065017  83.0189987  21.4715006  88.2895017
  81.1099987  20.6815006  87.6315017  80.8059987  20.1475006  88.5315017
  80.1959987  21.0705006  87.1875017  81.7769987  19.6895006  86.6405017
  82.6349987  19.2435006  87.1445017  81.0799987  18.8775006  86.4515017
  82.2369987  20.2985006  85.2935017  83.0149987  21.0375006  85.4735017
  82.6869987  19.5295006  84.6685017  81.0619987  20.9465006  84.5355017
  80.2799987  20.1925006  84.4645017  80.6609987  21.7315006  85.1715017
  81.3209987  21.4945006  83.1225017  80.5549987  22.2285006  82.8785017
  82.2669987  22.0325006  83.1195017  81.3579987  20.4365006  82.0065017
  81.6379987  20.8825006  81.0555017  82.1369987  19.7125006  82.2355017
  80.0419987  19.7015006  81.8505017  80.1299987  18.9055006  81.1175017
  79.2459987  20.3605006  81.5205017  79.7309987  19.2535006  82.7905017
  73.9729987  21.8555006  81.0335017  73.3229987  22.4115006  81.7025017
  74.4479987  22.5685006  80.3655017  74.7529987  21.3975006  81.6355017
  73.2029987  20.8145006  80.2615017  72.4129987  21.3105006  79.6995017
  72.7069987  20.1585006  80.9715017  74.0819987  19.9765006  79.2805017
  74.5259987  20.6215006  78.5225017  73.4559987  19.2675006  78.7435017
  75.1269987  19.2455006  79.9535017  75.8989987  19.8665006  80.4035017
  75.6499987  18.5045006  79.3515017  74.3779987  18.5595006  81.0365017
  73.5669987  17.9285006  80.6825017  73.9379987  19.2485006  81.7555017
  75.3479987  17.7395006  81.7005017  76.1709987  18.4035006  81.9595017
  75.7319987  17.0605006  80.9425017  74.9479987  16.9545006  82.9085017
  75.7499987  16.2945006  83.2325017  74.0929987  16.3135006  82.6965017
  74.5949987  17.9005006  84.0335017  73.5119987  17.9525006  84.1355017
  74.9249987  18.9055006  83.7785017  75.2039987  17.4975006  85.3645017
  76.2739987  17.3195006  85.2795017  74.7709987  16.5715006  85.7415017
  74.9559987  18.6185006  86.3745017  73.8869987  18.8095006  86.4375017
  75.4099987  19.5395006  86.0095017  75.5099987  18.3005006  87.7535017
  75.4429987  17.2325006  87.9515017  74.9289987  18.7895006  88.5335017
  76.9759987  18.7225006  87.8765017  77.2429987  19.3525006  87.0315017
  77.6059987  17.8375006  87.8075017  77.2869987  19.4415006  89.1865017
  76.6039987  20.2785006  89.3205017  78.2879987  19.8625006  89.1815017
  77.1419987  18.5225006  90.3855017  76.2449987  17.9135006  90.3525017
  77.1119987  19.0765006  91.3205017  78.3559987  17.6195006  90.3995017
  79.2649987  18.2075006  90.3985017  78.3569987  16.9755006  89.5285017
  78.7309987  17.0135006  91.6985017  79.3519987  15.9945006  91.6425017
  78.6309987  17.8645006  92.7215017  78.8609987  17.4295006  94.0775017
  79.6009987  18.1035006  94.4825017  79.2689987  16.4295006  94.0555017
  77.5989987  17.4805006  94.9035017  77.0819987  18.4115006  94.7395017
  77.8699987  17.2905006  96.4045017  78.7519987  17.8405006  96.7015017
  78.0379987  16.2375006  96.5945017  76.7199987  17.7535006  97.1315017
  75.8959987  16.6225006  97.7955017  74.5829987  17.3825006  98.2985017
  73.9449987  17.1285006  99.5225017  73.7889987  16.0645006  99.6425017
  72.9589987  17.5825006  99.4855017  74.6139987  17.7265006 100.7555017
  75.6299987  17.3545006 100.7935017  74.1099987  17.4555006 101.6725017
  74.7259987  19.2225006 100.7735017  75.0779987  19.7095006 102.1525017
  74.3869987  19.2715006 102.8605017  74.9759987  20.7845006 102.1625017
  76.1009987  19.4405006 102.3685017  75.8209987  19.6335006  99.8265017
  75.6579987  19.1415006  98.8795017  76.7719987  19.3645006 100.2515017
  75.7559987  20.7045006  99.7035017  73.4459987  19.8685006 100.3265017
  73.2049987  19.5285006  99.3305017  73.5729987  20.9405006 100.3225017
  72.6499987  19.6015006 101.0075017  75.5809987  15.7515006  96.6575017
  76.6549987  16.1225006  98.9705017  76.7859987  16.4315006  94.4085017
  75.7539987  16.7485006  93.6825017  75.3859987  17.8595006  93.3815017
  75.1159987  15.5205006  93.0995017  75.7809987  14.7125006  93.3865017
  74.1969987  15.3625006  93.6585017  74.8509987  15.5345006  91.6055017
  73.7819987  15.3775006  91.5085017  75.0339987  16.5555006  91.2875017
  75.5569987  14.6005006  90.7165017  76.6259987  14.7505006  90.8445017
  75.3469987  13.5945006  91.0715017  75.2079987  14.6765006  89.3065017
  74.1259987  14.5575006  89.3055017  75.3999987  15.7095006  89.0255017
  75.7479987  13.8295006  88.3205017  75.6639987  12.8105006  88.6935017
  75.0809987  13.8945006  87.4625017  77.1949987  14.0825006  87.8415017
  77.7509987  14.0815006  88.7775017  77.4539987  13.1595006  87.3295017
  77.6169987  15.1705006  87.0505017  77.3329987  14.9865006  86.0205017
  77.0679987  16.0565006  87.3665017  79.0949987  15.4525006  87.1645017
  79.5939987  15.9565006  87.9785017  79.8209987  15.0395006  86.2085017
  80.8859987  15.1185006  86.0445017  79.0779987  14.3055006  85.1065017
  79.7269987  13.4855006  84.8045017  78.1889987  13.8495006  85.5285017
  78.7169987  15.0585006  83.9215017  77.7469987  15.5385006  84.0495017
  79.4329987  15.8615006  83.7565017  78.6799987  14.1365006  82.6625017
  78.3099987  14.8535006  81.9295017  79.7459987  14.0365006  82.4785017
  78.0239987  12.8425006  82.4455017  78.6299987  12.1085006  82.9725017
  77.0719987  12.8855006  82.9715017  77.7849987  12.3865006  81.0135017
  78.6979987  12.6105006  80.4645017  77.7109987  11.3025006  81.0365017
  76.6209987  12.9695006  80.2395017  75.9299987  12.2445006  79.8135017
  76.0089987  13.6845006  80.7865017  77.2959987  13.6785006  79.1355017
  77.8929987  14.5165006  79.4855017  77.9899987  13.0105006  78.6315017
  76.3999987  14.1115006  78.2505017  76.8919987  14.5575006  77.3905017
  75.7419987  14.8625006  78.6745017  75.7799987  13.2945006  77.8905017
  32.8079987  86.5325006  81.4685017  32.6169987  85.5255006  81.1095017
  32.9659987  86.4775006  82.5415017  33.7359987  86.8735006  81.0175017
  31.6639987  87.4625006  81.1305017  30.7719987  87.0205006  81.5715017
  31.5359987  87.3975006  80.0535017  31.7649987  88.9275006  81.5605017
  32.7649987  89.2955006  81.3315017  31.6679987  88.9725006  82.6435017
  30.7229987  89.8705006  80.9385017  29.8369987  89.7955006  81.5645017
  30.4479987  89.4435006  79.9745017  31.0679987  91.3415006  80.7585017
  30.1859987  91.8185006  80.3395017  31.8309987  91.3745006  79.9825017
  31.5509987  92.1645006  81.9875017  31.8409987  93.1765006  81.7125017
  32.4219987  91.7175006  82.4625017  30.3989987  92.2245006  82.9975017
  30.2109987  91.1965006  83.3015017  29.5209987  92.5405006  82.4355017
  30.5449987  93.1125006  84.2585017  29.6389987  92.9915006  84.8505017
  30.5569987  94.1505006  83.9305017  31.7689987  92.8485006  85.1465017
  31.7239987  93.5395006  85.9855017  32.6569987  93.1205006  84.5765017
  31.9259987  91.4095006  85.6775017  32.9119987  91.3085006  86.1255017
  31.9009987  90.7165006  84.8365017  30.8419987  91.0105006  86.6945017
  29.8899987  90.8875006  86.1815017  30.6939987  91.8085006  87.4205017
  31.1609987  89.7175006  87.4285017  32.0169987  89.8895006  88.0765017
  31.4799987  88.9805006  86.6935017  29.9969987  89.1325006  88.2355017
  29.2519987  88.7015006  87.5695017  29.4819987  89.8915006  88.8175017
  30.4739987  88.0515006  89.1555017  31.1639987  87.3945006  88.6375017
  29.6259987  87.4425006  89.4575017  31.1369987  88.5905006  90.3875017
  30.4769987  89.2765006  90.9035017  32.0489987  89.1145006  90.1265017
  31.2069987  87.5715006  91.4655017  31.1259987  86.3635006  91.3285017
  31.4139987  88.2715006  92.5875017  31.5099987  87.5035006  93.7695017
  31.8869987  86.5545006  93.4195017  30.4599987  87.4025006  94.0045017
  32.3669987  88.0085006  95.0905017  32.6119987  87.2015006  95.7615017
  31.2699987  88.8525006  95.6845017  30.4549987  88.2195006  96.0085017
  30.9059987  89.5195006  94.9125017  31.7779987  89.5855006  96.7615017
  31.6849987  89.2645006  98.2895017  33.0719987  89.9035006  98.7595017
  33.3459987  91.2185006  98.2835017  32.4629987  91.8365006  98.1925017
  33.7989987  91.1815006  97.2975017  34.3969987  91.8865006  99.1855017
  34.6959987  92.8115006  98.7095017  35.2719987  91.2665006  99.3205017
  33.9379987  92.2705006 100.5825017  33.5219987  91.0615006 101.4005017
  32.8159987  90.4805006 100.8235017  33.0479987  91.4175006 102.3035017
  34.4019987  90.4905006 101.6545017  35.0619987  92.9085006 101.3125017
  35.4829987  93.6805006 100.6865017  35.7929987  92.1585006 101.5565017
  34.6559987  93.3425006 102.2145017  32.8019987  93.2175006 100.4745017
  33.1149987  94.0865006  99.9155017  32.4939987  93.5165006 101.4655017
  31.9769987  92.7355006  99.9695017  30.6099987  90.1055006  98.8685017
  31.7009987  87.8015006  98.5115017  33.5729987  88.8455006  94.8905017
  34.8509987  88.3725006  94.8375017  35.2419987  87.2565006  95.0965017
  35.7089987  89.3445006  94.0165017  35.8809987  90.1765006  94.6905017
  36.6729987  88.8585006  93.8915017  35.1329987  89.8165006  92.6385017
  34.0529987  89.7445006  92.7035017  35.3569987  90.8735006  92.5325017
  35.6099987  89.0595006  91.4035017  36.6859987  89.0535006  91.5545017
  35.2659987  88.0535006  91.6315017  35.2949987  89.3585006  89.9705017
  34.3529987  89.9025006  89.9465017  36.0469987  90.0355006  89.5715017
  35.1789987  88.1805006  89.0645017  36.1009987  87.6165006  89.1915017
  34.3879987  87.5685006  89.4935017  34.9159987  88.3545006  87.6615017
  34.3849987  87.4925006  87.2605017  34.2839987  89.2185006  87.4735017
  36.0899987  88.5165006  86.9845017  36.6439987  89.3725006  87.3515017
  36.7359987  87.6505006  87.1245017  35.7909987  88.6525006  85.5515017
  35.3719987  87.7255006  85.1905017  35.9209987  89.6495006  84.6665017
  35.6359987  89.5765006  83.6265017  36.4799987  90.9805006  85.0525017
  36.4489987  91.0405006  86.1395017  37.5259987  91.0425006  84.7745017
  35.7419987  92.1705006  84.4935017  34.8839987  92.3305006  85.1455017
  36.4019987  93.0225006  84.6445017  35.2749987  92.1465006  83.0295017
  35.0159987  91.1105006  82.8105017  34.3449987  92.7065006  82.9915017
  36.2169987  92.6605006  81.9625017  36.2389987  93.7245006  82.1885017
  37.1739987  92.2595006  82.2915017  36.0779987  92.4555006  80.4905017
  35.4479987  93.2255006  80.0495017  37.0349987  92.5285006  79.9815017
  35.4349987  91.1015006  80.2025017  34.4899987  91.2555006  80.7195017
  35.2269987  91.2435006  79.1435017  35.8479987  89.7495006  80.4055017
  35.9399987  89.4035006  81.4325017  35.2389987  89.0065006  79.8965017
  37.1349987  89.7795006  79.7985017  37.5759987  88.7875006  79.7815017
  37.8199987  90.4305006  80.3315017  37.0749987  90.1325006  78.7725017
  90.0829987  72.2295006  81.7655017  89.4619987  72.1335006  80.8805017
  91.1109987  72.3515006  81.4365017  89.7909987  73.1425006  82.2775017
  89.9319987  70.9845006  82.7045017  90.1789987  70.1475006  82.0535017
  88.8589987  70.9355006  82.8715017  90.6989987  70.8235006  84.0655017
  90.2349987  71.4845006  84.7975017  91.7099987  71.1985006  83.9185017
  90.7859987  69.4085006  84.6455017  91.8119987  69.2065006  84.9435017
  90.5449987  68.6745006  83.8775017  89.8789987  69.1955006  85.8485017
  89.7629987  68.1355006  86.0575017  88.8819987  69.5745006  85.6295017
  90.4199987  69.8905006  87.0985017  90.2839987  70.9665006  87.0045017
  91.4929987  69.7245006  87.1725017  89.7849987  69.4355006  88.3075017
  88.7579987  69.7925006  88.2505017  90.2569987  69.9945006  89.1135017
  89.7829987  68.0855006  88.6265017  88.9799987  67.6245006  88.0535017
  89.4949987  68.0045006  89.6735017  90.9759987  67.3655006  88.4165017
  91.3699987  67.6165006  87.4345017  90.7449987  66.3015006  88.3875017
  92.0149987  67.6115006  89.4385017  91.8029987  68.6165006  89.7955017
  92.9439987  67.6785006  88.8725017  92.2129987  66.6785006  90.6085017
  91.2529987  66.2735006  90.9215017  92.6059987  67.2215006  91.4665017
  93.1349987  65.5235006  90.2835017  94.0859987  65.8825006  89.8985017
  92.7039987  64.9025006  89.4995017  93.3479987  64.7115006  91.4455017
  93.5259987  63.6835006  91.1365017  92.4589987  64.6915006  92.0705017
  94.5579987  65.1705006  92.3015017  94.1999987  66.0845006  92.7635017
  95.2789987  65.4635006  91.5425017  95.2909987  64.3055006  93.3745017
  95.6289987  63.3725006  92.9425017  94.6259987  64.0855006  94.2005017
  96.2859987  64.7615006  94.4445017  97.2329987  65.3305006  94.0165017
  96.0409987  64.4505006  95.7015017  96.2959987  64.7425006  97.0345017
  97.2849987  65.1665006  96.9855017  96.3239987  63.8605006  97.6585017
  95.2699987  65.8055006  97.6005017  95.9759987  66.3035006  98.2465017
  93.9419987  65.6075006  98.3335017  94.1629987  65.7205006  99.3865017
  93.6569987  64.5815006  98.1515017  92.8689987  66.4685006  97.9295017
  92.5029987  67.6085006  98.9275017  93.8439987  68.3845006  98.8675017
  94.5159987  68.8155006 100.0185017  95.5669987  68.5695006  99.9285017
  94.1349987  68.3925006 100.9385017  94.3389987  70.3425006 100.0705017
  94.9879987  70.7235006 100.8435017  94.6539987  70.7355006  99.1135017
  93.0119987  70.8325006 100.3885017  92.2989987  70.3865006  99.8345017
  92.8579987  70.5705006 101.4365017  92.9369987  71.8285006 100.2715017
  91.5029987  68.5435006  98.4095017  92.3969987  67.0805006 100.3135017
  94.9729987  66.6575006  96.4065017  96.0019987  67.4215006  96.4295017
  96.6529987  67.4245006  97.4565017  96.1979987  68.3245006  95.1505017
  95.2999987  68.1085006  94.5815017  96.0759987  69.3375006  95.5255017
  97.4619987  68.2015006  94.2945017  98.2559987  68.2185006  95.0335017
  97.4159987  67.1815006  93.9265017  97.8219987  69.1495006  93.1515017
  97.5129987  70.1915006  93.1895017  98.8469987  69.1495006  92.7875017
  96.9829987  68.4085006  92.1925017  97.0009987  67.3625006  92.4945017
  95.9529987  68.7395006  92.3045017  97.3509987  68.4855006  90.7875017
  97.4529987  69.5405006  90.5395017  98.3479987  68.0575006  90.7075017
  96.4739987  67.8305006  89.7925017  96.7639987  66.7815006  89.7685017
  95.4589987  67.8595006  90.1785017  96.4709987  68.3805006  88.3835017
  95.6069987  67.9545006  87.8875017  96.2759987  69.4485006  88.4755017
  97.6999987  68.1905006  87.5735017  98.5599987  68.6855006  87.9985017
  97.8859987  67.5165006  86.4545017  98.8329987  67.4665006  85.9365017
  96.8179987  66.7665006  85.8115017  97.2839987  65.8725006  85.4005017
  96.1229987  66.4245006  86.5705017  96.0619987  67.4455006  84.7155017
  95.2949987  68.1055006  85.1175017  96.7269987  68.0755006  84.1285017
  95.4019987  66.3915006  83.7835017  96.1219987  66.0645006  83.0335017
  95.1329987  65.5055006  84.3525017  94.1659987  66.9405006  83.0865017
  93.3269987  66.7645006  83.7565017  94.2849987  68.0205006  83.0245017
  93.8449987  66.3825006  81.6835017  94.7469987  66.3735006  81.0745017
  93.5209987  65.3475006  81.7485017  92.7859987  67.2205006  80.9475017
  92.4379987  66.7025006  80.0555017  91.9079987  67.3625006  81.5755017
  93.3159987  68.5945006  80.5365017  92.5869987  69.3705006  80.7565017
  94.1879987  68.8265006  81.1445017  93.7139987  68.6715006  79.0535017
  94.1649987  69.6325006  78.8245017  92.8589987  68.5495006  78.3975017
  94.4349987  67.8985006  78.8025017  18.4219987  82.0555006  80.9495017
  17.8109987  82.0335006  80.0525017  18.0329987  81.3065006  81.6335017
  19.4289987  81.7565006  80.6715017  18.4189987  83.3445006  81.5445017
  17.4059987  83.6415006  81.8085017  18.7809987  84.0875006  80.8385017
  19.2599987  83.3475006  82.7625017  20.3399987  83.3555006  82.6125017
  19.0609987  82.5505006  83.4755017  18.8349987  84.6505006  83.3745017
  17.7569987  84.6815006  83.5195017  19.0779987  85.4995006  82.7375017
  19.4719987  84.8135006  84.6435017  19.1489987  85.6675006  85.2335017
  20.5589987  84.8565006  84.6135017  19.0579987  83.5885006  85.3195017
  19.9509987  83.0695006  85.6625017  18.5889987  82.9355006  84.5865017
  18.0559987  83.7995006  86.5615017  18.5879987  83.3155006  87.3785017
  17.2249987  83.1435006  86.3085017  17.5279987  85.0975006  87.0255017
  17.0849987  85.6705006  86.2125017  18.3069987  85.7265006  87.4515017
  16.4579987  84.8235006  88.0945017  15.8079987  84.0505006  87.6885017
  15.8509987  85.7255006  88.1625017  16.9209987  84.4115006  89.5145017
  17.4139987  83.4435006  89.4535017  16.0439987  84.2685006  90.1455017
  17.8359987  85.4145006  90.1605017  17.3609987  86.3925006  90.1395017
  18.7489987  85.5095006  89.5755017  18.1929987  85.0895006  91.5935017
  18.7849987  84.1795006  91.6485017  17.2919987  84.9015006  92.1745017
  18.9269987  86.2105006  92.2115017  18.2919987  87.0945006  92.2385017
  19.7999987  86.4815006  91.6255017  19.3729987  85.8935006  93.6715017
  19.6249987  86.8665006  94.0785017  20.3089987  85.3615006  93.5255017
  18.5389987  85.1335006  94.6795017  18.2469987  84.1705006  94.2805017
  17.6449987  85.6925006  94.9275017  17.5219987  85.9995006  95.2585017
  17.8389987  86.9945006  95.8835017  16.3789987  85.7145006  94.5985017
  15.2669987  86.6235006  94.5665017  15.0099987  86.5755006  93.5205017
  15.2429987  87.6525006  94.8925017  14.4779987  85.9185006  95.2435017
  13.5869987  86.5105006  95.3675017  15.1509987  85.5845006  96.7055017
  14.3069987  85.4005006  97.3565017  15.6019987  86.5295006  96.9885017
  16.0529987  84.5815006  96.7935017  15.6789987  83.0955006  97.0415017
  15.5489987  83.1345006  98.6205017  16.6059987  83.7455006  99.3335017
  16.7489987  84.8165006  99.2405017  17.4769987  83.2565006  98.9265017
  16.4969987  83.3395006 100.8035017  16.7739987  82.2985006 100.8785017
  15.0819987  83.4935006 101.3405017  15.1559987  84.3085006 101.9525017
  14.3669987  83.6085006 100.5925017  14.8179987  82.7125006 101.9125017
  17.5929987  84.1145006 101.5515017  14.3019987  82.7575006  96.5905017
  16.9129987  82.4435006  96.6045017  14.0079987  84.8535006  94.3635017
  13.1679987  84.8825006  93.3315017  12.6719987  85.7915006  92.7145017
  17.2689987  84.7085006 102.6075017  18.7649987  84.0305006 101.0905017
  12.9449987  83.5465006  92.7775017  13.7889987  82.8945006  92.9775017
  12.0769987  83.0485006  93.2035017  12.7549987  83.7995006  91.2655017
  11.7849987  84.2535006  91.0955017  13.4879987  84.5175006  90.9125017
  12.8529987  82.5275006  90.4575017  13.7889987  82.0385006  90.7165017
  12.0609987  81.8695006  90.8055017  12.7389987  82.6665006  88.9515017
  11.7239987  82.9535006  88.6825017  13.3879987  83.4515006  88.5715017
  13.0729987  81.3685006  88.2405017  14.0579987  80.9765006  88.4845017
  12.3659987  80.5725006  88.4665017  13.0049987  81.6715006  86.7465017
  12.0569987  82.1505006  86.5055017  13.7839987  82.3685006  86.4515017
  13.1479987  80.4275006  85.9385017  12.8879987  79.4455006  86.3155017
  12.9089987  80.4215006  84.8755017  14.6119987  80.6965006  86.0985017
  15.3669987  80.4215006  86.8205017  15.0129987  81.4595006  85.0385017
  16.0529987  81.6875006  85.2205017  14.4589987  82.0555006  83.7335017
  14.7809987  81.5405006  82.8305017  13.3859987  82.1855006  83.6425017
  15.1039987  83.3635006  83.7675017  14.9969987  83.8085006  84.7565017
  16.1729987  83.2445006  83.6025017  14.5459987  84.2995006  82.7345017
  14.9689987  85.2835006  82.9355017  14.9389987  83.9915006  81.7695017
  13.0169987  84.4135006  82.6515017  12.6359987  83.6995006  81.9245017
  12.5679987  84.1445006  83.6065017  12.5779987  85.8385006  82.2675017
  11.4919987  85.8855006  82.2195017  12.8719987  86.5455006  83.0375017
  13.1269987  86.2815006  80.9145017  14.2009987  86.4195006  81.0255017
  12.9999987  85.4495006  80.2245017  12.5339987  87.5505006  80.2665017
  12.8709987  88.4255006  80.8165017  12.9699987  87.6385006  79.2735017
  11.0229987  87.5855006  80.1395017  10.7019987  88.4695006  79.5965017
  10.5349987  87.6045006  81.1085017  10.6559987  86.7155006  79.6025017
  91.5259987  25.0565006  77.4745017  91.3089987  24.8965006  76.4235017
  92.2129987  24.2785006  77.7935017  92.0429987  26.0085006  77.5635017
  90.4169987  25.0455006  78.2025017  89.8939987  24.0945006  78.1105017
  89.7219987  25.8095006  77.8645017  90.7519987  25.2585006  79.5465017
  89.7419987  25.5155006  79.8665017  91.2639987  26.2035006  79.3745017
  91.6459987  24.3335006  80.9635017  92.3979987  25.0975006  81.1475017
  92.1259987  23.5825006  80.3375017  91.2029987  23.6235006  82.4675017
  90.1239987  23.5015006  82.5165017  91.4709987  24.3025006  83.2745017
  91.8179987  22.3655006  82.6915017  92.8409987  22.2945006  82.3265017
  91.2829987  21.5205006  82.2635017  91.8159987  22.2485006  84.1465017
  92.2279987  23.1585006  84.5785017  92.4859987  21.4415006  84.4405017
  90.4519987  21.9975006  84.7265017  90.4589987  21.2285006  85.4975017
  89.7299987  21.6725006  83.9795017  89.9809987  23.3295006  85.3415017
  89.8209987  24.0575006  84.5495017  90.7699987  23.7365006  85.9735017
  88.7469987  23.1915006  86.1335017  89.0969987  22.6985006  87.0375017
  88.1799987  22.4445006  85.5785017  87.8299987  24.3475006  86.4935017
  86.8099987  24.0195006  86.6805017  87.7659987  25.1015006  85.7105017
  88.3609987  24.9785006  87.7465017  88.3419987  24.2225006  88.5275017
  87.6489987  25.7445006  88.0475017  89.7379987  25.6055006  87.6605017
  89.7889987  26.3045006  86.8265017  90.5149987  24.8665006  87.4865017
  90.0579987  26.3705006  88.9325017  89.3809987  27.2105006  89.0475017
  91.0609987  26.7835006  88.8565017  89.9839987  25.4605006  90.2255017
  90.6279987  24.5965006  90.1185017  88.9689987  25.1185006  90.3895017
  89.9949987  25.9515006  91.6815017  89.0339987  26.3575006  92.2895017
  91.3029987  26.1255006  92.0005017  91.8919987  26.8485006  93.1135017
  91.4639987  27.8295006  92.9745017  92.9489987  26.8905006  92.8945017
  91.6569987  26.3795006  94.4905017  90.6139987  26.1835006  94.6745017
  92.2069987  27.3545006  95.5625017  91.5009987  28.1545006  95.7415017
  93.1309987  27.7835006  95.1955017  92.4419987  26.6175006  96.7625017
  91.1229987  26.2265006  97.5665017  91.6149987  25.5615006  98.9215017
  92.9739987  25.3555006  99.2295017  93.5609987  26.2545006  99.0905017
  93.3879987  24.6105006  98.5565017  93.1769987  24.7655006 100.6755017
  92.8449987  25.5335006 101.3635017  94.2239987  24.5665006 100.8555017
  92.4319987  23.4925006 101.0825017  92.6669987  23.0315006 102.5005017
  93.7329987  22.9835006 102.6755017  92.2359987  22.0475006 102.6065017
  92.1779987  23.7165006 103.1775017  90.9689987  23.7355006 100.9315017
  90.7889987  24.1475006  99.9505017  90.6429987  24.4065006 101.7055017
  90.4709987  22.7815006 101.0295017  92.8239987  22.3845006 100.1745017
  92.5919987  22.6595006  99.1565017  92.2749987  21.4945006 100.4425017
  93.8839987  22.1975006 100.2705017  90.4929987  27.4985006  97.9745017
  90.3239987  25.1975006  96.8715017  92.3029987  25.1565006  94.4925017
  91.6679987  24.1425006  93.9835017  90.4739987  23.9295006  93.9165017
  92.7329987  23.2505006  93.3775017  93.6899987  23.6085006  93.7425017
  92.6189987  22.2455006  93.7775017  92.6689987  23.2455006  91.8405017
  91.6599987  23.0295006  91.5065017  92.9159987  24.2225006  91.4375017
  93.6139987  22.1995006  91.2745017  94.6179987  22.3405006  91.6665017
  93.2969987  21.2125006  91.6005017  93.6399987  22.2225006  89.7525017
  94.1549987  21.3285006  89.4065017  92.6259987  22.1595006  89.3645017
  94.3219987  23.4295006  89.1445017  93.6139987  24.2525006  89.0625017
  95.1059987  23.7705006  89.8175017  94.9349987  23.1565006  87.7865017
  95.0489987  22.0735006  87.7695017  94.1489987  23.3935006  87.0755017
  96.2349987  23.8085006  87.3145017  96.9969987  23.7545006  88.0835017
  96.6309987  23.2745006  86.4515017  95.9729987  25.2065006  86.9235017
  96.1469987  25.8295006  87.7875017  95.6099987  25.8055006  85.8225017
  95.4719987  26.8735006  85.7325017  95.3559987  25.0575006  84.5745017
  96.2349987  25.1645006  83.9405017  95.2549987  23.9975006  84.7765017
  94.1509987  25.5385006  83.7975017  93.9059987  24.8525006  82.9875017
  93.2729987  25.5745006  84.4405017  94.4089987  26.9215006  83.2285017
  94.5529987  27.6315006  84.0425017  95.3329987  26.9245006  82.6565017
  93.2759987  27.3915006  82.3545017  93.0039987  26.6135006  81.6455017
  92.3859987  27.5835006  82.9515017  93.6589987  28.6435006  81.6195017
  93.8379987  29.4205006  82.3605017  94.6139987  28.4735006  81.1305017
  92.6359987  29.1845006  80.6035017  92.2199987  28.4385006  79.9275017
  91.7849987  29.7005006  81.0435017  93.4829987  30.2435006  79.7375017
  92.8909987  31.1325006  79.9405017  94.3449987  30.3045006  80.3975017
  93.9679987  30.2765006  78.2975017  94.5939987  31.1455006  78.1215017
  93.1439987  30.3215006  77.5935017  94.5549987  29.3925006  78.0625017
  42.7279987  94.2125006  81.5935017  43.6069987  93.6535006  81.2875017
  42.8599987  95.2405006  81.2695017  41.8749987  93.8055006  81.0575017
  42.5179987  94.1325006  83.1005017  43.3869987  94.5275006  83.6225017
  42.4239987  93.0945006  83.4075017  41.2699987  94.9245006  83.5245017
  40.3979987  94.5255006  83.0065017  41.3789987  95.9515006  83.1825017
  40.9999987  94.9405006  85.0255017  41.9129987  95.2195006  85.5465017
  40.7529987  93.9365006  85.3665017  39.8809987  95.9095006  85.4415017
  38.9139987  95.5675006  85.0805017  40.0449987  96.8885006  84.9935017
  39.8189987  96.0555006  86.9695017  39.2879987  96.9805006  87.1875017
  40.8369987  96.1985006  87.3255017  39.1679987  94.9005006  87.7465017
  39.5249987  93.9315006  87.4005017  38.0859987  94.8895006  87.6195017
  39.5029987  95.0615006  89.2445017  40.5829987  95.1725006  89.3335017
  39.2519987  94.1275006  89.7445017  38.8119987  96.2265006  89.9705017
  37.8009987  95.9185006  90.2275017  38.7079987  97.0545006  89.2705017
  39.5319987  96.7205006  91.2365017  39.1289987  97.6935006  91.5105017
  40.5849987  96.8805006  91.0065017  39.4149987  95.7475006  92.4245017
  40.0329987  96.1575006  93.2205017  39.8899987  94.8155006  92.1225017
  38.0169987  95.4415006  93.0025017  37.4389987  94.8925006  92.2635017
  37.4929987  96.3815006  93.1615017  38.0499987  94.6605006  94.3405017
  37.0359987  94.5125006  94.7075017  38.5749987  95.2165006  95.1125017
  38.7019987  93.2835006  94.1855017  39.7699987  93.4175006  94.0475017
  38.3199987  92.8405006  93.2695017  38.4619987  92.3025006  95.3395017
  37.4009987  92.1785006  95.5175017  38.9269987  92.6675006  96.2475017
  39.4249987  91.1095006  95.1955017  39.3359987  90.1795006  94.4085017
  40.3909987  91.3025006  96.0495017  41.1929987  90.1435006  96.2895017
  41.5829987  89.8555006  95.3255017  40.6499987  89.3115006  96.7135017
  42.3329987  90.5825006  97.2135017  43.0769987  89.8045006  97.1715017
  41.9119987  90.8345006  98.6975017  42.7229987  90.5615006  99.3585017
  41.0599987  90.2015006  98.9135017  41.5669987  92.2095006  98.8715017
  40.4199987  92.6415006  99.8365017  40.6649987  94.2185006  99.9185017
  42.0009987  94.7335006 100.0815017  42.7419987  93.9455006 100.0905017
  42.0799987  95.2425006 101.0375017  42.3469987  95.8135006  99.0145017
  42.5989987  95.3285006  98.0795017  43.2159987  96.3435006  99.3755017
  41.3229987  96.8805006  98.6645017  40.1879987  96.2405006  97.9165017
  40.5959987  95.6595006  97.1005017  39.5609987  97.0275006  97.5245017
  39.6179987  95.6305006  98.6005017  40.8109987  97.4515006  99.9375017
  41.6539987  97.7195006 100.5565017  40.1829987  96.7245006 100.4205017
  40.2389987  98.3335006  99.6885017  41.9149987  97.9055006  97.7505017
  42.7729987  98.3545006  98.2285017  41.1769987  98.6655006  97.5445017
  42.2159987  97.4335006  96.8265017  39.1139987  92.3645006  99.1925017
  40.6229987  92.0035006 101.1515017  42.9029987  91.7645006  96.6165017
  43.7569987  92.3725006  97.4165017  44.2779987  91.8335006  98.3845017
  44.2389987  93.6835006  96.6615017  43.7539987  94.4895006  97.2035017
  45.2999987  93.7765006  96.8775017  43.9719987  93.7655006  95.1435017
  44.8739987  94.1815006  94.7095017  43.9139987  92.7415006  94.7895017
  42.8749987  94.4845006  94.6885017  41.9489987  94.2225006  95.1935017
  43.0039987  95.5555006  94.8275017  42.7579987  94.2045006  93.2235017
  42.0019987  94.8525006  92.7835017  43.6859987  94.4215006  92.7005017
  42.3749987  92.7875006  92.9565017  43.2649987  92.1675006  92.8725017
  41.8149987  92.3995006  93.8055017  41.5409987  92.6315006  91.7195017
  41.4119987  91.5595006  91.5755017  40.5559987  93.0315006  91.9425017
  42.0369987  93.2545006  90.4295017  41.2759987  93.0515006  89.6845017
  42.0249987  94.3305006  90.5955017  43.3889987  92.8635006  89.9375017
  44.2249987  92.8935006  90.6205017  43.6339987  92.4645006  88.7085017
  44.6379987  92.1925006  88.4175017  42.6129987  92.3325006  87.5995017
  41.6839987  92.2225006  88.1565017  42.5779987  93.3155006  87.1425017
  42.6429987  91.3065006  86.5485017  43.7039987  91.2895006  86.3025017
  42.4539987  90.4105006  87.1365017  41.8989987  91.2515006  85.3855017
  41.3849987  92.1685006  85.0965017  42.4039987  90.8925006  84.4935017
  40.9339987  90.2845006  85.8085017  41.2199987  89.2385006  85.8945017
  40.2879987  90.4945006  86.6595017  40.2849987  90.4685006  84.7365017
  40.9469987  89.9325006  84.0585017  39.4589987  89.7935006  84.9405017
  39.7749987  91.7165006  84.0075017  39.5389987  92.4095006  84.8125017
  40.6639987  92.1115006  83.5195017  38.6219987  91.7305006  82.9995017
  37.9269987  90.9575006  83.3185017  38.1159987  92.6765006  83.1795017
  38.8779987  91.5945006  81.5305017  37.9579987  91.7135006  80.9665017
  39.2899987  90.6225006  81.2785017  39.5789987  92.3495006  81.1845017
  63.2879987  11.0255006  81.6015017  63.7999987  10.7435006  80.6865017
  62.2599987  11.2655006  81.3455017  63.2699987  10.1555006  82.2515017
  63.9489987  12.1565006  82.2545017  63.9729987  13.0365006  81.6135017
  64.9829987  11.9285006  82.4985017  63.1859987  12.4755006  83.4985017
  62.1819987  12.1065006  83.2905017  63.1179987  13.5615006  83.4805017
  63.6099987  12.0305006  84.9315017  63.5799987  10.9435006  84.9275017
  62.8159987  12.3515006  85.6045017  65.0089987  12.4955006  85.5105017
  64.9519987  13.5575006  85.7335017  65.7449987  12.3895006  84.7155017
  65.5229987  11.7205006  86.8115017  66.4639987  12.1945006  87.0865017
  65.7739987  10.7155006  86.4785017  64.6279987  11.6335006  88.0365017
  64.9879987  10.9055006  88.7605017  63.6109987  11.3355006  87.7845017
  64.6019987  13.0015006  88.6765017  64.8899987  13.7625006  87.9525017
  65.3319987  13.0565006  89.4825017  63.2159987  13.3315006  89.2295017
  62.4979987  13.2765006  88.4145017  63.2159987  14.3675006  89.5645017
  62.7509987  12.4275006  90.3795017  63.1809987  11.4375006  90.2475017
  61.6699987  12.3005006  90.3225017  63.1189987  12.9775006  91.7515017
  62.4009987  13.7235006  92.0845017  64.0889987  13.4715006  91.7495017
  63.1349987  11.8465006  92.7615017  63.8489987  11.0945006  92.4355017
  62.1599987  11.3635006  92.7525017  63.4519987  12.2895006  94.2055017
  64.4639987  12.6895006  94.1755017  63.4979987  11.3895006  94.8115017
  62.5519987  13.3245006  94.9105017  61.5189987  13.0185006  94.7855017
  62.6679987  14.2655006  94.3785017  62.8349987  13.5735006  96.4335017
  63.8709987  13.8485006  96.5865017  62.6239987  12.6795006  97.0075017
  62.8829987  12.4975006  97.5035017  63.0369987  11.3165006  97.3465017
  62.4209987  13.1235006  98.5825017  61.9319987  12.1655006  99.4675017
  61.5649987  11.4715006  98.7265017  61.0969987  12.5525006 100.0335017
  63.0019987  11.4355006 100.4375017  62.4649987  10.6825006 100.9895017
  63.5979987  12.4295006 101.3815017  64.3069987  11.9715006 102.0575017
  62.8179987  12.9015006 101.9655017  64.2359987  13.3715006 100.5675017
  65.7269987  13.7055006 100.8185017  66.4079987  13.1885006  99.4885017
  66.2059987  13.8735006  98.2655017  65.1759987  14.1705006  98.1175017
  66.4639987  13.2285006  97.4305017  67.1719987  15.1085006  98.1475017
  66.9769987  15.8055006  98.9525017  66.8949987  15.5725006  97.2115017
  68.6849987  14.9425006  98.1005017  69.1519987  14.3405006  99.3485017
  68.7479987  14.9055006 100.1765017  70.2299987  14.3955006  99.3625017
  68.8419987  13.3065006  99.3765017  69.0539987  14.2295006  96.8645017
  68.5679987  14.7145006  96.0315017  68.7539987  13.2005006  96.9505017
  70.1269987  14.2985006  96.7595017  69.4389987  16.1885006  98.0485017
  69.1369987  16.7505006  97.1775017  70.4929987  15.9625006  97.9865017
  69.2449987  16.7655006  98.9415017  65.8399987  15.1835006 100.8865017
  66.3029987  12.8765006 101.8935017  63.9169987  10.7125006  99.6175017
  64.8479987  10.0595006 100.2365017  64.9289987   9.8885006 101.4425017
  65.9129987   9.5615006  99.2365017  66.8039987  10.1285006  99.4865017
  66.1299987   8.5315006  99.5095017  65.5609987   9.6745006  97.7555017
  65.0519987   8.7675006  97.4475017  64.8489987  10.4815006  97.6135017
  66.7669987   9.8915006  96.8685017  67.5599987  10.4575006  97.3505017
  67.2139987   8.9525006  96.5515017  66.2669987  10.6395006  95.6245017
  65.3919987  10.1185006  95.2415017  65.9309987  11.6355006  95.9005017
  67.2649987  10.7565006  94.5205017  68.0869987  11.3525006  94.9115017
  67.6609987   9.7535006  94.3735017  66.8329987  11.3155006  93.1635017
  66.0499987  10.6325006  92.8375017  66.3429987  12.2575006  93.3915017
  67.8269987  11.5435006  92.0035017  68.6619987  10.8555006  91.9395017
  67.3799987  11.5755006  91.0105017  68.3039987  12.9655006  92.3765017
  68.9179987  12.7155006  93.2285017  68.2349987  14.1915006  92.0535017
  68.7189987  15.0245006  92.5415017  67.4709987  14.5465006  90.9595017
  66.8279987  13.6975006  90.7345017  66.8109987  15.3665006  91.2215017
  68.2369987  14.9005006  89.7115017  67.5549987  15.4285006  89.0455017
  68.9989987  15.6225006  89.9995017  68.8779987  13.7815006  88.9785017
  69.8029987  13.4865006  89.4735017  68.2389987  12.9025006  88.9795017
  69.1929987  14.1955006  87.5015017  68.3309987  14.8265006  87.2995017
  70.0329987  14.8695006  87.6605017  69.4859987  13.2985006  86.2825017
  70.3759987  12.8205006  86.6885017  68.6709987  12.5995006  86.4495017
  69.6839987  13.4825006  84.9165017  70.0639987  12.5835006  84.4345017
  68.7569987  13.7315006  84.4025017  70.5899987  14.5095006  84.7095017
  70.3699987  15.4655006  85.1785017  71.6129987  14.2705006  84.9915017
  70.5249987  14.6525006  83.2655017  71.2559987  15.3755006  82.9165017
  69.5489987  14.9915006  82.9355017  70.7309987  13.7085006  82.7695017
  79.6589987  93.9685006  81.0265017  78.6069987  93.7395006  80.8875017
  80.1109987  93.1375006  81.5595017  80.1199987  94.0175006  80.0435017
  79.8479987  95.2985006  81.7975017  79.3149987  95.1835006  82.7395017
  79.3069987  96.0515006  81.2305017  81.2589987  95.7725006  82.0785017
  81.2939987  96.7325006  82.5925017  81.8419987  95.8965006  81.1675017
  81.9209987  94.7355006  82.9265017  82.8219987  95.1815006  83.3415017
  82.2559987  93.9285006  82.2765017  81.0869987  94.1485006  84.0795017
  81.5359987  93.2215006  84.4265017  80.0979987  93.8885006  83.7065017
  80.9429987  95.1035006  85.2665017  80.3129987  95.9425006  84.9765017
  81.9169987  95.5235006  85.5085017  80.3569987  94.4385006  86.5125017
  80.9569987  93.5775006  86.8025017  79.3579987  94.0575006  86.3065017
  80.2899987  95.4255006  87.6825017  79.2529987  95.6105006  87.9595017
  80.7019987  96.3885006  87.3875017  81.0599987  94.8975006  88.9135017
  82.0919987  94.7125006  88.6235017  80.6459987  93.9295006  89.1935017
  81.0329987  95.8285006  90.1265017  79.9949987  96.0485006  90.3655017
  81.4899987  96.7775006  89.8465017  81.7579987  95.2625006  91.3785017
  82.8239987  95.1535006  91.1905017  81.3939987  94.2695006  91.6375017
  81.5719987  96.2025006  92.5835017  82.0459987  97.1575006  92.3715017
  82.0989987  95.7855006  93.4395017  80.1039987  96.4165006  92.9685017
  79.6339987  95.4485006  93.1315017  79.5589987  96.8865006  92.1545017
  79.9189987  97.2555006  94.2475017  80.1809987  96.6525006  95.1105017
  78.8639987  97.4985006  94.3415017  80.7299987  98.5685006  94.2805017
  80.5089987  99.1725006  93.4095017  81.7919987  98.3555006  94.2965017
  80.4229987  99.4195006  95.5425017  79.9739987 100.5385006  95.6005017
  80.7589987  98.8035006  96.6405017  80.1569987  99.5675006  97.7375017
  80.1499987 100.5705006  97.3375017  80.7799987  99.5435006  98.6205017
  78.6949987  99.1035006  98.0685017  78.3639987  99.6935006  98.9075017
  78.6809987  97.6075006  98.4425017  77.7779987  97.3895006  98.9955017
  79.5339987  97.4295006  99.0855017  78.7599987  96.7915006  97.2745017
  78.6229987  95.2165006  97.3245017  79.7159987  94.8945006  98.4365017
  79.4219987  93.9795006  99.4855017  79.2069987  92.9845006  99.1185017
  78.5379987  94.3075006 100.0245017  80.5569987  93.9495006 100.5455017
  81.4409987  93.5575006 100.0595017  80.2889987  93.2925006 101.3605017
  80.9859987  95.2615006 101.1895017  79.7259987  95.9945006 101.5025017
  79.1139987  96.0255006 100.6115017  79.9899987  96.9995006 101.7975017
  79.2249987  95.4965006 102.3185017  81.7949987  95.0755006 102.4215017
  82.5889987  94.3765006 102.2075017  81.1569987  94.7165006 103.2095017
  82.2089987  96.0385006 102.6845017  81.8489987  96.0455006 100.2655017
  82.7159987  95.4575006 100.0035017  82.1629987  96.9535006 100.7585017
  81.2909987  96.2925006  99.3735017  77.2519987  94.9605006  97.8215017
  79.0419987  94.6525006  96.0255017  77.8249987  99.3965006  96.9755017
  76.5869987  99.1125006  97.1955017  76.0669987  98.6385006  98.1905017
  75.7519987  99.8965006  96.1245017  74.7019987  99.7345006  96.3445017
  75.9189987 100.9645006  96.2445017  76.0929987  99.4685006  94.8115017
  77.0669987  99.9045006  94.6165017  76.2529987  98.3975006  94.8855017
  75.2339987  99.7515006  93.7265017  74.1769987  99.5575006  93.8925017
  75.2999987 100.7715006  93.3545017  75.7499987  98.8545006  92.7105017
  74.9039987  98.1835006  92.8475017  75.4669987  99.5405006  91.9165017
  76.9999987  97.9935006  92.2255017  77.5589987  97.4575006  92.9895017
  76.8029987  97.2735006  91.4335017  77.8259987  99.0675006  91.6855017
  77.5449987  99.9105006  92.3145017  78.8309987  98.7835006  91.9855017
  77.8599987  99.5205006  90.2105017  76.9709987  99.2075006  89.6765017
  77.8929987 100.6065006  90.1405017  79.0959987  98.9625006  89.5755017
  79.9639987  98.9515006  90.2175017  79.2489987  98.4655006  88.3155017
  80.2089987  98.0855006  87.9965017  78.1909987  98.3795006  87.2815017
  78.4559987  97.4135006  86.8555017  77.3169987  98.2095006  87.8995017
  77.8289987  99.3175006  86.1435017  76.9159987  99.0375006  85.6185017
  77.6879987 100.3465006  86.4695017  78.9599987  99.2565006  85.2205017
  79.9249987  99.5155006  85.6565017  79.1019987  98.3065006  84.7135017
  78.5849987 100.2705006  84.2515017  77.7509987 100.0475006  83.5895017
  78.4239987 101.2845006  84.6135017  79.8839987 100.2175006  83.4805017
  80.0769987 101.2865006  83.5485017  80.4449987  99.7625006  84.2925017
  80.4089987  99.7385006  82.1625017  81.1569987 100.3995006  81.7285017
  80.8709987  98.7545006  82.2165017  79.2869987  99.6665006  81.2665017
  79.2459987  98.7165006  80.7395017  78.3599987  99.7315006  81.8315017
  79.3239987 100.7495006  80.3065017  78.4319987 100.7465006  79.6875017
  80.1799987 100.6755006  79.6445017  79.3759987 101.7125006  80.8065017
  30.4359987  12.8185006  81.4625017  30.2419987  13.2265006  80.4755017
  29.4849987  12.5085006  81.8865017  31.0459987  11.9275006  81.3375017
  31.0949987  13.7845006  82.3085017  30.4179987  14.6365006  82.2775017
  31.9619987  14.0625006  81.7155017  31.5069987  13.5255006  83.7485017
  32.1699987  12.6615006  83.7115017  30.5989987  13.1875006  84.2445017
  32.1369987  14.5955006  84.5875017  32.6679987  15.3135006  83.9675017
  32.8749987  14.1885006  85.2765017  31.1159987  15.2975006  85.3375017
  30.4679987  14.5125006  85.7185017  30.5449987  15.8195006  84.5715017
  31.4279987  16.2295006  86.4295017  32.1769987  16.9465006  86.0995017
  31.8719987  15.6875006  87.2615017  30.1759987  16.9905006  86.9265017
  29.3199987  16.3305006  87.0555017  29.8619987  17.7635006  86.2265017
  30.4969987  17.5895006  88.1715017  29.8079987  18.4305006  88.0945017
  31.4759987  17.9715006  87.8865017  30.5419987  17.1505006  89.4965017
  29.8109987  16.3755006  89.7155017  30.3659987  17.9475006  90.2185017
  31.8939987  16.6125006  89.6895017  32.6129987  17.4175006  89.8255017
  32.2209987  16.0555006  88.8115017  31.9079987  15.7285006  90.8515017
  31.2999987  14.8535006  90.6305017  31.4259987  16.2275006  91.6905017
  33.2749987  15.2615006  91.2705017  34.0059987  15.9315006  90.8245017
  33.4389987  14.2865006  90.8155017  33.5119987  15.1485006  92.7405017
  34.4799987  14.6725006  92.8885017  32.7739987  14.4805006  93.1755017
  33.5109987  16.4335006  93.4985017  32.6939987  17.1085006  93.2665017
  34.4299987  17.0055006  93.3975017  33.3829987  15.9665006  94.9585017
  34.1699987  15.2645006  95.2025017  32.4259987  15.4845006  95.1185017
  33.0629987  17.1365006  95.6755017  33.2019987  18.1355006  95.0355017
  32.7919987  16.8435006  96.9475017  32.7429987  17.6065006  98.1665017
  32.7829987  18.6115006  97.7755017  33.6589987  17.3985006  98.7005017
  31.3999987  17.4235006  99.1755017  31.2819987  18.3605006  99.6935017
  31.7159987  16.3955006 100.1035017  32.5569987  16.6645006 100.7285017
  31.9559987  15.4825006  99.5725017  30.5669987  16.2205006 100.8795017
  30.0229987  14.7795006 100.9855017  29.0809987  14.6195006  99.7175017
  28.0359987  13.6535006  99.7635017  27.1139987  14.0425006  99.3525017
  27.8279987  13.3995006 100.7985017  28.4289987  12.3065006  99.0825017
  27.5379987  11.6915006  99.1015017  29.1979987  11.8215006  99.6655017
  28.9219987  12.2815006  97.6335017  30.1519987  13.1385006  97.5525017
  29.9319987  14.1005006  97.9955017  30.4009987  13.2665006  96.5095017
  30.9629987  12.6365006  98.0595017  29.1889987  10.8945006  97.1455017
  28.3289987  10.2815006  97.3675017  30.0749987  10.5185006  97.6255017
  29.3379987  10.9515006  96.0765017  27.8909987  12.7815006  96.6965017
  27.0019987  12.1755006  96.7895017  28.2679987  12.7175006  95.6865017
  27.6589987  13.8105006  96.9305017  31.1789987  13.8695006 100.8255017
  29.2239987  14.7025006 102.2165017  30.0929987  17.1045006  98.4615017
  28.9259987  17.8045006  98.1755017  28.4349987  18.8375006  98.3735017
  27.8759987  17.5215006  97.2905017  26.9789987  17.2645006  97.8445017
  27.6119987  18.3815006  96.6805017  28.3389987  16.4235006  96.4705017
  29.0499987  15.8525006  97.0585017  27.4999987  15.7595006  96.2865017
  28.9799987  16.8125006  95.1625017  28.2329987  17.4455006  94.6915017
  29.7849987  17.4735006  95.4745017  29.5289987  15.8255006  94.1595017
  30.1809987  16.3175006  93.4405017  30.1229987  15.0395006  94.6195017
  28.3969987  15.2015006  93.4165017  27.7429987  14.6255006  94.0685017
  27.7679987  15.9555006  92.9465017  28.9559987  14.2965006  92.3375017
  29.5949987  14.9155006  91.7095017  29.6069987  13.5695006  92.8155017
  27.9569987  13.5535006  91.4615017  27.1429987  13.1075006  92.0215017
  27.4969987  14.2015006  90.7165017  28.7699987  12.4995006  90.7485017
  29.0819987  11.6775006  91.3755017  29.1339987  12.4545006  89.4535017
  29.7239987  11.6265006  89.0865017  28.7909987  13.4785006  88.4025017
  28.9569987  14.4765006  88.8055017  29.4199987  13.3975006  87.5235017
  27.3169987  13.3675006  87.9865017  27.1089987  12.3585006  87.6315017
  26.6869987  13.5175006  88.8615017  26.9269987  14.3775006  86.9085017
  25.8699987  14.6275006  86.9985017  27.4719987  15.3075006  87.0445017
  27.1999987  13.8245006  85.4935017  28.2639987  13.6235006  85.3875017
  26.6949987  12.8675006  85.3695017  26.7349987  14.7915006  84.3875017
  25.8339987  15.3025006  84.7225017  27.4809987  15.5685006  84.2455017
  26.4199987  14.1075006  83.0375017  27.3219987  13.6735006  82.6105017
  25.7279987  13.2805006  83.1845017  25.8049987  15.0845006  82.0025017
  25.3539987  14.5295006  81.1835017  24.9879987  15.6165006  82.4855017
  26.7849987  16.0995006  81.4445017  26.2789987  16.8075006  80.7955017
  27.5689987  15.6285006  80.8625017  27.2599987  16.6635006  82.2425017
  54.5059987  11.8645006  80.0325017  53.8999987  12.1595006  79.1815017
  54.0059987  11.0345006  80.5225017  55.4549987  11.4975006  79.6515017
  54.6899987  12.8905006  80.8805017  53.6629987  13.1855006  81.0905017
  55.0929987  13.6445006  80.2095017  55.5149987  12.8695006  82.2365017
  56.1719987  13.6935006  81.9565017  56.0569987  11.9575006  81.9965017
  55.2779987  12.9065006  83.7205017  56.0709987  12.2305006  84.0325017
  54.3559987  12.3295006  83.7645017  55.1959987  14.1225006  84.7695017
  54.5999987  14.9175006  84.3295017  56.2009987  14.5235006  84.8885017
  54.6429987  13.7895006  86.0995017  53.7029987  13.2415006  86.0565017
  54.4599987  14.6595006  86.7265017  55.6429987  12.9665006  86.7135017
  55.7519987  13.2385006  87.7615017  56.6099987  13.1535006  86.2485017
  55.3319987  11.5615006  86.6165017  56.2269987  11.0045006  86.8895017
  55.1419987  11.3355006  85.5685017  54.1169987  11.0535006  87.4875017
  53.9889987  10.0265006  87.1505017  53.2749987  11.6135006  87.0825017
  54.0659987  11.0935006  88.9135017  53.1989987  10.5665006  89.3065017
  54.0019987  12.1125006  89.2955017  55.3139987  10.4625006  89.4125017
  56.1959987  11.0755006  89.2435017  55.5289987   9.4945006  88.9635017
  55.1319987  10.2915006  90.9005017  54.1349987   9.9185006  91.1225017
  55.2139987  11.2555006  91.3995017  56.1769987   9.3595006  91.4745017
  57.1669987   9.6525006  91.1305017  56.0289987   8.3365006  91.1395017
  56.1809987   9.3875006  92.9915017  55.1779987   9.2105006  93.3645017
  56.4679987  10.3835006  93.3195017  57.1419987   8.3695006  93.6235017
  58.1449987   8.5065006  93.2395017  56.8199987   7.3585006  93.4025017
  57.2329987   8.3895006  95.1465017  56.5969987   9.1415006  95.8665017
  58.1809987   7.5515006  95.5585017  58.5409987   7.5855006  96.9645017
  58.5579987   6.5605006  97.2945017  57.7849987   8.1195006  97.5225017
  59.9009987   8.2195006  97.1495017  60.6429987   7.7195006  96.5475017
  60.3399987   8.2355006  98.6075017  61.3079987   8.7125006  98.6685017
  60.4409987   7.2115006  98.9375017  59.3369987   8.9275006  99.4715017
  59.7309987  10.2345006 100.1835017  59.0029987  11.3775006  99.2405017
  57.5769987  11.2825006  99.4825017  57.4319987  11.5645006 100.5175017
  57.2299987  10.2665006  99.3455017  56.7559987  12.2105006  98.5665017
  55.7099987  11.9465006  98.5845017  56.8689987  13.2455006  98.8595017
  57.1989987  12.0365006  97.1465017  58.1999987  12.0795006  97.0525017
  56.8629987  11.0365006  96.8665017  56.7859987  12.7195006  96.5345017
  59.5379987  10.5305006 101.6005017  61.0739987   9.9045006  99.9965017
  59.7489987   9.5165006  96.6485017  60.8349987  10.0125006  96.2895017
  61.8999987   9.5085006  96.0465017  60.5299987  11.3975006  96.0205017
  59.9719987  11.7815006  96.8685017  61.4519987  11.9725006  95.9865017
  59.7609987  11.5305006  94.7335017  60.3629987  11.0855006  93.9485017
  58.8689987  10.9175006  94.8105017  59.3789987  12.9555006  94.3255017
  58.7609987  13.4525006  95.0695017  60.2599987  13.5795006  94.1965017
  58.6509987  12.8825006  93.0195017  59.2929987  12.4465006  92.2565017
  57.7739987  12.2435006  93.0805017  58.2259987  14.2475006  92.5555017
  58.0169987  14.9095006  93.3935017  59.0189987  14.7245006  91.9835017
  56.9759987  14.1385006  91.6665017  56.2269987  13.6535006  92.2905017
  56.6289987  15.1555006  91.5045017  57.0449987  13.4455006  90.3535017
  57.6149987  12.5255006  90.4025017  56.0529987  13.1735006  89.9945017
  57.6619987  14.4165006  89.3755017  57.0819987  15.3225006  89.2785017
  58.7689987  14.3305006  88.6585017  59.0179987  15.1645006  88.0185017
  59.7479987  13.2195006  88.6105017  60.7509987  13.6255006  88.4885017
  59.7649987  12.6365006  89.5245017  59.4599987  12.3015006  87.4315017
  59.9169987  11.3325006  87.6295017  58.3859987  12.1295006  87.3975017
  59.9279987  12.8175006  86.0745017  59.2839987  13.6285006  85.7335017
  60.9299987  13.2325006  86.1405017  59.9109987  11.7085006  85.0555017
  60.2599987  12.1085006  84.1055017  60.6319987  10.9465006  85.3485017
  58.5719987  11.0765006  84.8805017  58.3129987  10.4105006  85.7015017
  57.7569987  11.7915006  84.8105017  58.6439987  10.2735006  83.6525017
  58.7329987  10.8425006  82.7285017  59.4429987   9.5345006  83.6295017
  57.3519987   9.5645006  83.6435017  57.2149987   8.6935006  84.2795017
  56.4599987  10.1725006  83.7775017  57.4169987   9.1875006  82.4025017
  56.4989987   8.6915006  82.1015017  58.2329987   8.4935006  82.2315017
  57.5649987  10.0385006  81.7435017  11.0659987  61.9455006  80.8265017
  12.1299987  61.9405006  81.0415017  10.5549987  62.3535006  81.6935017
  10.8999987  62.6265006  79.9965017  10.5639987  60.5525006  80.4985017
  10.7339987  59.8665006  81.3265017  11.0939987  60.1385006  79.6455017
   9.0619987  60.6215006  80.2025017   8.9289987  61.3105006  79.3685017
   8.5969987  61.0975006  81.0635017   8.3289987  59.3445006  79.9115017
   8.9559987  58.6145006  79.4045017   7.4549987  59.4835006  79.2775017
   7.9159987  58.7965006  81.1795017   8.8489987  58.4855006  81.6435017
   7.3969987  57.8835006  80.8935017   7.0739987  59.5535006  82.2155017
   6.2049987  59.8705006  81.6425017   7.6599987  60.4515006  82.4025017
   6.6129987  58.9665006  83.5485017   6.2899987  57.9465006  83.3485017
   5.7199987  59.5165006  83.8425017   7.6329987  58.9625006  84.7385017
   8.1039987  59.9435006  84.7865017   8.4269987  58.2545006  84.5065017
   7.0589987  58.6335006  86.0555017   6.6719987  57.6225006  86.1605017
   6.2699987  59.2985006  86.4045017   8.2519987  58.7955006  86.9195017
   8.7629987  59.7455006  86.7785017   9.0039987  58.0195006  86.7755017
   7.7319987  58.7095006  88.2645017   7.2479987  57.7355006  88.2955017
   6.9309987  59.4465006  88.2925017   8.7509987  58.8835006  89.7405017
   9.0939987  59.9025006  89.5805017   9.5759987  58.2365006  89.4475017
   8.4429987  58.6475006  91.2725017   7.8489987  57.7375006  91.3385017
   7.8029987  59.4545006  91.6185017   9.6249987  58.5065006  92.2245017
  10.3599987  59.2945006  92.0945017  10.1439987  57.5635006  92.0705017
   9.1059987  58.5425006  93.6345017   8.3459987  57.7855006  93.7775017
   8.6759987  59.5125006  93.8535017  10.1019987  58.3865006  94.7575017
  11.1889987  57.8905006  94.5575017   9.5019987  58.4255006  95.9815017
  10.1379987  57.6425006  97.0485017  11.0779987  57.3135006  96.6315017
   9.5999987  56.7855006  97.4285017  10.3659987  58.6095006  98.0885017
  10.9929987  58.2275006  98.8765017   9.0209987  59.1475006  98.6905017
   9.2279987  59.6205006  99.6405017   8.3839987  58.2885006  98.8615017
   8.3919987  60.0605006  97.8095017   6.9959987  60.6915006  98.1905017
   7.4959987  61.9875006  98.9795017   8.2979987  62.9435006  98.3075017
   7.7439987  63.8325006  98.0335017   8.6809987  62.5215006  97.3825017
   9.5439987  63.3025006  99.1335017   9.9299987  64.2075006  98.6825017
  10.3029987  62.5355006  99.0775017   9.3759987  63.6145006 100.6055017
   9.2359987  62.3735006 101.4355017   8.4639987  61.7535006 101.0015017
   8.9469987  62.6705006 102.4325017  10.1879987  61.8655006 101.4705017
  10.5549987  64.3805006 101.0865017  10.7279987  65.2045006 100.4105017
  11.4059987  63.7245006 101.1315017  10.3179987  64.7535006 102.0725017
   8.2039987  64.5115006 100.8245017   8.3439987  65.4235006 100.2625017
   8.1259987  64.7425006 101.8765017   7.3029987  64.0145006 100.4965017
   6.3909987  61.0815006  96.9035017   6.2829987  59.7905006  99.1165017
  11.1669987  59.4785006  97.4215017  11.3329987  60.5315006  97.9545017
  11.3629987  60.8555006  99.1385017  11.7779987  61.2665006  96.7755017
  12.0179987  62.2265006  97.2205017  12.7319987  60.7945006  96.5545017
  10.9349987  61.4175006  95.5145017  11.0249987  60.4575006  95.0185017
   9.9119987  61.4755006  95.8735017  11.1969987  62.5455006  94.4855017
  10.2809987  62.7565006  93.9405017  11.4419987  63.4545006  95.0295017
  12.3259987  62.2435006  93.5115017  13.1069987  61.7765006  94.1085017
  11.9619987  61.4755006  92.8325017  12.9819987  63.4135006  92.6585017
  13.4059987  64.1105006  93.3785017  13.8259987  62.9585006  92.1445017
  12.1579987  64.1735006  91.6525017  11.1079987  63.9605006  91.8475017
  12.2899987  65.2395006  91.8155017  12.4689987  63.8645006  90.2155017
  11.8899987  64.5215006  89.5765017  13.5159987  64.0995006  90.0295017
  12.2309987  62.4215006  89.8665017  12.8459987  61.6985006  90.3805017
  11.3269987  61.9455006  88.9945017  11.2189987  60.8865006  88.8105017
  10.3769987  62.8115006  88.1935017   9.4709987  62.9515006  88.7815017
  10.7899987  63.8005006  88.0325017   9.9809987  62.1945006  86.8375017
  10.8979987  61.8825006  86.3395017   9.4279987  61.2825006  87.0535017
   9.1389987  63.0895006  85.8685017   8.9779987  62.4595006  84.9935017
   8.1719987  63.1875006  86.3545017   9.6239987  64.4695006  85.4145017
   9.4699987  65.0305006  86.3335017  10.6949987  64.2885006  85.3445017
   9.1789987  65.2945006  84.2255017   8.1379987  65.5575006  84.4065017
   9.7319987  66.2285006  84.2655017   9.2749987  64.6835006  82.8115017
  10.3109987  64.5775006  82.4955017   8.8469987  63.6825006  82.7855017
   8.5569987  65.5325006  81.8105017   7.5099987  65.5895006  82.0995017
   8.9509987  66.5395006  81.9275017   8.6589987  65.1275006  80.3165017
   8.1739987  65.8645006  79.6835017   8.1859987  64.1705006  80.1225017
   9.6959987  65.0525006  80.0025017  48.2659987  96.7635006  80.5385017
  48.3679987  97.2925006  79.5965017  48.4639987  97.4705006  81.3385017
  47.2309987  96.4465006  80.6285017  49.1709987  95.6235006  80.6065017
  50.2309987  95.8705006  80.5705017  49.0089987  94.8615006  79.8495017
  48.8499987  95.1005006  81.9145017  49.7629987  94.5185006  82.0445017
  48.0899987  94.3975006  81.5805017  48.4529987  95.6305006  83.1645017
  49.0659987  96.5075006  83.3605017  48.7029987  94.9075006  83.9395017
  46.9699987  96.0275006  83.2965017  46.2659987  95.2375006  83.5445017
  46.5389987  96.5675006  82.4545017  47.0899987  96.9405006  84.4495017
  46.2409987  97.6185006  84.5145017  47.9759987  97.5675006  84.3755017
  47.1689987  96.1075006  85.7265017  48.0649987  95.4905006  85.6785017
  46.3249987  95.4185006  85.7395017  47.1809987  96.9105006  87.0195017
  47.9079987  97.7165006  86.9275017  47.5339987  96.2735006  87.8285017
  45.8209987  97.4985006  87.3985017  45.0839987  96.6995006  87.4425017
  45.4889987  98.1745006  86.6115017  45.8369987  98.2485006  88.7345017
  44.8219987  98.5335006  89.0025017  46.3969987  99.1775006  88.6275017
  46.4609987  97.4105006  89.8585017  47.5189987  97.2705006  89.6485017
  46.0199987  96.4155006  89.8615017  46.3239987  98.0265006  91.2505017
  45.3319987  97.8165006  91.6445017  46.3949987  99.1095006  91.1675017
  47.3609987  97.5545006  92.2005017  47.1149987  97.8505006  93.2185017
  48.3389987  97.9765006  91.9895017  47.4499987  96.1475006  92.1665017
  48.1039987  95.6535006  91.4565017  46.5349987  95.5635006  92.2105017
  48.1369987  96.1305006  93.6175017  47.5159987  96.6485006  94.3375017
  49.1059987  96.6145006  93.5825017  49.6249987  96.0665006  93.8665017
  50.3849987  96.4515006  93.0105017  49.8999987  95.3335006  94.9255017
  51.2799987  95.2865006  95.3035017  51.8599987  95.8195006  94.5655017
  51.6849987  94.2915006  95.4195017  51.2919987  96.0345006  96.6205017
  52.2549987  96.4985006  96.7565017  50.9899987  95.1085006  97.8005017
  51.4189987  94.1285006  97.6425017  49.9169987  95.0045006  97.9025017
  51.5359987  95.7045006  98.9495017  50.8739987  96.7965006  99.8465017
  50.3589987  97.9055006  98.8295017  50.1229987  99.1985006  99.3665017
  50.9969987  99.8325006  99.2905017  49.8949987  99.1135006 100.4255017
  48.8949987  99.8755006  98.7435017  49.0839987 100.0295006  97.6885017
  48.7339987 100.8355006  99.2115017  47.5629987  99.1435006  98.8225017
  47.4579987  97.9445006  97.9265017  47.7419987  98.2365006  96.9245017
  46.4299987  97.6145006  97.9315017  48.0919987  97.1615006  98.3135017
  47.2599987  98.6535006 100.2005017  47.3969987  99.4705006 100.8925017
  47.9109987  97.8295006 100.4315017  46.2289987  98.3295006 100.2085017
  46.5629987 100.1225006  98.4165017  46.6139987 100.9775006  99.0745017
  45.5819987  99.6755006  98.4795017  46.7539987 100.4325006  97.3995017
  49.6639987  96.2995006 100.5545017  51.9669987  97.3915006 100.6555017
  50.3029987  97.0975006  96.5075017  50.8169987  98.1135006  95.8955017
  51.9919987  98.2615006  95.6985017  49.7429987  99.0185006  95.3855017
  49.3919987  98.6085006  94.4445017  48.8919987  98.9825006  96.0605017
  50.2479987 100.4105006  95.2325017  50.5059987 100.8735006  96.1785017
  51.1319987 100.4905006  94.6075017  49.1299987 101.1555006  94.6185017
  48.3109987 101.0375006  95.3235017  49.4459987 102.1935006  94.6925017
  48.6279987 100.8915006  93.1695017  49.4939987 101.0435006  92.5285017
  48.3839987  99.8335006  93.1045017  47.4219987 101.7305006  92.5835017
  46.5679987 101.3795006  93.1585017  47.6329987 102.7375006  92.9395017
  47.0359987 101.8055006  91.0795017  46.5259987 100.8485006  90.9795017
  46.2599987 102.5645006  91.1125017  47.8729987 102.0385006  89.8865017
  47.9379987 103.1155006  89.9895017  48.7999987 101.6345006  90.2925017
  47.7589987 101.6085006  88.3365017  46.9079987 101.9775006  87.7855017
  48.6759987 100.8075006  87.6365017  48.4939987 100.6205006  86.5875017
  49.9839987 100.1235006  88.1945017  49.6089987  99.9965006  89.2085017
  49.8559987  99.1665006  87.7015017  51.5799987 100.4835006  88.2795017
  51.7629987 101.4195006  88.8065017  52.1329987  99.7175006  88.8205017
  52.1329987 100.5865006  86.8325017  51.7059987 101.4645006  86.3485017
  53.2069987 100.7475006  86.8625017  51.8299987  99.3585006  85.9955017
  50.7919987  99.0555006  86.1115017  51.9729987  99.5545006  84.9345017
  52.7269987  98.2585006  86.4135017  53.7599987  98.5985006  86.3645017
  52.5469987  98.0055006  87.4545017  52.6029987  97.0235006  85.5525017
  53.2189987  96.2255006  85.9625017  51.5779987  96.6585006  85.5835017
  52.9879987  97.2345006  84.1255017  52.2459987  97.8545006  83.6285017
  53.9119987  97.8085006  84.1105017  53.1939987  95.9635006  83.3335017
  53.5559987  96.1865006  82.3345017  52.2739987  95.3985006  83.2275017
  53.9239987  95.3185006  83.8135017  12.0019987  37.6805006  81.8065017
  11.5259987  38.1165006  80.9345017  11.2789987  37.6865006  82.6165017
  12.2279987  36.6435006  81.5755017  13.2709987  38.4485006  82.1905017
  13.0169987  39.4885006  82.3905017  13.9499987  38.4585006  81.3425017
  13.9759987  37.8515006  83.4285017  14.0829987  36.7715006  83.3295017
  13.3689987  38.0135006  84.3175017  15.3079987  38.4545006  83.6535017
  15.2819987  39.4555006  83.2275017  16.0319987  37.8945006  83.0635017
  15.7989987  38.5505006  85.1015017  15.9969987  37.5665006  85.5175017
  15.0359987  39.0015006  85.7335017  17.0399987  39.3635006  85.1765017
  16.9199987  40.4455006  85.1675017  17.8209987  39.1375006  84.4535017
  17.4669987  38.9455006  86.4775017  18.5549987  38.9285006  86.4565017
  17.1479987  37.9105006  86.5905017  16.9949987  39.7595006  87.6985017
  15.9299987  39.5895006  87.8525017  17.1049987  40.8215006  87.4865017
  17.7009987  39.4435006  88.9005017  18.7589987  39.5515006  88.6715017
  17.5369987  38.3825006  89.0825017  17.4009987  40.1665006  90.0705017
  17.6769987  41.1845006  89.8035017  18.1549987  39.8215006  90.7775017
  16.0269987  40.1565006  90.7535017  15.9019987  39.1025006  90.9905017
  15.3539987  40.3615006  89.9235017  15.5889987  40.9875006  91.9825017
  16.4739987  41.6155006  92.0555017  15.7039987  40.2105006  92.7365017
  14.3589987  41.7875006  92.3025017  13.8109987  42.2505006  91.4835017
  14.3589987  42.5085006  93.1145017  13.6429987  40.6325006  92.7095017
  14.2739987  39.9555006  93.2755017  13.2929987  40.0835006  91.8395017
  12.5469987  40.9835006  93.4785017  11.9189987  41.6865006  92.9455017
  12.8679987  41.4395006  94.4075017  11.6799987  39.7055006  93.6015017
  10.6579987  39.2625006  93.0645017  12.1309987  39.2905006  94.7095017
  11.1589987  38.4195006  95.2695017  10.8379987  37.6825006  94.5485017
  10.2959987  38.9605006  95.6295017  11.8929987  37.7525006  96.4085017
  11.2379987  37.0295006  96.8655017  12.4069987  38.7415006  97.4745017
  11.6199987  39.4315006  97.7475017  13.2269987  39.3035006  97.0445017
  12.8519987  38.0085006  98.6225017  13.4559987  38.8615006  99.8105017
  13.5079987  40.2925006  99.1155017  14.1059987  41.4075006  99.7405017
  13.5709987  41.6535006 100.6485017  13.9969987  42.2615006  99.0775017
  15.6229987  41.2915006 100.0045017  15.8279987  40.2755006 100.3185017
  15.9919987  41.9695006 100.7605017  16.4689987  41.5215006  98.8005017
  16.2599987  40.4465006  97.7855017  16.3739987  39.4865006  98.2705017
  17.0139987  40.5595006  97.0205017  15.2799987  40.5625006  97.3485017
  16.0569987  42.8335006  98.2695017  16.0619987  43.5475006  99.0785017
  15.0799987  42.7435006  97.8305017  16.7789987  43.1195006  97.5185017
  17.8739987  41.6005006  99.1535017  18.0179987  42.4005006  99.8645017
  18.4529987  41.7985006  98.2635017  18.1899987  40.6635006  99.5895017
  12.4719987  38.8005006 100.9275017  14.8609987  38.4745006 100.0745017
  13.0269987  37.0825006  95.8495017  13.1879987  35.8525006  96.2465017
  12.4679987  35.2095006  96.9985017  14.3179987  35.2705006  95.4205017
  15.1409987  35.9765006  95.3955017  14.7139987  34.3685006  95.8805017
  13.7709987  34.9815006  94.0245017  14.1839987  34.0545006  93.6425017
  12.6949987  34.8435006  94.0475017  14.1319987  36.1315006  93.0575017
  13.4169987  36.9425006  93.1755017  15.0989987  36.5345006  93.3495017
  14.2019987  35.7175006  91.6325017  15.2189987  35.3415006  91.5345017
  13.5499987  34.8495006  91.5695017  13.9129987  36.6415006  90.4445017
  12.8929987  37.0165006  90.4935017  14.5589987  37.5155006  90.4965017
  14.1379987  35.9395006  89.0815017  15.1969987  35.6885006  89.0625017
  13.5999987  34.9965006  89.1315017  13.7549987  36.6625006  87.7525017
  14.5649987  37.3335006  87.4925017  13.7189987  35.9075006  86.9685017
  12.4579987  37.3775006  87.7815017  11.9109987  36.4495006  87.8495017
  11.7559987  38.4855006  87.7715017  10.7429987  38.7475006  87.4995017
  12.4679987  39.4895006  88.1975017  12.0739987  40.1415006  88.9755017
  13.5419987  39.4575006  88.3435017  12.1499987  40.1415006  86.8005017
  12.6859987  39.7535006  85.9355017  11.1009987  40.1835006  86.5135017
  12.5929987  41.4125006  87.0825017  11.8249987  41.7535006  87.7765017
  13.4749987  41.2055006  87.6825017  12.9479987  42.6865006  85.9495017
  13.9269987  42.8635006  86.3885017  13.1039987  41.9905006  85.1275017
  12.4579987  43.8105006  85.4775017  11.3869987  43.8535006  85.2895017
  12.7109987  44.7465006  85.9675017  13.1599987  43.7195006  84.1435017
  12.9309987  44.6355006  83.6025017  14.2279987  43.7495006  84.3495017
  12.8519987  42.4285006  83.1475017  13.2029987  41.5155006  83.6225017
  11.7709987  42.3275006  83.0755017  13.4269987  42.5225006  81.7465017
  13.1039987  41.6815006  81.1405017  14.5119987  42.5215006  81.7525017
  13.0999987  43.4325006  81.2505017  87.4539987  85.4265006  82.4655017
  88.3199987  84.7725006  82.4535017  87.6279987  86.2205006  81.7445017
  86.5999987  84.8505006  82.1195017  87.2499987  85.8915006  83.6115017
  88.1519987  86.4185006  83.9175017  87.1449987  85.0475006  84.2875017
  85.8899987  86.9525006  83.7675017  85.0599987  86.2495006  83.8385017
  85.8329987  87.3855006  82.7705017  85.6219987  88.4835006  85.1725017
  86.2379987  89.3165006  84.8415017  86.0569987  88.1395006  86.1095017
  84.3759987  88.9345006  85.3995017  83.5859987  88.2005006  85.2615017
  84.0969987  89.7995006  84.8005017  84.4239987  89.3225006  86.8215017
  84.5859987  88.3675006  87.3185017  83.3909987  89.5995006  87.0235017
  85.3609987  90.3785006  87.4325017  85.4579987  91.1305006  86.6515017
  86.3249987  89.8755006  87.4915017  85.0699987  91.0705006  88.7675017
  84.3169987  90.4135006  89.2005017  84.5429987  91.9675006  88.4465017
  86.0399987  91.4255006  89.7885017  86.7999987  92.1205006  89.4375017
  86.5769987  90.5665006  90.1905017  85.2209987  92.0895006  90.9185017
  84.2879987  91.5455006  91.0475017  84.9459987  93.1005006  90.6185017
  85.9849987  92.1475006  92.2515017  85.3019987  92.6115006  92.9605017
  86.7969987  92.8575006  92.1055017  86.5519987  90.8415006  92.8965017
  87.0589987  91.0915006  93.8255017  87.3129987  90.4265006  92.2375017
  85.4879987  89.7715006  93.1485017  84.9879987  89.6155006  92.1945017
  84.7459987  90.2035006  93.8145017  85.9029987  88.4175006  93.6845017
  86.8689987  88.1155006  93.2935017  85.1879987  87.6585006  93.3785017
  85.9639987  88.4415006  95.2235017  85.0189987  88.7735006  95.6355017
  86.7449987  89.1135006  95.5595017  86.4219987  87.1475006  95.6495017
  86.7069987  86.5005006  94.6895017  86.6269987  87.0795006  97.0045017
  87.0789987  86.2865006  98.1945017  86.9019987  85.2655006  97.8915017
  86.2859987  86.5995006  98.8585017  88.4859987  86.4125006  98.8965017
  89.2449987  85.6555006  98.7865017  87.9219987  86.3595006 100.2505017
  88.6689987  86.3575006 101.0325017  87.2789987  85.4985006 100.3825017
  87.1669987  87.5475006 100.2935017  87.6129987  88.9085006 100.9285017
  87.5429987  89.9455006  99.7165017  86.4519987  89.8545006  98.8255017
  85.5099987  90.0505006  99.3205017  86.3899987  88.8435006  98.4335017
  86.6239987  90.7545006  97.5925017  85.7019987  90.7135006  97.0275017
  87.4319987  90.4075006  96.9645017  86.8919987  92.2275006  97.8395017
  85.8949987  92.8025006  98.7975017  84.9009987  92.5515006  98.4535017
  86.0179987  93.8755006  98.8025017  86.0909987  92.4105006  99.7845017
  88.2419987  92.3985006  98.4845017  88.9689987  91.8435006  97.9105017
  88.1929987  92.0485006  99.5005017  88.4789987  93.4525006  98.4635017
  86.8099987  92.8895006  96.5075017  87.5339987  92.4415006  95.8425017
  87.0249987  93.9415006  96.6205017  85.8159987  92.7645006  96.1035017
  86.5519987  89.1745006 101.8995017  89.0199987  88.8385006 101.3775017
  89.0689987  87.6445006  98.6625017  89.8829987  87.7645006  97.7795017
  90.5949987  86.8895006  97.2875017  89.9619987  89.2805006  97.7245017
  88.9889987  89.6435006  97.4095017  90.1129987  89.6675006  98.7295017
  90.9749987  89.6995006  96.8695017  91.8029987  89.0595006  97.1525017
  90.6389987  89.3445006  95.9005017  91.5109987  91.2485006  96.7425017
  91.3409987  91.7635006  97.6845017  92.5889987  91.2225006  96.6015017
  90.8949987  92.0315006  95.6065017  89.8539987  92.1865006  95.8845017
  91.3589987  93.0145006  95.6035017  90.9349987  91.4475006  94.1495017
  91.8619987  90.9165006  93.9425017  90.1329987  90.7295006  93.9885017
  90.7789987  92.5525006  93.1865017  90.1479987  93.3035006  93.6585017
  91.7499987  93.0165006  93.0395017  90.2089987  92.1985006  91.8475017
  89.3139987  91.5935006  91.9345017  89.9229987  93.0925006  91.2945017
  91.2239987  91.5135006  91.1135017  92.2319987  91.8695006  90.9655017
  90.9279987  90.3925006  90.6045017  91.8829987  90.1815006  90.1445017
  89.9389987  89.3665006  90.4005017  90.4269987  88.3935006  90.3735017
  89.2119987  89.3195006  91.2035017  89.2269987  89.5715006  89.0955017
  88.3659987  88.9045006  89.1005017  88.8269987  90.5835006  89.1245017
  90.0079987  89.3815006  87.8085017  91.0109987  89.7905006  87.9325017
  90.1349987  88.3215006  87.6085017  89.3449987  90.0405006  86.6235017
  88.3739987  89.5915006  86.4245017  89.1589987  91.0965006  86.8095017
  90.2459987  89.8965006  85.4005017  91.1739987  90.4325006  85.5895017
  90.5249987  88.8525006  85.2835017  89.6619987  90.4215006  84.1165017
  88.5789987  90.3145006  84.1175017  89.8599987  91.4875006  84.0185017
  90.2139987  89.7155006  82.8945017  91.2459987  89.9525006  82.6505017
  90.1719987  88.6325006  82.9815017  89.3399987  90.1345006  81.7865017
  89.5989987  89.6105006  80.8715017  89.4209987  91.1975006  81.5865017
  88.2989987  89.9185006  82.0075017   9.7379987  55.7875006  81.6005017
  10.7059987  55.6705006  81.1235017   8.9819987  55.7905006  80.8205017
   9.5679987  54.9115006  82.2205017   9.6859987  56.9315006  82.3425017
   9.7569987  57.8795006  81.8125017  10.3539987  57.0085006  83.1965017
   8.2799987  56.7315006  82.8065017   7.8569987  56.2135006  81.9455017
   7.9119987  57.7545006  82.7535017   7.7619987  56.1055006  84.0615017
   8.2629987  56.5905006  84.8965017   8.0859987  55.0655006  84.0795017
   6.2119987  56.1715006  84.2995017   5.6769987  55.9875006  83.3715017
   5.9339987  57.1745006  84.6195017   5.7589987  55.1865006  85.3215017
   4.8079987  55.4545006  85.7785017   6.4659987  55.0665006  86.1395017
   5.6099987  53.8685006  84.5935017   6.5639987  53.5945006  84.1455017
   4.9099987  53.9905006  83.7675017   5.1339987  52.7375006  85.4925017
   5.1339987  51.8125006  84.9175017   4.0979987  52.9235006  85.7685017
   5.9669987  52.5425006  86.7635017   5.9699987  53.4675006  87.3365017
   7.0039987  52.3525006  86.4885017   5.4609987  51.3995006  87.6475017
   5.9199987  50.4715006  87.3155017   4.3889987  51.2805006  87.4955017
   5.7379987  51.6175006  89.1475017   5.2189987  50.8375006  89.7005017
   5.2819987  52.5585006  89.4515017   7.2229987  51.6095006  89.5725017
   7.7939987  52.2975006  88.9545017   7.6479987  50.6225006  89.4005017
   7.3949987  51.9675006  91.0635017   6.6399987  51.4335006  91.6375017
   7.2029987  53.0255006  91.2185017   8.7859987  51.6135006  91.6555017
   9.5679987  52.0185006  91.0215017   8.9009987  50.5325006  91.6445017
   8.9939987  52.1175006  93.1065017   8.2049987  51.7515006  93.7515017
   8.9909987  53.2005006  93.1335017   9.4699987  53.5635006  93.1345017
   9.6559987  54.2765006  92.1625017   9.6989987  53.8865006  94.3925017
   9.8669987  55.2745006  94.6215017   9.9969987  55.5905006  93.5975017
  10.7369987  55.5625006  95.1935017   8.5599987  55.9085006  95.2255017
   8.7789987  56.9635006  95.1975017   8.3189987  55.4795006  96.6305017
   7.6479987  56.1625006  97.1335017   9.2619987  55.4655006  97.1625017
   7.7819987  54.2315006  96.5865017   6.8489987  53.7505006  97.6965017
   7.8899987  53.6195006  98.8685017   7.6649987  54.1235006 100.1715017
   7.1649987  53.4105006 100.8145017   7.0239987  54.9995006 100.1255017
   8.9819987  54.6175006 100.8105017   8.7419987  54.7905006 101.8515017
   9.3139987  55.5475006 100.3715017  10.2029987  53.6935006 100.8125017
  11.3429987  54.3245006 101.5305017  11.4959987  55.3175006 101.1295017
  12.2219987  53.7215006 101.3555017  11.1229987  54.3465006 102.5875017
   9.8989987  52.3835006 101.4765017   8.9889987  51.9875006 101.0525017
   9.8029987  52.5405006 102.5355017  10.7249987  51.7175006 101.2705017
  10.5419987  53.3715006  99.3925017   9.6899987  52.9045006  98.9205017
  11.3829987  52.6945006  99.3735017  10.7979987  54.2805006  98.8675017
   5.8659987  54.8355006  97.9635017   6.4569987  52.4295006  97.1935017
   7.4629987  55.7165006  94.3415017   6.6669987  56.7565006  94.0015017
   6.6209987  57.8845006  94.4435017   5.9009987  56.3245006  92.7845017
   6.1279987  55.2635006  92.7795017   4.8709987  56.4065006  93.1225017
   6.0729987  56.9315006  91.4515017   5.1649987  56.8915006  90.8605017
   6.3589987  57.9775006  91.4925017   7.2059987  56.0905006  90.7205017
   8.1659987  56.1295006  91.2295017   6.9449987  55.0375006  90.6455017
   7.3229987  56.5975006  89.4675017   6.6719987  56.0425006  88.7945017
   6.9849987  57.6305006  89.4335017   8.9939987  56.5145006  88.8315017
   9.1479987  57.4745006  88.3425017   9.6149987  56.5275006  89.7255017
   9.4509987  55.4655006  87.9725017   9.7359987  54.6355006  88.6175017
   8.6029987  55.1215006  87.3875017  10.6169987  55.7885006  87.0105017
  10.3129987  56.1585006  86.0385017  11.3209987  56.5175006  87.4095017
  11.3079987  54.4745006  86.8935017  12.1049987  54.3015006  87.6005017
  11.0439987  53.5055006  86.0355017  11.6239987  52.5935006  86.0455017
   9.9719987  53.5325006  85.0005017   9.2039987  54.2575006  85.2645017
  10.3209987  53.8075006  84.0115017   9.3249987  52.1495006  84.9445017
   9.4249987  51.6135006  85.8875017   8.2569987  52.2195006  84.7475017
   9.9719987  51.3675006  83.8585017   9.9479987  51.9435006  82.9335017
  11.0219987  51.2095006  84.0905017   9.2809987  49.9935006  83.6245017
   9.8969987  49.3915006  82.9605017   9.2219987  49.4465006  84.5635017
   7.7789987  50.1555006  82.9995017   7.5809987  49.1895006  82.5395017
   7.1319987  50.2075006  83.8715017   7.3569987  51.3405006  81.9045017
   7.1339987  52.2485006  82.4615017   8.2349987  51.5645006  81.3015017
   6.2029987  51.0505006  80.9795017   6.2579987  50.0135006  80.6575017
   5.2939987  51.1285006  81.5725017   6.0689987  51.9635006  79.7455017
   5.1639987  51.7335006  79.1925017   6.9049987  51.8485006  79.0635017
   6.0219987  53.0095006  80.0365017  21.9949987  18.8775006  81.7315017
  21.4769987  19.2765006  80.8645017  21.8499987  17.8015006  81.7385017
  23.0569987  19.0655006  81.5965017  21.4339987  19.5745006  83.1515017
  20.3619987  19.3845006  83.1585017  21.5529987  20.6445006  83.0025017
  22.0149987  19.1705006  84.4735017  22.8339987  19.8475006  84.7165017
  22.4629987  18.1855006  84.3575017  21.0449987  19.1225006  85.6365017
  20.3289987  18.3115006  85.5245017  20.4559987  20.0345006  85.7235017
  21.8299987  18.9045006  86.9225017  22.7069987  19.5465006  86.9535017
  22.1989987  17.8805006  86.9635017  20.9769987  19.1785006  88.1475017
  20.1119987  18.5175006  88.1415017  20.5859987  20.1925006  88.0975017
  21.7439987  18.9965006  89.4635017  22.6089987  19.6525006  89.5405017
  22.1189987  17.9825006  89.5955017  20.7649987  19.3205006  90.5865017
  19.9259987  18.6425006  90.4315017  20.3959987  20.3185006  90.3585017
  21.1959987  19.2645006  92.0615017  21.3779987  18.2255006  92.3265017
  20.3589987  19.5935006  92.6765017  22.4279987  20.0955006  92.4025017
  22.2329987  21.1015006  92.0365017  23.2479987  19.7055006  91.8005017
  22.8629987  20.1465006  93.8775017  23.6809987  20.8605006  93.9455017
  23.2869987  19.1765006  94.1325017  21.8279987  20.5165006  94.8955017
  22.2079987  20.3715006  95.9045017  20.9579987  19.8695006  94.8025017
  21.3999987  21.9055006  94.7125017  20.9159987  22.0335006  93.7455017
  22.2359987  22.5995006  94.7285017  20.3869987  22.3105006  95.8105017
  19.4979987  21.7905006  95.4675017  20.2519987  23.3605006  95.5645017
  20.4869987  22.1845006  97.2455017  21.3859987  22.6685006  97.6065017
  20.5149987  21.1395006  97.5315017  19.2099987  22.3075006  97.9885017
  18.2029987  22.6005006  97.4995017  19.3219987  21.9035006  99.1695017
  18.0729987  21.9455006  99.8915017  17.5219987  22.7325006  99.3995017
  18.2409987  22.2225006 100.9225017  17.3279987  20.6585006  99.7995017
  16.5929987  20.5755006 100.5835017  18.3549987  19.5095006  99.9185017
  17.9879987  18.7975006 100.6455017  19.2699987  19.9505006 100.2955017
  18.5909987  18.8685006  98.6695017  19.0189987  17.3655006  98.6525017
  20.5359987  17.5025006  99.1375017  21.4589987  18.1785006  98.2865017
  21.1059987  19.1615006  98.0025017  21.5819987  17.6175006  97.3645017
  22.8759987  18.2545006  98.9075017  23.5549987  18.6575006  98.1665017
  23.2279987  17.2775006  99.2065017  23.0229987  19.1385006 100.1235017
  22.4549987  18.4845006 101.3215017  21.4519987  18.1535006 101.0915017
  22.4229987  19.2145006 102.1165017  23.0939987  17.6635006 101.6085017
  24.4559987  19.4485006 100.3995017  24.9139987  19.7955006  99.4855017
  24.9409987  18.5635006 100.7715017  24.4799987  20.2295006 101.1455017
  22.3409987  20.4575006  99.9655017  22.7479987  20.9675006  99.1055017
  22.5079987  21.0515006 100.8515017  21.2799987  20.3015006  99.8305017
  18.1869987  16.6735006  99.6655017  18.9579987  16.9135006  97.2545017
  16.6129987  20.6585006  98.5755017  15.6809987  19.8525006  98.7685017
  15.6269987  19.0695006  99.7165017  14.8659987  19.8675006  97.4835017
  14.4419987  18.8685006  97.4595017  14.0359987  20.5375006  97.6945017
  15.5509987  20.2345006  96.1555017  16.0789987  21.1495006  96.4025017
  16.3119987  19.4685006  96.0485017  14.8519987  20.4145006  94.8945017
  14.7689987  19.4865006  94.3335017  13.8349987  20.7605006  95.0595017
  15.5009987  21.3295006  94.1715017  14.7889987  21.8605006  93.5425017
  15.9579987  22.0785006  94.8135017  16.6149987  20.7055006  93.2425017
  17.4979987  20.5945006  93.8675017  16.2719987  19.6965006  93.0205017
  17.0099987  21.3975006  91.9135017  16.0089987  21.5255006  91.5035017
  17.3079987  22.3665006  92.3045017  17.9269987  21.0245006  90.8395017
  18.8909987  20.8055006  91.2845017  17.5669987  20.0895006  90.4125017
  18.0579987  22.0465006  89.7265017  18.6789987  22.8995006  89.9555017
  17.5209987  22.0035006  88.5345017  17.6479987  22.7495006  87.7635017
  16.7179987  20.9425006  88.1645017  16.3219987  20.4915006  89.0725017
  15.8599987  21.2845006  87.5965017  17.3929987  19.9465006  87.4365017
  18.4279987  20.0875006  87.7465017  17.0519987  19.0365006  87.9255017
  17.3389987  19.7645006  86.0055017  18.3009987  20.0435006  85.5745017
  17.1979987  18.7115006  85.7775017  16.2259987  20.5865006  85.3345017
  15.2109987  20.2315006  85.4945017  16.2139987  21.6525006  85.5545017
  16.5669987  20.4095006  84.0935017  16.6759987  19.3785006  83.7605017
  15.9819987  20.9085006  83.3255017  17.9579987  21.0265006  84.1725017
  18.5569987  20.5035006  84.9155017  18.4749987  20.8985006  83.2235017
  17.9399987  22.8945006  84.6075017  17.1849987  23.0965006  85.3635017
  18.8939987  23.1415006  85.0685017  17.6839987  23.9685006  83.2135017
  17.7719987  25.0095006  83.5085017  16.7009987  23.8365006  82.7755017
  18.4199987  23.7815006  82.4365017 101.9669987  32.1765006  79.6895017
 103.0179987  32.4095006  79.5515017 101.5699987  31.8555006  78.7305017
 101.9029987  31.3325006  80.3715017 100.9799987  33.7215006  80.3845017
 101.2249987  34.4775006  79.6405017 101.5719987  33.9565006  81.2645017
  99.3599987  33.8135006  80.7445017  99.1349987  33.3865006  81.7215017
  98.7659987  33.2515006  80.0265017  98.9549987  35.1085006  80.7185017
  98.0049987  35.1865006  80.1945017  99.6599987  35.7195006  80.1565017
  98.7809987  35.7165006  82.1855017  98.6979987  36.7505006  81.8605017
  99.8219987  35.5685006  82.4695017  97.8199987  35.4925006  83.5065017
  96.9249987  34.8875006  83.3755017  97.5089987  36.3795006  84.0545017
  98.7139987  34.8095006  84.2405017  99.6739987  35.3105006  84.3455017
  98.9309987  33.8135006  83.8575017  98.0869987  34.6945006  85.5475017
  97.4249987  33.8535006  85.7485017  97.6119987  35.5675006  85.9905017
  99.3729987  34.4625006  86.2015017 100.0959987  35.2045006  85.8705017
  99.7729987  33.4945006  85.9015017  99.2629987  34.5085006  87.6675017
  98.5859987  33.7395006  88.0335017  98.8549987  35.4605006  88.0045017
 100.6099987  34.3205006  88.2565017 101.2949987  35.0645006  87.8565017
 101.0189987  33.3515006  87.9765017 100.6019987  34.4405006  89.7515017
  99.8589987  33.7495006  90.1425017 100.2499987  35.4395006  90.0025017
 101.8939987  34.2195006  90.4115017 102.6579987  34.7295006  89.8275017
 102.1389987  33.1615006  90.3755017 101.9969987  34.6915006  91.8085017
 101.8299987  35.7635006  91.7995017 103.0309987  34.5375006  92.1055017
 101.0699987  34.0365006  92.8795017 101.1959987  32.9615006  92.8835017
 100.0319987  34.2645006  92.6695017 101.4409987  33.8005006  94.3035017
 101.0599987  32.8695006  94.9965017 102.4449987  34.5845006  94.4835017
 102.8319987  34.6635006  95.8315017 103.6489987  33.9885006  96.0275017
 101.9719987  34.3585006  96.4085017 103.2419987  36.1225006  96.1725017
 104.1099987  36.3945006  95.5955017 103.4939987  36.3755006  97.6775017
 103.8419987  37.3855006  97.8495017 104.2519987  35.6865006  98.0355017
 102.2499987  36.1465006  98.3445017 101.9889987  36.6795006  99.7845017
 101.0989987  37.9455006  99.5725017 100.0189987  38.0865006  98.6645017
  99.6459987  37.1785006  98.2025017 100.3569987  38.7445006  97.8805017
  98.8929987  38.8135006  99.4235017  99.2309987  39.8085006  99.6715017
  98.5769987  38.0945006 100.7035017  97.6709987  37.6645006 100.5075017
  99.3059987  37.4035006 100.9795017  98.4459987  38.7355006 101.4645017
  97.6379987  38.9785006  98.5595017 101.2049987  35.7245006 100.5765017
 103.2509987  37.1665006 100.3735017 102.1309987  36.9835006  95.8625017
 102.0499987  37.4765006  94.6585017 102.8659987  37.3245006  93.7655017
  96.6209987  38.2995006  98.8695017  97.7369987  39.7655006  97.5905017
 100.7989987  38.3645006  94.5855017 100.0739987  37.9055006  95.2495017
 101.0489987  39.3225006  95.0345017 100.2389987  38.5495006  93.1555017
  99.6939987  39.4865006  93.1095017 101.0599987  38.6445006  92.4515017
  99.3149987  37.4115006  92.7245017  99.8079987  36.4575006  92.8955017
  98.4369987  37.4185006  93.3665017  98.8499987  37.5125006  91.2505017
  99.7189987  37.5955006  90.6005017  98.3249987  36.6115006  90.9415017
  97.9349987  38.7355006  90.9985017  97.3199987  38.8905006  91.8825017
  98.5749987  39.6115006  90.9165017  97.0359987  38.6685006  89.7605017
  96.6059987  37.6695006  89.7155017  96.2039987  39.3555006  89.8905017
  97.7239987  38.9815006  88.4355017  98.5899987  38.3435006  88.3015017
  97.0479987  38.7575006  87.6115017  98.1049987  40.4355006  88.3635017
  97.6689987  41.1105006  89.0845017  98.9589987  40.9595006  87.4765017
  99.1769987  42.0175006  87.4985017  99.6909987  40.2045006  86.4005017
  99.2989987  39.1915006  86.3235017  99.5839987  40.6475006  85.4165017
 101.1929987  40.1155006  86.7635017 101.5929987  41.1275006  86.8065017
 101.2639987  39.7185006  87.7745017 102.0529987  39.2675006  85.8305017
 101.8559987  39.5145006  84.7875017 103.1119987  39.4505006  85.9905017
 101.7499987  37.7835006  86.0635017 102.1259987  37.5025006  87.0445017
 100.6709987  37.6395006  86.0975017 102.3389987  36.8795006  85.0075017
 103.4199987  37.0055006  84.9975017 102.1639987  35.8415006  85.2755017
 101.8229987  37.1485006  83.6005017 101.4599987  36.2545006  83.0965017
 101.0019987  37.8635006  83.5755017 102.9619987  37.7075006  82.8125017
 102.7259987  37.7635006  81.7525017 103.1499987  38.7315006  83.1285017
 104.2089987  36.9115006  83.0015017 105.0459987  37.3805006  82.4935017
 104.1119987  35.9055006  82.6075017 104.4639987  36.8295006  84.0545017
 102.2079987  55.8765006  80.3735017 102.0359987  55.9225006  79.3025017
 102.7279987  56.7845006  80.6645017 101.2389987  55.8805006  80.8645017
 103.0409987  54.5875006  80.7675017 103.9989987  54.5925006  80.2495017
 102.5169987  53.6975006  80.4305017 103.2949987  54.5125006  82.3355017
 102.3999987  54.9655006  82.7625017 104.0989987  55.2295006  82.4905017
 103.6339987  53.2165006  83.1165017 104.6059987  53.3835006  83.5745017
 103.7799987  52.4305006  82.3775017 102.6359987  52.7125006  84.2235017
 102.7739987  51.6495006  84.4055017 101.6119987  52.8325006  83.8745017
 102.8069987  53.4475006  85.5065017 103.0839987  54.4715006  85.2635017
 103.6619987  53.0155006  86.0215017 101.6019987  53.4605006  86.4525017
 101.3879987  52.4695006  86.8495017 100.6939987  53.7895006  85.9485017
 101.9079987  54.4075006  87.6035017 102.2009987  55.3765006  87.2025017
 102.7679987  54.0355006  88.1565017 100.7339987  54.5935006  88.5635017
 100.3189987  53.6225006  88.8245017  99.9359987  55.1395006  88.0625017
 101.1259987  55.3325006  89.8355017 101.6929987  56.2095006  89.5325017
 101.8199987  54.6945006  90.3815017  99.9819987  55.7435006  90.7655017
  99.2049987  54.9825006  90.7485017  99.5149987  56.6605006  90.4105017
 100.4409987  55.9385006  92.2295017  99.6539987  56.4675006  92.7615017
 101.3019987  56.6045006  92.2195017 100.8219987  54.6535006  92.9885017
 101.2349987  54.9285006  93.9575017 101.6099987  54.1235006  92.4605017
  99.6479987  53.6935006  93.2295017  99.0569987  53.6185006  92.3225017
  99.0049987  54.1315006  93.9885017 100.0559987  52.2775006  93.6885017
 100.6759987  52.3305006  94.5745017 100.6099987  51.7725006  92.9065017
 100.4509987  52.2715006  95.1655017  99.7749987  51.8185006  96.0655017
 101.5919987  52.9095006  95.3345017 102.0169987  52.9195006  96.7155017
 102.3509987  51.9185006  96.9425017 101.1989987  53.1765006  97.3725017
 103.1769987  53.9145006  96.8665017 103.9859987  53.6315006  96.2135017
 103.6939987  54.0365006  98.3245017 104.6389987  54.5615006  98.3475017
 103.8409987  53.0405006  98.7235017 102.7089987  54.7415006  99.0915017
 102.1609987  54.1175006 100.4405017 100.6919987  54.6965006 100.5395017
  99.5859987  54.0805006  99.8865017  99.0349987  53.3705006 100.4895017
  99.8909987  53.5505006  98.9885017  98.6709987  55.2155006  99.3945017
  98.7389987  55.9375006 100.1985017  97.6429987  54.8955006  99.3015017
  98.9879987  55.9895006  98.1105017  99.0739987  55.0965006  96.8955017
  99.7459987  54.2785006  97.1155017  99.4689987  55.6825006  96.0785017
  98.0829987  54.7475006  96.6455017  97.8299987  56.9125006  97.8885017
  97.6369987  57.4475006  98.8055017  96.9749987  56.3365006  97.5825017
  98.1129987  57.6045006  97.1085017 100.2359987  56.7955006  98.2835017
 100.1079987  57.4765006  99.1115017 100.4239987  57.3565006  97.3805017
 101.0679987  56.1345006  98.4785017 102.0629987  52.6415006 100.3445017
 103.0049987  54.7345006 101.4775017 102.6509987  55.1605006  96.3955017
 103.5519987  56.0705006  96.2845017 104.7599987  55.8955006  96.4105017
 102.6879987  57.3555006  95.9545017 101.6529987  57.0355006  95.8995017
 102.7429987  58.0415006  96.7955017 103.1279987  58.0025006  94.7165017
 104.1489987  58.2045006  95.0195017 103.1689987  57.1135006  94.0955017
 102.6009987  59.1965006  93.8885017 101.5669987  58.8945006  93.7435017
 102.5869987  59.9665006  94.6555017 103.1709987  59.8195006  92.5645017
 103.7599987  60.7235006  92.7035017 103.7649987  59.1645006  91.9315017
 102.0329987  60.1495006  91.9065017 101.3709987  60.5195006  92.6875017
 102.3209987  61.0185006  91.3175017 101.2589987  59.1745006  90.9995017
 101.8549987  58.8485006  90.1485017 100.9409987  58.2725006  91.5145017
 100.0569987  59.8905006  90.5105017  99.3869987  59.0435006  90.6035017
  99.9119987  60.4955006  91.4045017  99.7419987  60.6555006  89.4045017
  99.1909987  61.5795006  89.4955017 100.1169987  60.2935006  88.1845017
  99.6869987  61.0815006  87.5825017 100.8419987  59.3005006  87.4245017
 101.8839987  59.6075006  87.3545017 100.8429987  58.3355006  87.9185017
 100.3019987  59.1475006  86.0295017  99.2179987  59.2085006  86.1225017
 100.6119987  60.0475006  85.5025017 100.6659987  57.9485006  85.2115017
 101.4079987  58.1835006  84.4485017 101.0899987  57.1475006  85.8105017
  99.3919987  57.4575006  84.5365017  98.5769987  57.4055006  85.2555017
  99.0699987  58.1505006  83.7615017  99.6279987  56.0815006  83.9155017
 100.6989987  55.9745006  83.7565017  99.3609987  55.3295006  84.6525017
  98.9249987  55.7885006  82.5915017  97.8719987  55.5425006  82.7165017
  98.9589987  56.6305006  81.9025017  99.6269987  54.5985006  81.9375017
 100.6809987  54.8275006  81.7985017  99.5939987  53.7715006  82.6435017
  99.0629987  54.1625006  80.6875017  99.5589987  53.2645006  80.3335017
  99.1619987  54.9155006  79.9135017  98.0059987  53.9365006  80.7935017
  71.6839987 102.5275006  79.5045017  71.1329987 102.3065006  78.5955017
  71.4529987 103.5495006  79.7925017  71.3079987 101.8725006  80.2865017
  73.1239987 102.3445006  79.3115017  73.5619987 103.0005006  78.5615017
  73.4099987 101.3325006  79.0365017  73.6869987 102.6925006  80.6625017
  73.6709987 103.7745006  80.7915017  74.7349987 102.4015006  80.6875017
  72.9639987 102.0255006  81.8575017  72.7689987 100.9785006  81.6345017
  71.9909987 102.4845006  82.0245017  73.7869987 102.1065006  83.1395017
  73.8459987 103.1455006  83.4535017  74.8049987 101.8005006  82.9055017
  73.2609987 101.2625006  84.3095017  73.8749987 101.4625006  85.1855017
  73.4039987 100.2105006  84.0715017  71.7879987 101.5065006  84.6565017
  71.1579987 101.3165006  83.7895017  71.6299987 102.5505006  84.9245017
  71.3319987 100.6055006  85.8255017  71.7339987  99.6035006  85.6815017
  70.2489987 100.5055006  85.7985017  71.7589987 101.1295006  87.2105017
  71.3149987 102.1095006  87.3705017  72.8379987 101.2805006  87.2165017
  71.3699987 100.1965006  88.3735017  72.0109987 100.4555006  89.2135017
  71.6459987  99.1845006  88.0805017  69.8919987 100.2115006  88.8125017
  69.2919987  99.6815006  88.0755017  69.5169987 101.2335006  88.8285017
  69.6529987  99.5555006  90.2035017  69.9769987  98.5185006  90.1585017
  68.5809987  99.5315006  90.3885017  70.3419987 100.2785006  91.3845017
  70.2459987 101.3525006  91.2375017  71.4069987 100.0655006  91.3825017
  69.7599987  99.9335006  92.7765017  68.7079987 100.1985006  92.7895017
  70.2529987 100.5705006  93.5055017  69.9209987  98.4475006  93.2255017
  70.9619987  98.1505006  93.1885017  69.3499987  97.7935006  92.5775017
  69.5039987  98.1765006  94.6795017  68.9929987  98.9825006  95.4265017
  69.8449987  96.9245006  94.9975017  69.9159987  96.6565006  96.4155017
  69.1719987  95.9155006  96.6655017  69.6979987  97.5695006  96.9495017
  71.3209987  96.1385006  96.7625017  71.4529987  95.1365006  96.3895017
  71.5779987  96.1695006  98.2795017  72.3969987  95.4935006  98.4845017
  70.6789987  95.7755006  98.7375017  71.8629987  97.4565006  98.7835017
  70.9669987  98.1635006  99.8565017  71.4039987  99.6475006  99.6645017
  71.6899987 100.2045006  98.4005017  71.2259987 101.1755006  98.2865017
  71.2649987  99.5675006  97.6305017  73.2039987 100.2705006  98.0825017
  73.2579987 100.7955006  97.1375017  73.6769987  99.3055006  97.9715017
  74.0779987 101.0545006  99.0395017  74.2529987 100.2925006 100.3115017
  73.2779987  99.9985006 100.6745017  74.7269987 100.9465006 101.0285017
  74.8869987  99.4395006 100.1245017  75.3709987 101.3735006  98.4235017
  75.1899987 101.8085006  97.4525017  75.9559987 100.4745006  98.3495017
  75.8659987 102.0895006  99.0635017  73.5569987 102.4085006  99.2745017
  73.4899987 102.9325006  98.3325017  74.2279987 102.9365006  99.9355017
  72.5779987 102.3445006  99.7285017  69.5599987  97.9165006  99.4975017
  71.3829987  97.7285006 101.2045017  72.2549987  96.9955006  96.1365017
  73.3109987  96.3555006  95.7575017  73.5319987  95.1765006  95.7045017
  74.2559987  97.2975006  95.4055017  73.7929987  97.9925006  94.7135017
  74.5329987  97.8855006  96.2765017  75.5399987  96.5745006  94.7625017
  76.2999987  97.3455006  94.7035017  75.8859987  95.8685006  95.5105017
  75.4249987  95.8725006  93.3935017  76.4259987  95.9265006  92.9735017
  75.2589987  94.8285006  93.6495017  74.3259987  96.3145006  92.2755017
  74.4409987  95.4345006  91.6455017  73.4399987  96.1405006  92.8815017
  74.0609987  97.6025006  91.3135017  73.1489987  97.3525006  90.7745017
  73.7939987  98.3935006  92.0115017  75.1669987  98.1835006  90.2645017
  75.1239987  99.2715006  90.2895017  76.1629987  97.9085006  90.5995017
  75.0019987  97.7455006  88.9485017  73.9849987  97.3955006  88.8165017
  75.1209987  98.5995006  88.2835017  76.0179987  96.6625006  88.5455017
  76.5619987  96.1175006  89.3025017  76.2579987  96.3445006  87.2845017
  76.9639987  95.5765006  87.0035017  75.5749987  97.0095006  86.1165017
  75.2519987  98.0135006  86.3875017  76.2099987  97.1205006  85.2445017
  74.3459987  96.1985006  85.7465017  74.0819987  96.3995006  84.7085017
  74.5989987  95.1415006  85.7965017  73.1189987  96.4725006  86.6555017
  73.3409987  96.1855006  87.6835017  72.8869987  97.5335006  86.6795017
  71.8849987  95.6885006  86.1645017  71.8729987  95.7845006  85.0815017
  72.0739987  94.6375006  86.3745017  70.5019987  96.0865006  86.7465017
  70.5689987  96.0565006  87.8325017  70.2979987  97.1225006  86.4905017
  69.3119987  95.1895006  86.3165017  69.4889987  94.1735006  86.6635017
  68.4119987  95.5295006  86.8255017  69.0349987  95.1485006  84.8245017
  69.7919987  94.5245006  84.3555017  68.0959987  94.6135006  84.7055017
  68.9399987  96.4705006  84.0835017  68.6529987  96.3125006  83.0485017
  69.8849987  97.0025006  84.0815017  68.1969987  97.1195006  84.5375017
  10.0409987  70.4715006  81.4905017   9.8319987  70.6475006  80.4395017
  10.8699987  69.7725006  81.5515017  10.3709987  71.4115006  81.9235017
   8.7809987  69.9205006  82.2355017   8.4209987  68.9545006  81.8865017
   7.9199987  70.5835006  82.2395017   9.3139987  69.7735006  83.6035017
   9.7639987  70.7115006  83.9265017  10.1189987  69.0405006  83.5945017
   8.2929987  69.3445006  84.6085017   8.4399987  68.3245006  84.9565017
   7.2669987  69.3955006  84.2485017   8.4609987  70.2895006  85.7885017
   8.3649987  71.3075006  85.4185017   9.4869987  70.1865006  86.1365017
   7.5139987  70.1005006  86.9595017   6.5239987  70.4405006  86.6615017
   7.8289987  70.7555006  87.7685017   7.4209987  68.6705006  87.4775017
   8.4059987  68.2825006  87.7315017   7.0179987  68.0045006  86.7155017
   6.5219987  68.6215006  88.7195017   6.3109987  67.5815006  88.9635017
   5.5629987  69.0785006  88.4825017   7.1249987  69.3185006  89.9485017
   6.4089987  69.2265006  90.7625017   7.1919987  70.3825006  89.7225017
   8.4939987  68.8135006  90.4175017   8.7499987  69.3495006  91.3285017
   9.2339987  69.1065006  89.6725017   8.5889987  67.3025006  90.6545017
   9.6299987  66.9855006  90.6435017   8.0959987  66.7505006  89.8555017
   7.9719987  66.8965006  92.0095017   6.8919987  66.8625006  91.8885017
   8.1729987  67.7005006  92.7155017   8.4699987  65.5995006  92.6005017
   8.7119987  64.8405006  91.8585017   7.8089987  65.1225006  93.3185017
   9.6669987  65.9695006  93.2515017  10.2559987  66.5095006  92.5175017
  10.1859987  65.0345006  93.4455017   9.6119987  66.8745006  94.7055017
   9.0009987  66.3705006  95.4425017   9.1959987  67.8575006  94.5225017
  10.9419987  67.4625006  95.9025017  12.2929987  67.1785006  95.9425017
  10.5819987  67.9075006  96.6615017  11.8889987  68.1405006  97.4835017
  12.7149987  68.1775006  96.7895017  12.0999987  67.4025006  98.2445017
  11.6889987  69.3275006  98.0195017  12.5299987  69.8105006  98.4875017
  10.6149987  69.0035006  99.0775017  10.3279987  69.9365006  99.5435017
  11.1089987  68.3845006  99.8155017   9.4629987  68.3305006  98.5515017
   8.0569987  68.4905006  99.1715017   7.9459987  70.0895006  99.3015017
   8.1169987  70.9085006  98.1485017   7.5439987  70.5435006  97.3065017
   9.1589987  70.8885006  97.8435017   7.8039987  72.3995006  98.4305017
   6.7289987  72.4665006  98.5375017   8.1039987  72.9815006  97.5715017
   8.3909987  73.1185006  99.6525017   9.7859987  72.6375006  99.8725017
   9.7799987  71.5565006  99.8895017  10.1219987  73.0145006 100.8275017
  10.4179987  73.0245006  99.0875017   8.3319987  74.5855006  99.4225017
   7.3319987  74.8435006  99.1085017   9.0589987  74.8535006  98.6775017
   8.5619987  75.0695006 100.3605017   7.5709987  72.8385006 100.8535017
   6.5569987  73.1625006 100.6745017   7.9799987  73.3765006 101.6955017
   7.5849987  71.7785006 101.0605017   7.0279987  67.9675006  98.2485017
   8.1819987  67.8265006 100.4875017  11.3089987  70.2115006  96.9475017
  12.2369987  70.8345006  96.2745017  13.3539987  71.1165006  96.6565017
  11.6339987  71.2765006  94.9515017  11.1879987  70.3995006  94.4935017
  10.8119987  71.9615006  95.1455017  12.6819987  71.9185006  94.0525017
  13.0339987  72.8315006  94.5195017  13.5469987  71.2665006  93.9785017
  12.1569987  72.2415006  92.6595017  11.1149987  72.5325006  92.7635017
  12.6879987  73.1305006  92.3285017  12.2969987  71.1475006  91.5705017
  13.3259987  70.7985006  91.5075017  11.6909987  70.2705006  91.7845017
  11.8889987  71.7115006  90.1905017  12.6019987  72.4745006  89.8865017
  11.9659987  70.9145006  89.4535017  10.4629987  72.2945006  90.1395017
   9.7679987  71.5195006  90.4585017  10.3779987  73.0995006  90.8645017
  10.0299987  72.8305006  88.7505017  10.2039987  72.0315006  88.0385017
   8.9509987  72.9695006  88.7975017  10.6649987  74.1245006  88.2855017
  10.5129987  74.9875006  88.9155017  11.4049987  74.2985006  87.1795017
  11.8139987  75.2715006  86.9465017  11.7499987  73.2325006  86.1775017
  12.6489987  73.5295006  85.6395017  11.9779987  72.2835006  86.6495017
  10.6289987  73.0365006  85.1625017  10.4209987  71.9785006  85.0095017
   9.7039987  73.4765006  85.5305017  10.9819987  73.6565006  83.8815017
  11.0999987  74.7195006  84.0905017  11.9709987  73.2845006  83.6275017
  10.0309987  73.4765006  82.6605017   9.7269987  72.4325006  82.6865017
   9.1399987  74.0585006  82.8895017  10.5419987  73.8535006  81.2125017
   9.6619987  73.5925006  80.6285017  10.5369987  74.9375006  81.2895017
  11.7169987  73.4115006  80.4735017  12.6299987  73.4875006  81.0625017
  11.6419987  72.3705006  80.1655017  11.8869987  74.3565006  79.1065017
  12.9169987  74.0735006  78.9065017  11.2759987  73.7115006  78.4795017
  11.6379987  75.9915006  78.6265017  11.8209987  76.1135006  77.5635017
  12.2999987  76.6735006  79.1505017  10.6169987  76.3055006  78.8245017
  52.3149987   5.3635006  80.7395017  53.1539987   5.7165006  80.1475017
  52.6779987   4.5735006  81.3905017  51.9869987   6.1845006  81.3705017
  51.2229987   4.8875006  79.8845017  51.4839987   4.0395006  79.2535017
  50.8109987   5.6455006  79.2235017  50.2349987   4.4775006  80.8405017
  50.4139987   3.4325006  81.0915017  49.2659987   4.5065006  80.3475017
  50.1469987   5.3155006  82.1555017  51.1139987   5.1615006  82.6295017
  49.4219987   4.7835006  82.7705017  49.8209987   6.8355006  82.1735017
  49.1409987   7.0525006  81.3535017  50.7419987   7.3735006  81.9565017
  49.2249987   7.3645006  83.4565017  48.2499987   6.9025006  83.6025017
  49.0419987   8.4305006  83.3405017  50.0859987   7.1325006  84.7005017
  51.0359987   7.6585006  84.6215017  50.3309987   6.0775006  84.8145017
  49.3449987   7.6155006  85.9455017  48.3529987   7.1665006  85.9535017
  49.1919987   8.6895006  85.8625017  50.0479987   7.3075006  87.2665017
  50.5529987   8.1985006  87.6325017  50.8259987   6.5625006  87.1065017
  49.0739987   6.7995006  88.3365017  49.6609987   6.5885006  89.2275017
  48.6839987   5.8415006  87.9935017  47.9089987   7.7185006  88.6845017
  47.2069987   7.1785006  89.3165017  47.3619987   7.9795006  87.7795017
  48.3229987   8.9985006  89.4095017  47.4239987   9.6075006  89.4685017
  48.9959987   9.5145006  88.7265017  48.9969987   8.9125006  90.7935017
  49.1279987   9.9205006  91.1835017  49.9939987   8.4895006  90.7025017
  48.2109987   8.1125006  91.8185017  47.9329987   7.2025006  91.2975017
  47.2999987   8.6915006  91.9485017  48.7599987   7.7535006  93.1975017
  49.0749987   8.6455006  93.7235017  49.6089987   7.0865006  93.1035017
  48.9529987   8.9175006  94.1425017  48.2059987   9.2115006  95.0665017
  50.0569987   9.5485006  93.7955017  50.4869987  10.5465006  94.7225017
  49.6159987  11.1115006  95.0185017  51.1659987  11.1965006  94.1895017
  51.1779987   9.9235006  95.9745017  50.5779987   9.1215006  96.3715017
  51.3679987  11.0165006  97.0475017  50.3909987  11.2215006  97.4645017
  51.7039987  11.8915006  96.5045017  52.2929987  10.6875006  98.0825017
  51.8449987   9.9005006  99.3835017  50.8289987   8.7965006  98.8535017
  49.8979987   8.1085006  99.7005017  48.9319987   7.9905006  99.2275017
  49.7309987   8.6905006 100.6025017  50.4529987   6.7305006 100.1975017
  49.7389987   6.3355006 100.9085017  51.3889987   6.9075006 100.7075017
  50.7249987   5.5905006  99.1995017  49.5169987   5.3805006  98.3465017
  48.6539987   5.2745006  98.9895017  49.6619987   4.4725006  97.7805017
  49.4159987   6.2165006  97.6705017  51.8889987   5.9675006  98.3265017
  52.6999987   6.2955006  98.9585017  51.5819987   6.7425006  97.6475017
  52.1809987   5.0835006  97.7775017  51.0199987   4.3225006  99.9675017
  51.8709987   4.4865006 100.6115017  51.2419987   3.5285006  99.2695017
  50.1589987   4.0515006 100.5615017  53.0119987   9.1675006  99.9365017
  51.0379987  10.7445006 100.2955017  52.4699987   9.4245006  95.6255017
  52.5039987   8.1465006  95.4465017  51.5689987   7.3605006  95.4015017
  53.9239987   7.7695006  95.3135017  54.3849987   8.3735006  94.5385017
  54.4759987   7.9835006  96.2255017  53.9679987   6.3315006  94.9915017
  55.0019987   6.0095006  95.0435017  53.4449987   5.7865006  95.7705017
  53.3999987   5.9615006  93.6335017  53.2849987   4.8815006  93.5975017
  52.3959987   6.3755006  93.5825017  54.1769987   6.4375006  92.4355017
  54.2449987   7.5235006  92.4255017  55.1999987   6.0685006  92.4275017
  53.4779987   5.9865006  91.1495017  53.6809987   4.9205006  91.0695017
  52.4149987   6.0775006  91.3665017  53.7649987   6.6675006  89.7875017
  53.1929987   7.5935006  89.7705017  54.8129987   6.9535006  89.7685017
  53.4409987   5.8195006  88.4645017  53.1669987   4.9035006  88.9745017
  52.5069987   6.3225006  88.2145017  54.1999987   5.5235006  87.1665017
  54.6099987   4.5305006  87.2735017  54.4409987   6.1615006  86.0175017
  55.0429987   5.6685006  85.2675017  53.9929987   7.4355006  85.6445017
  53.9799987   7.4365006  84.5555017  52.9619987   7.5455006  85.9605017
  54.7519987   8.5755006  86.0865017  54.5859987   9.0005006  87.0755017
  55.8269987   8.6025006  85.9215017  54.0449987   9.4645006  85.0115017
  54.7309987  10.2975006  84.8545017  54.0709987   8.8735006  84.1005017
  52.5969987  10.0225006  85.2305017  52.0049987   9.4905006  84.4895017
  52.3019987   9.6225006  86.1995017  52.2689987  11.5405006  85.1815017
  52.5479987  12.0115006  86.1225017  52.8579987  12.0365006  84.4145017
  50.8209987  11.7945006  84.9555017  50.1889987  11.3045006  85.6935017
  50.5719987  12.8535006  85.0005017  50.4599987  11.2825006  83.6105017
  50.7159987  10.2305006  83.5065017  49.3809987  11.3375006  83.4875017
  51.1199987  12.0765006  82.4935017  50.7709987  11.7385006  81.5225017
  52.1999987  11.9725006  82.5055017  50.8899987  13.1345006  82.5775017
  90.9029987  75.6175006  79.0865017  90.2619987  76.3015006  78.5385017
  90.3659987  74.6805006  79.2025017  91.7779987  75.4215006  78.4725017
  91.3109987  76.2095006  80.4725017  90.3429987  76.4245006  80.9225017
  91.7339987  77.1685006  80.1845017  92.1109987  75.6015006  81.3985017
  93.0729987  75.2745006  81.0055017  91.6529987  74.7205006  81.8445017
  92.3439987  76.6475006  82.5095017  92.4649987  77.5905006  81.9815017
  93.3199987  76.4105006  82.9305017  91.3289987  76.8505006  83.6555017
  90.7589987  75.9395006  83.8215017  90.6069987  77.6145006  83.3705017
  92.0069987  77.2605006  84.9725017  92.4879987  78.2225006  84.8065017
  92.8079987  76.5495006  85.1625017  91.1269987  77.3495006  86.1825017
  90.5249987  76.4445006  86.1255017  90.4569987  78.1755006  85.9485017
  91.6449987  77.5125006  87.5835017  92.4299987  78.2675006  87.5515017
  92.1319987  76.5785006  87.8585017  90.6239987  77.8895006  88.6675017
  89.9279987  78.5975006  88.2225017  91.1609987  78.4365006  89.4415017
  89.8339987  76.7355006  89.3165017  89.4329987  76.0975006  88.5315017
  88.9739987  77.1445006  89.8465017  90.6419987  75.9365006  90.2505017
  91.0879987  76.6205006  90.9695017  91.4709987  75.4975006  89.6975017
  89.9369987  74.8745006  90.9945017  90.2579987  73.8635006  90.7535017
  88.8569987  74.8895006  90.8645017  90.2489987  75.1865006  92.4175017
  89.6779987  74.4705006  93.0065017  89.8219987  76.1625006  92.6285017
  91.6389987  75.1585006  92.8925017  91.6659987  75.0335006  93.9705017
  92.1079987  76.1145006  92.6755017  92.4489987  74.0735006  92.2505017
  92.4089987  74.1585006  91.1715017  92.0699987  73.0995006  92.5365017
  93.5739987  74.4555006  93.1395017  93.6989987  73.8015006  94.1415017
  94.3079987  75.4815006  92.8335017  95.4509987  75.5265006  93.7475017
  96.3429987  75.4995006  93.1425017  95.4179987  74.6455006  94.3715017
  95.4199987  76.7825006  94.5835017  96.4389987  77.0265006  94.8345017
  94.5389987  76.8375006  95.8275017  94.9269987  76.1005006  96.5175017
  93.5589987  76.5125006  95.4955017  94.4609987  78.1145006  96.4445017
  93.9209987  78.5125006  97.8495017  93.1549987  77.1715006  98.2055017
  93.0929987  76.7495006  99.5815017  92.1249987  76.3905006  99.9135017
  93.3429987  77.6205006 100.1665017  94.1629987  75.7115006  99.8335017
  95.1299987  76.1295006  99.5955017  93.9239987  74.5445006  98.9285017
  93.5829987  73.8245006  99.5675017  93.2589987  74.7515006  98.1545017
  94.7799987  74.2075006  98.5275017  94.1299987  75.3615006 101.3295017
  95.0419987  78.6645006  98.8065017  92.9599987  79.6165006  97.7225017
  94.9119987  77.7585006  93.6695017  95.8529987  77.9725006  92.9385017
  97.0249987  77.7765006  93.3375017  93.9189987  74.1525006 101.6435017
  94.2639987  76.2935006 102.1605017  95.1429987  78.8845006  91.7345017
  94.3949987  79.5005006  92.2225017  95.8899987  79.5735006  91.3485017
  94.5849987  78.0965006  90.6905017  93.7659987  77.4875006  91.0575017
  94.1709987  78.7115006  89.8975017  95.6669987  77.1885006  90.1275017
  96.5219987  77.7045006  89.6975017  96.0699987  76.4905006  90.8565017
  94.9639987  76.4265006  89.0885017  94.4089987  75.6225006  89.5695017
  94.2239987  77.0565006  88.6005017  95.8579987  75.8225006  88.0365017
  95.2949987  75.4165006  87.1985017  96.5339987  76.5645006  87.6165017
  96.6609987  74.7485006  88.6525017  97.2119987  75.1575006  89.4975017
  96.0099987  73.9775006  89.0555017  97.6189987  74.1145006  87.6985017
  97.6379987  73.0785006  88.0165017  97.0789987  74.1355006  86.7525017
  98.9809987  74.6255006  87.4735017  99.6389987  74.5745006  88.3275017
  99.4789987  75.1165006  86.3635017 100.5019987  75.4585006  86.2955017
  98.7089987  75.2505006  85.0965017  99.1619987  74.6665006  84.2975017
  97.6749987  74.9285006  85.1595017  98.7579987  76.7185006  84.6995017
  98.2239987  77.3295006  85.4265017  99.7879987  77.0695006  84.7065017
  98.1649987  76.9395006  83.3205017  98.4529987  77.9225006  82.9475017
  98.5679987  76.2175006  82.6155017  96.6399987  76.8355006  83.3395017
  96.3619987  75.8625006  82.9395017  96.3019987  76.8475006  84.3745017
  95.9469987  77.9095006  82.5865017  94.8849987  78.0005006  82.8085017
  96.3609987  78.9075006  82.7015017  96.0769987  77.4785006  81.2255017
  97.1059987  77.4955006  80.8705017  95.7199987  76.4625006  81.0685017
  95.3559987  78.2995006  80.4705017  94.3089987  78.1375006  80.2255017
  95.4789987  79.3775006  80.5435017  96.4349987  77.6615006  79.0635017
  96.2179987  78.1915006  78.1405017  96.2749987  76.6045006  78.8765017
  97.4889987  77.8015006  79.2855017  38.5269987  12.0065006  80.0085017
  39.3969987  11.9575006  79.3615017  38.7019987  12.7905006  80.7395017
  37.6789987  12.3085006  79.3995017  38.2459987  10.5685006  80.7375017
  39.1899987  10.3575006  81.2375017  38.1869987   9.8835006  79.8965017
  36.9779987  10.2835006  81.8055017  36.0699987  10.6525006  81.3285017
  37.1499987  10.9275006  82.6655017  36.7519987   8.9325006  82.2815017
  36.2099987   8.3155006  81.5675017  36.1909987   8.8795006  83.2135017
  38.0719987   8.3605006  82.4815017  38.9019987   9.0615006  82.5165017
  38.3579987   7.5825006  81.7755017  37.8989987   7.7795006  83.7805017
  37.3189987   8.4825006  84.3755017  38.8809987   7.7255006  84.2455017
  37.2239987   6.3755006  83.8395017  37.8489987   5.6215006  83.3655017
  36.2789987   6.3725006  83.2975017  36.9729987   5.9815006  85.2865017
  36.3939987   6.8375006  85.6305017  37.9709987   6.1015006  85.7045017
  36.3769987   4.7565006  85.8095017  37.0459987   3.9305006  85.5785017
  35.4569987   4.5655006  85.2585017  36.0639987   4.7605006  87.3635017
  35.2829987   4.0135006  87.4905017  35.5969987   5.7255006  87.5565017
  37.1709987   4.5315006  88.3755017  37.9579987   5.2465006  88.1445017
  37.5909987   3.5465006  88.1795017  36.8329987   4.6495006  89.8685017
  37.7909987   4.7405006  90.3745017  36.4339987   3.6765006  90.1475017
  35.8529987   5.7525006  90.3725017  34.8379987   5.3825006  90.2395017
  35.9429987   6.6295006  89.7375017  36.0109987   6.1715006  91.8195017
  35.1209987   6.7295006  92.0905017  36.8409987   6.8735006  91.8415017
  36.2579987   5.1085006  92.8475017  37.1239987   4.5165006  92.5795017
  35.3989987   4.4525006  92.9265017  36.2849987   5.6665006  94.2775017
  35.9869987   5.0125006  95.2575017  36.7159987   6.9405006  94.3185017
  36.4719987   7.7185006  95.5065017  37.4189987   7.8145006  96.0155017
  35.7549987   7.2665006  96.1765017  35.9819987   9.1005006  95.0235017
  36.6639987   9.4365006  94.2605017  35.9129987  10.1495006  96.1705017
  35.4879987  11.0595006  95.7675017  36.9369987  10.3455006  96.4645017
  35.1439987   9.6915006  97.3015017  34.9049987  10.6685006  98.5465017
  35.1159987   9.7105006  99.7735017  34.6919987   8.3705006  99.7555017
  33.8169987   8.2125006  99.1375017  34.4239987   8.0475006 100.7575017
  35.8489987   7.4415006  99.3265017  35.9829987   7.6225006  98.2675017
  35.5969987   6.4005006  99.4715017  37.2329987   7.6325006  99.9605017
  37.1149987   7.7875006 101.4375017  36.3819987   8.5545006 101.6465017
  38.0779987   8.0925006 101.8185017  36.8389987   6.8365006 101.8685017
  38.0289987   6.4025006  99.6515017  37.9539987   6.2025006  98.5935017
  37.6489987   5.5825006 100.2345017  39.0559987   6.6065006  99.9185017
  37.9669987   8.8155006  99.3775017  38.0739987   8.6775006  98.3115017
  38.9429987   8.8875006  99.8335017  37.4089987   9.7195006  99.5755017
  36.0159987  11.6445006  98.5555017  33.5199987  11.1775006  98.5225017
  34.6949987   8.9215006  94.4185017  34.1629987   9.9755006  93.8345017
  34.7469987  10.9705006  93.4485017  32.6539987   9.7795006  93.7825017
  32.3169987   9.6915006  94.8105017  32.2009987  10.6895006  93.3975017
  32.2489987   8.5585006  92.9375017  32.7099987   7.6615006  93.3365017
  31.1769987   8.3935006  92.9875017  32.6799987   8.7375006  91.4775017
  32.5489987   9.7785006  91.1935017  33.7469987   8.5385006  91.4145017
  31.9559987   7.8295006  90.4855017  32.4969987   6.8905006  90.3815017
  30.9599987   7.5685006  90.8355017  31.8409987   8.4745006  89.1045017
  30.8769987   8.1965006  88.6835017  31.8069987   9.5515006  89.2545017
  32.9539987   8.1535006  88.0885017  32.9879987   7.0665006  88.0405017
  32.5889987   8.4915006  87.1225017  34.3829987   8.6995006  88.2945017
  34.8359987   8.2945006  89.1915017  35.0279987   8.4075006  87.4665017
  34.3209987  10.1995006  88.3495017  33.6529987  10.5285006  89.1315017
  34.9379987  11.1525006  87.6305017  34.7649987  12.2015006  87.8225017
  35.9129987  10.8855006  86.5155017  36.8429987  11.3885006  86.7755017
  36.1439987   9.8275006  86.4665017  35.4709987  11.3785006  85.1245017
  35.3599987  12.4605006  85.1785017  36.2979987  11.1915006  84.4425017
  34.1839987  10.7575006  84.5425017  34.2659987   9.6705006  84.5345017
  33.3299987  10.9935006  85.1715017  33.9289987  11.2375006  83.1635017
  33.6169987  12.2775006  83.2285017  34.8739987  11.2375006  82.6225017
  32.9149987  10.4455006  82.3885017  33.1999987   9.4125006  82.1965017
  31.9179987  10.4035006  82.8195017  32.8769987  11.1405006  81.1185017
  32.4249987  12.0945006  81.3815017  33.9289987  11.3465006  80.9295017
  32.2869987  10.6785006  79.9155017  31.2019987  10.7155006  79.9695017
  32.5659987  11.3475006  79.1035017  32.7409987   9.2275006  79.5495017
  32.3449987   8.9325006  78.5825017  32.3979987   8.4995006  80.2765017
  33.8239987   9.1585006  79.4995017  55.7359987  98.4905006  81.0175017
  56.4859987  97.7485006  81.2715017  56.2549987  99.3895006  80.6975017
  55.1739987  98.1145006  80.1665017  54.8449987  98.7665006  82.1615017
  55.4169987  99.1305006  83.0135017  54.3579987  97.8525006  82.4895017
  53.8109987  99.7985006  81.7815017  53.3309987  99.4815006  80.8555017
  54.3349987 100.7235006  81.5475017  52.7639987 100.0935006  82.8025017
  52.2469987  99.1885006  83.1135017  51.9949987 100.7655006  82.4245017
  53.4189987 100.7135006  84.0105017  54.3549987 100.2335006  84.2845017
  52.7839987 100.6715006  84.8935017  53.6649987 102.0065006  83.6985017
  52.7539987 102.4015006  83.2535017  54.4129987 102.0035006  82.9085017
  54.1199987 102.9315006  84.8165017  53.2009987 103.0055006  85.3955017
  54.2109987 103.8685006  84.2695017  55.2219987 102.7965006  85.7025017
  56.1239987 102.9115006  85.1035017  55.2209987 101.7665006  86.0545017
  55.2909987 103.7405006  86.9055017  54.6359987 103.4665006  87.7295017
  55.0679987 104.7815006  86.6735017  56.7419987 103.6255006  87.3545017
  57.3059987 104.3025006  86.7165017  57.0639987 102.6185006  87.0905017
  57.0759987 103.8905006  88.8225017  56.9549987 104.9565006  89.0035017
  58.1319987 103.6755006  88.9795017  56.2569987 103.1385006  89.8445017
  56.3449987 102.0625006  89.7145017  55.1989987 103.3715006  89.7445017
  56.7179987 103.5415006  91.2605017  56.8159987 104.6245006  91.3115017
  57.7029987 103.1365006  91.4755017  55.7499987 103.1045006  92.3575017
  54.9129987 103.7935006  92.3995017  56.2619987 103.1725006  93.3135017
  55.2209987 101.6795006  92.1895017  56.0409987 100.9775006  92.1115017
  54.6139987 101.6055006  91.2955017  54.0359987 101.4425006  93.1005017
  52.9049987 101.8635006  92.9175017  54.4879987 100.7545006  94.1105017
  53.6109987 100.5565006  95.2025017  53.1079987  99.6205006  95.0145017
  52.8869987 101.3585006  95.1755017  54.3339987 100.5105006  96.5665017
  53.6709987 100.1345006  97.3285017  54.8089987 101.9395006  96.9395017
  53.9609987 102.5065006  97.2985017  55.1729987 102.3995006  96.0295017
  55.8439987 101.9045006  97.9295017  57.0299987 102.9825006  97.8815017
  58.1249987 102.2635006  98.7735017  58.5609987 100.9205006  98.5935017
  59.5369987 100.8565006  98.1305017  57.8739987 100.3905006  97.9405017
  58.5289987 100.1365006  99.9455017  59.3529987 100.5075006 100.5425017
  58.6649987  99.0765006  99.7865017  57.2919987 100.2725006 100.8175017
  56.0949987  99.9985006  99.9765017  56.1509987 100.6105006  99.0865017
  55.2179987 100.2655006 100.5475017  56.0659987  98.9455006  99.7405017
  57.3099987  99.2935006 101.9335017  58.2669987  99.3555006 102.4285017
  57.1349987  98.3085006 101.5395017  56.5199987  99.5685006 102.6175017
  57.1669987 101.6385006 101.4515017  58.0449987 101.8345006 102.0495017
  56.2889987 101.6595006 102.0795017  57.0759987 102.3875006 100.6785017
  57.5399987 103.1255006  96.5025017  56.5679987 104.1875006  98.5975017
  55.4699987  99.6515006  96.4775017  55.3099987  98.3965006  96.6765017
  54.3169987  97.8065006  97.0595017  56.6869987  97.7675006  96.4795017
  57.2679987  98.0805006  97.3415017  56.5639987  96.6915006  96.5785017
  57.3769987  98.1225006  95.1675017  57.1619987  97.3695006  94.4175017
  56.9949987  99.0575006  94.7715017  58.8579987  98.2175006  95.3545017
  59.0309987  99.1425006  95.8985017  59.1089987  97.4115006  96.0405017
  59.7829987  98.1385006  94.1575017  60.7699987  97.8015006  94.4695017
  59.4329987  97.4165006  93.4235017  59.9179987  99.3665006  93.5455017
  58.9739987  99.8115006  93.2375017  60.4069987 100.1035006  94.1795017
  60.7289987  99.1425006  92.4005017  61.5939987  98.5085006  92.5905017
  60.2119987  98.7085006  91.5495017  61.1789987 100.4695006  92.0405017
  61.4679987 101.0505006  92.9085017  62.0549987 100.4255006  91.3955017
  60.0369987 101.1515006  91.2725017  59.8069987 102.0425006  91.8375017
  59.2929987 100.9245006  90.1105017  58.5799987 101.7295006  90.0035017
  59.2259987  99.8595006  88.9705017  60.2329987  99.4475006  88.9505017
  58.5809987  99.0685006  89.3375017  58.8299987 100.2145006  87.5505017
  58.8539987  99.3255006  86.9215017  57.7999987 100.5675006  87.5385017
  59.7339987 101.2865006  86.9515017  59.1939987 102.2305006  86.8735017
  60.5849987 101.4755006  87.6005017  60.2209987 100.8855006  85.5975017
  61.2389987 101.2375006  85.4495017  60.2589987  99.8005006  85.5115017
  59.3349987 101.4315006  84.5335017  58.4989987 100.7625006  84.3365017
  58.8929987 102.3825006  84.8185017  60.1189987 101.5885006  83.2475017
  61.0679987 102.0855006  83.4395017  60.3679987 100.6115006  82.8355017
  59.2789987 102.4685006  82.0715017  58.2349987 102.2605006  82.2925017
  59.4509987 103.4935006  82.3925017  59.5139987 102.3795006  80.5125017
  58.9059987 103.1105006  79.9885017  59.2569987 101.4015006  80.1185017
  60.5529987 102.5735006  80.2625017  16.7309987  34.2805006  78.2615017
  15.8299987  34.7925006  77.9375017  16.9969987  33.5605006  77.4935017
  17.5289987  35.0165006  78.3135017  16.5039987  33.5255006  79.7535017
  15.6349987  32.9015006  79.5535017  16.1499987  34.3565006  80.3575017
  17.5239987  32.7225006  80.5225017  18.5019987  33.1845006  80.3895017
  17.5909987  31.7385006  80.0625017  17.2599987  32.5485006  81.9625017
  18.1809987  32.2915006  82.4805017  16.5759987  31.7185006  82.1335017
  16.7059987  33.7685006  82.5665017  15.6209987  33.7475006  82.6355017
  16.9579987  34.6565006  81.9895017  17.2789987  33.8965006  83.9475017
  16.8809987  34.7625006  84.4735017  18.3599987  34.0215006  83.9295017
  16.9289987  32.6205006  84.7335017  17.4939987  31.7785006  84.3385017
  15.8779987  32.3755006  84.5885017  17.2119987  32.7615006  86.2255017
  18.2829987  32.8975006  86.3705017  16.9539987  31.8295006  86.7245017
  16.4629987  33.9135006  86.8915017  15.3879987  33.7785006  86.7965017
  16.6949987  34.8575006  86.4005017  16.8309987  34.0115006  88.3695017
  16.6899987  35.0285006  88.7285017  17.8849987  33.7785006  88.5185017
  15.9799987  33.0415006  89.1945017  16.1599987  32.0185006  88.8725017
  14.9179987  33.2255006  89.0375017  16.2899987  33.1375006  90.6695017
  16.2339987  34.1785006  90.9775017  17.3209987  32.8285006  90.8295017
  15.3779987  32.2755006  91.5515017  15.6419987  32.4735006  92.5885017
  15.6039987  31.2275006  91.3755017  13.9179987  32.4875006  91.4025017
  13.6999987  32.4345006  90.3405017  13.7359987  33.5135006  91.7105017
  12.9539987  31.5745006  92.1595017  13.1749987  31.5855006  93.2195017
  13.0359987  30.5565006  91.7975017  13.1049987  31.5755006  93.6745017
  13.8859987  32.1425006  94.4225017  12.1209987  30.8615006  94.0345017
  12.0779987  30.8005006  95.4335017  11.0739987  31.1805006  95.5345017
  12.7789987  31.5505006  95.7695017  12.2269987  29.6045006  96.1685017
  11.7619987  28.8055006  95.6165017  11.8269987  29.5275006  97.6805017
  11.6739987  28.4935006  97.9585017  10.8869987  30.0565006  97.7995017
  12.8209987  30.1095006  98.4665017  13.0519987  29.5715006  99.9245017
  13.6669987  30.9175006 100.4055017  14.9049987  31.3835006  99.9265017
  15.4669987  30.6985006  99.3015017  15.4809987  31.5675006 100.8195017
  14.7099987  32.7385006  99.2135017  14.3209987  33.4365006  99.9405017
  13.7469987  32.6565006  98.0915017  14.3469987  32.7275006  97.2685017
  13.1719987  31.7885006  98.1035017  13.1269987  33.4455006  98.0785017
  16.1119987  33.2425006  98.7915017  11.7819987  29.3175006 100.6255017
  14.0629987  28.5285006  99.7265017  13.5449987  29.4855006  95.8915017
  13.8039987  28.3915006  95.3965017  13.1139987  27.3945006  95.3815017
  16.2949987  33.6925006  97.6355017  17.0359987  33.1285006  99.6395017
  15.2499987  28.5195006  95.0455017  15.6919987  29.1115006  95.8395017
  15.6959987  27.5315006  95.1275017  15.5099987  29.1295006  93.6615017
  14.8609987  29.9815006  93.4905017  16.5249987  29.5035006  93.5775017
  15.2529987  28.0835006  92.5835017  15.7449987  27.1545006  92.8585017
  14.1879987  27.8675006  92.5645017  15.6849987  28.5095006  91.1945017
  15.0439987  29.2885006  90.7865017  16.7009987  28.8955006  91.1465017
  15.5829987  27.3105006  90.3145017  16.2509987  26.5285006  90.6685017
  14.5759987  26.9025006  90.3795017  15.8819987  27.6055006  88.8975017
  16.9449987  27.8315006  88.9695017  15.8079987  26.6155006  88.4555017
  15.2199987  28.6015006  87.9685017  15.4099987  29.5935006  88.3625017
  15.7419987  28.5455006  87.0145017  13.9039987  28.4085006  87.7515017
  13.9099987  27.8025006  86.8585017  12.7689987  28.6965006  88.2495017
  11.9509987  28.2545006  87.6985017  12.3549987  29.4805006  89.3885017
  11.6929987  28.9895006  90.0995017  13.0859987  30.0225006  89.9785017
  11.5539987  30.4395006  88.5975017  10.6359987  30.0045006  88.2035017
  11.2519987  31.3055006  89.1825017  12.4359987  30.8985006  87.4415017
  13.4619987  30.6515006  87.7145017  12.1909987  30.2755006  86.5855017
  12.3699987  32.2325006  87.0755017  11.3209987  32.4735006  87.2315017
  12.9189987  32.7395006  87.8675017  12.8289987  32.7635006  85.7295017
  12.3639987  33.7435006  85.6415017  13.8939987  32.9485006  85.8435017
  12.5709987  32.0145006  84.4535017  13.0549987  31.0475006  84.5785017
  11.5009987  31.8165006  84.4445017  12.9619987  32.5745006  83.1205017
  14.0349987  32.7455006  83.0995017  12.7699987  31.8055006  82.3755017
  12.2309987  33.8595006  82.7025017  12.5059987  34.1485006  81.6925017
  12.4689987  34.6925006  83.3555017  11.1539987  33.7205006  82.7245017
   6.9959987  84.7575006  83.5045017   7.1269987  85.0165006  82.4585017
   7.8109987  85.2095006  84.0625017   6.0709987  85.2155006  83.8445017
   6.9669987  83.3845006  83.6835017   7.8919987  82.9375006  83.3235017
   6.1669987  82.9485006  83.0905017   6.7859987  83.0455006  85.1065017
   6.4969987  81.9945006  85.1025017   5.8969987  83.6005006  85.3985017
   7.8699987  83.2685006  86.1685017   7.4089987  83.1245006  87.1435017
   8.1759987  84.3125006  86.1315017   9.0759987  82.3975006  86.0785017
   9.8659987  82.6955006  86.7635017   9.5149987  82.4085006  85.0825017
   8.6409987  80.9915006  86.4155017   9.4819987  80.3415006  86.1815017
   7.8519987  80.7325006  85.7135017   8.1609987  80.7055006  87.8435017
   7.2239987  81.2255006  88.0335017   8.8779987  81.0985006  88.5635017
   7.9659987  79.2045006  88.0905017   8.8889987  78.6625006  87.8885017
   7.2199987  78.7995006  87.4095017   7.5259987  78.9355006  89.5445017
   7.3679987  77.8625006  89.6305017   6.5469987  79.3975006  89.6675017
   8.4669987  79.4125006  90.6915017   8.7849987  80.4235006  90.4475017
   9.3639987  78.7945006  90.6585017   7.8759987  79.3735006  92.1175017
   7.6569987  78.3395006  92.3755017   6.9209987  79.8965006  92.1275017
   8.7949987  79.9665006  93.2145017   9.6499987  79.3055006  93.3305017
   8.2509987  79.9275006  94.1565017   9.2669987  81.4015006  92.9815017
   8.4269987  82.0635006  92.7765017   9.9399987  81.4925006  92.1335017
   9.9719987  81.9115006  94.2325017  10.9199987  81.4015006  94.3675017
   9.3649987  81.6825006  95.1045017  10.2089987  83.3885006  94.1915017
   9.2789987  83.9165006  94.0235017  10.8999987  83.6375006  93.3945017
   8.9439987  83.9845006  94.5635017   8.1919987  84.2925006  93.6725017
   9.0469987  84.4945006  95.7925017   8.0209987  85.4125006  96.2125017
   7.8139987  86.0205006  95.3445017   8.3469987  86.0505006  97.0215017
   6.8189987  84.6425006  96.5975017   5.9749987  85.2855006  96.7865017
   7.0929987  83.7385006  97.8515017   6.1519987  83.4145006  98.2755017
   7.6139987  84.3425006  98.5845017   7.8849987  82.6155006  97.4805017
   7.3989987  81.1525006  97.7745017   7.6999987  80.9895006  99.3245017
   8.8819987  81.4515006  99.9475017   8.7519987  81.8175006 100.9575017
   9.3439987  82.2575006  99.3855017   9.8969987  80.2965006  99.9045017
  10.8289987  80.6565006 100.3225017  10.0659987  80.0055006  98.8775017
   9.5749987  79.0075006 100.6575017   9.1019987  79.3425006 102.0295017
   9.8159987  80.0135006 102.4865017   9.0489987  78.4255006 102.5975017
   8.1189987  79.7845006 101.9635017   8.5299987  78.1965006  99.9485017
   8.8189987  78.0935006  98.9135017   7.5789987  78.6895006 100.0435017
   8.4979987  77.2265006 100.4225017  10.8309987  78.2185006 100.7155017
  11.1779987  78.0285006  99.7105017  10.6379987  77.2815006 101.2155017
  11.5799987  78.7725006 101.2625017   5.9309987  81.0815006  97.5885017
   8.2369987  80.1775006  97.0445017   6.5079987  83.9185006  95.4035017
   5.3929987  83.4095006  95.5035017   4.6109987  83.8455006  96.3565017
   5.2619987  82.4305006  94.2065017   5.8279987  83.0405006  93.5105017
   5.9339987  81.6345006  94.5185017   3.9879987  81.8595006  93.5655017
   3.7179987  81.3575006  94.4885017   3.5039987  82.8305006  93.5995017
   3.4759987  81.0885006  92.4335017   3.8619987  80.0745006  92.3665017
   2.3919987  81.0005006  92.4335017   3.8909987  81.8755006  91.2315017
   3.1619987  82.6355006  90.9565017   4.8419987  82.3915006  91.3365017
   3.9949987  80.8935006  90.1055017   4.6619987  81.2645006  89.3295017
   4.4339987  79.9645006  90.4635017   2.6629987  80.5925006  89.5095017
   2.1129987  80.0215006  90.2565017   2.1349987  81.5345006  89.3935017
   2.6269987  79.8295006  88.1475017   3.1009987  78.8705006  88.3225017
   1.5769987  79.6215006  87.9485017   3.2289987  80.5275006  86.9225017
   2.7569987  81.4965006  86.8725017   4.1149987  80.2505006  86.0065017
   4.3729987  80.9335006  85.2105017   4.8549987  78.9795006  85.9705017
   5.8869987  79.2675006  85.7795017   4.8359987  78.5645006  86.9725017
   4.4889987  77.9565006  85.0215017   5.3819987  77.3325006  84.9995017
   3.7409987  77.3955006  85.5785017   3.9719987  78.1885006  83.5465017
   3.2519987  77.4345006  83.2275017   3.4869987  79.1505006  83.4055017
   5.1609987  78.1115006  82.6935017   5.8049987  78.9635006  82.8985017
   5.7399987  77.2245006  82.9465017   4.8089987  78.0735006  81.2315017
   4.2699987  77.1565006  81.0025017   4.1349987  78.8865006  80.9755017
   6.0459987  78.1235006  80.3445017   6.5889987  77.1865006  80.4535017
   5.7229987  78.1665006  79.3055017   7.0139987  79.2775006  80.5985017
   6.4969987  80.2175006  80.7735017   7.5919987  79.0855006  81.4995017
   7.9839987  79.4385006  79.4145017   8.7289987  80.1985006  79.6275017
   7.4699987  79.7335006  78.5065017   8.5079987  78.5095006  79.2105017
 100.4249987  25.2175006  83.1135017 100.6469987  24.7425006  82.1635017
  99.7189987  26.0215006  82.9245017  99.9269987  24.4835006  83.7415017
 101.5659987  25.6885006  83.7145017 102.0969987  26.4725006  83.1775017
 102.3089987  24.9385006  83.9725017 100.9849987  26.2445006  84.9125017
 101.7459987  26.7535006  85.5035017 100.6019987  25.4425006  85.5405017
  99.8409987  27.2175006  84.6155017  98.9309987  26.6735006  84.3725017
 100.0619987  27.8375006  83.7485017  99.5719987  28.0975006  85.8005017
  98.8549987  28.8665006  85.5265017 100.4909987  28.6175006  86.0645017
  99.0539987  27.3535006  87.0125017  99.8589987  27.0245006  87.6675017
  98.4989987  26.4585006  86.7395017  98.1349987  28.3005006  87.7795017
  97.1799987  28.3625006  87.2605017  98.5609987  29.3025006  87.7535017
  97.8929987  27.8915006  89.2345017  97.3439987  28.7015006  89.7135017
  98.8619987  27.8485006  89.7275017  97.1569987  26.5835006  89.4635017
  97.7649987  25.8005006  89.0145017  96.2419987  26.6325006  88.8745017
  96.8169987  26.2005006  90.8775017  96.3989987  25.1965006  90.8875017
  96.0369987  26.8605006  91.2575017  98.0149987  26.2705006  91.7935017
  98.3729987  27.2935006  91.8905017  98.8529987  25.6925006  91.4095017
  97.6449987  25.7585006  93.1795017  97.6829987  24.6715006  93.1715017
  96.6079987  26.0255006  93.3765017  98.5259987  26.3145006  94.3265017
  98.5769987  27.4015006  94.3095017  99.5529987  25.9615006  94.2985017
  97.8859987  25.8905006  95.6595017  97.8689987  24.8055006  95.6485017
  96.8529987  26.2215006  95.5905017  98.4629987  26.3705006  96.9925017
  98.5209987  27.4515006  97.0135017  99.4569987  25.9665006  97.1405017
  99.9149987  25.9785006  96.9885017 100.3659987  24.8445006  96.9075017
 100.5179987  27.0815006  96.8775017 101.8489987  27.0815006  96.5025017
 101.8479987  26.2655006  95.7975017 102.6169987  26.9125006  97.2415017
 102.0729987  28.4385006  95.7635017 103.1239987  28.4225006  95.5285017
 101.7339987  29.6565006  96.5105017 102.2729987  30.5245006  96.1535017
 101.9499987  29.5305006  97.5665017 100.3569987  29.8055006  96.3025017
  99.6139987  30.4715006  97.4765017  99.7199987  29.3375006  98.5755017
  99.0279987  29.4665006  99.7985017  98.0649987  29.9635006  99.7445017
  99.6719987  30.0565006 100.4315017  98.8869987  28.0625006 100.4545017
  98.4849987  27.3575006  99.7425017  97.9029987  28.2015006 101.5845017
  98.4949987  28.1355006 102.4145017  97.3519987  29.0845006 101.5455017
  97.2619987  27.4305006 101.6125017 100.2239987  27.4445006 100.9245017
 100.3769987  31.6345006  97.9745017  98.1889987  30.6375006  97.1175017
 101.4209987  28.2785006  94.5115017 101.9389987  29.0665006  93.6705017
 102.9879987  29.6895006  93.7805017 100.4009987  27.3405006 102.1695017
 100.9879987  26.9385006 100.0665017 101.0509987  28.8765006  92.5425017
 100.5699987  27.9105006  92.6575017 100.2519987  29.6125006  92.5755017
 101.7799987  28.9665006  91.3245017 100.8959987  28.9445006  90.6965017
 102.0319987  30.0145006  91.4515017 102.8219987  28.3045006  90.6715017
 103.6029987  28.1035006  91.3995017 102.4409987  27.3345006  90.3615017
 103.4249987  29.0245006  89.4245017 103.3449987  30.1045006  89.5315017
 104.4829987  28.8095006  89.2965017 102.6799987  28.6105006  88.1555017
 102.6979987  27.5225006  88.1685017 101.6489987  28.8985006  88.3495017
 103.0609987  29.0925006  86.8055017 103.6369987  28.2345006  86.4615017
 102.1029987  29.0435006  86.2955017 103.6949987  30.2385006  86.4325017
 104.3309987  30.7165006  87.1685017 104.2789987  30.1805006  85.5145017
 102.4549987  31.0625006  86.1655017 102.9439987  31.6675006  86.9145017
 101.3609987  31.4845006  85.7135017 100.6539987  32.2455006  86.0125017
 101.0099987  30.8145006  84.5835017 101.5559987  29.8885006  84.4115017
  99.9629987  30.5855006  84.4155017 101.4199987  31.7185006  83.6775017
 100.9579987  32.7045006  83.6525017 102.4879987  31.8805006  83.5445017
 100.8959987  30.8865006  82.5265017 101.5859987  30.2075006  82.0265017
  99.9689987  30.3355006  82.6575017 100.6899987  31.8815006  81.7915017
 100.1359987  32.5895006  82.4045017 101.6639987  32.3325006  81.6105017
  99.6709987  31.5885006  79.8915017  99.9239987  30.5915006  79.5355017
  98.6009987  31.5725006  80.0825017 100.0909987  32.9035006  78.4105017
 100.6949987  33.6535006  78.9195017 100.7769987  32.3405006  77.7805017
  99.4159987  33.3835006  77.8075017  98.4059987  33.6975006  78.0575017
  99.6759987  33.9205006  76.8975017  99.4239987  31.9995006  77.5345017
  98.7809987  31.7695006  76.6905017  99.0719987  31.4175006  78.3795017
 100.4249987  31.6555006  77.2905017 103.8079987  61.4375006  82.4535017
 104.0039987  60.4155006  82.1435017 103.1999987  61.9065006  81.6845017
 103.2149987  61.3995006  83.3635017 105.1069987  62.2075006  82.6765017
 105.6889987  62.2045006  81.7565017 105.7049987  61.6845006  83.4175017
 104.8719987  63.6405006  83.1135017 103.8329987  63.7725006  83.4135017
 105.0269987  64.3045006  82.2655017 105.7669987  64.0795006  84.2285017
 106.7219987  64.3405006  83.7775017 105.9569987  63.2095006  84.8555017
 105.3319987  65.1795006  85.0565017 104.9819987  65.9975006  84.4315017
 106.1839987  65.5635006  85.6145017 104.1219987  64.7585006  86.1235017
 104.6859987  64.1275006  86.8085017 103.5429987  64.0845006  85.4965017
 103.1159987  65.6955006  86.9675017 103.1129987  66.6575006  86.4575017
 103.6039987  65.8615006  87.9275017 101.7159987  65.2585006  87.1985017
 101.6819987  64.3295006  87.7655017 101.2039987  65.0595006  86.2585017
 100.9959987  66.2945006  87.9285017 100.9069987  67.1695006  87.2885017
 101.6019987  66.6025006  88.7795017  99.5859987  65.8765006  88.4275017
  98.9929987  65.8695006  87.5155017  99.2529987  66.7405006  89.0015017
  99.3189987  64.5985006  89.2375017 100.0059987  64.5405006  90.0795017
  99.5049987  63.7115006  88.6335017  97.8629987  64.5485006  89.7885017
  97.1609987  64.9195006  89.0465017  97.7679987  65.2045006  90.6515017
  97.4939987  63.1735006  90.1965017  97.7129987  62.4945006  89.3745017
  96.4229987  63.1075006  90.3685017  98.2289987  62.6665006  91.4335017
  98.0909987  63.3105006  92.2955017  99.2999987  62.5995006  91.2585017
  97.6949987  61.2515006  91.7645017  97.7919987  60.5995006  90.9055017
  96.6499987  61.2995006  92.0485017  98.2119987  60.6725006  93.0615017
  98.3019987  59.4825006  93.3015017  98.5529987  61.6735006  93.7975017
  99.0409987  61.4365006  95.1165017  98.7909987  60.3945006  95.2185017
  98.5149987  61.9975006  95.8755017 100.5569987  61.6345006  95.2365017
 101.0429987  60.8815006  94.6375017 101.0259987  61.5145006  96.7315017
 102.0629987  61.2095006  96.7315017 100.4399987  60.7345006  97.1945017
 100.8409987  62.7305006  97.4615017 101.6149987  63.0045006  98.8275017
 100.6359987  64.0735006  99.4965017  99.2449987  64.1825006  99.2015017
  99.0369987  63.4785006  98.4055017  98.9819987  65.1775006  98.8655017
  98.3979987  63.8425006 100.4355017  98.7079987  64.4565006 101.2675017
  97.3559987  64.0345006 100.2185017  98.5689987  62.4145006 100.8895017
  98.4819987  61.7605006 100.1295017  99.5859987  62.3635006 101.2815017
  97.9119987  62.1645006 101.6085017 101.4849987  61.7595006  99.6265017
 102.9369987  63.5835006  98.5665017 100.8329987  62.8625006  94.5775017
 102.0509987  63.3545006  94.6105017 103.0069987  62.9535006  95.2185017
 102.1289987  64.4905006  93.6355017 101.0849987  64.7205006  93.4505017
 102.5189987  65.3235006  94.2145017 102.9259987  64.3045006  92.3145017
 102.5709987  65.0505006  91.6115017 103.9649987  64.5475006  92.5105017
 102.8319987  62.9605006  91.6865017 102.9699987  62.2075006  92.4575017
 101.8149987  62.8385006  91.3225017 103.8319987  62.6995006  90.4875017
 103.5909987  63.4765006  89.7645017 104.8199987  62.9385006  90.8725017
 103.8999987  61.3515006  89.7465017 104.6009987  61.3045006  88.9155017
 104.1249987  60.4965006  90.3815017 102.4909987  61.2055006  89.2215017
 102.5589987  60.3495006  88.5515017 101.9129987  60.8775006  90.0805017
 101.6929987  62.3935006  88.4875017 100.6139987  62.3265006  88.5625017
 101.9649987  63.3855006  88.8465017 102.1549987  62.2555006  87.0325017
 103.2119987  62.2765006  86.8115017 101.2699987  62.0845006  85.9385017
 101.8039987  62.0105006  85.0025017  99.6369987  61.9725006  85.7895017
  99.5039987  61.3685006  84.8935017  99.2999987  61.3615006  86.6195017
  98.7649987  63.1755006  85.6745017  97.6899987  63.0035006  85.6515017
  98.9309987  63.9585006  86.4115017  99.2159987  63.6505006  84.3525017
 100.2879987  63.8445006  84.3835017  99.0689987  62.8725006  83.6085017
  98.5189987  64.8645006  83.9305017  97.4549987  64.7575006  84.1305017
  98.8569987  65.7115006  84.5255017  98.7339987  65.1545006  82.5135017
  98.8809987  64.2575006  81.9145017  97.9169987  65.6945006  82.0435017
  99.9239987  65.9215006  82.4485017 100.7269987  65.3545006  82.9155017
 100.2029987  66.0335006  81.4025017  99.8689987  67.4355006  83.1465017
  98.8609987  67.7775006  82.9265017  99.8739987  67.1895006  84.2065017
 100.9239987  68.6525006  82.8855017 100.7059987  69.4965006  83.5325017
 100.8859987  69.0095006  81.8615017 101.9429987  68.3355006  83.0875017
   2.9959987  41.5995006  80.5465017   3.1789987  42.3545006  79.7885017
   1.9759987  41.7235006  80.8985017   3.0619987  40.6265006  80.0665017
   3.9799987  41.7115006  81.6795017   3.9219987  42.6845006  82.1645017
   5.0019987  41.6075006  81.3265017   3.6779987  40.6715006  82.6535017
   4.5949987  40.1595006  82.9465017   3.0479987  39.9165006  82.1875017
   3.0159987  41.1555006  83.8205017   2.7889987  40.2965006  84.4475017
   2.0559987  41.5715006  83.5205017   3.7439987  42.1435006  84.6245017
   3.1219987  42.6065006  85.3865017   4.1339987  42.9555006  84.0135017
   4.8639987  41.4485006  85.2805017   5.7929987  41.4835006  84.7135017
   4.6699987  40.3975006  85.4805017   5.0499987  42.1765006  86.5855017
   4.0699987  42.3315006  87.0335017   5.4469987  43.1675006  86.3715017
   5.9509987  41.4835006  87.5825017   5.6529987  40.4355006  87.5895017
   5.6899987  41.8805006  88.5615017   7.4519987  41.5755006  87.3895017
   7.7629987  42.5495006  87.0165017   7.8229987  40.8435006  86.6735017
   8.0989987  41.3245006  88.7455017   7.7229987  40.3935006  89.1635017
   7.8129987  42.1105006  89.4445017   9.6149987  41.2735006  88.6435017
  10.0109987  42.2055006  88.2465017   9.9499987  40.4905006  87.9655017
  10.2139987  41.0445006  89.9985017  11.1719987  40.5295006  90.0075017
   9.5729987  40.5065006  90.6945017  10.3779987  42.4345006  90.4845017
   9.4149987  42.9395006  90.5315017  11.0019987  43.0305006  89.8245017
  10.9369987  42.4445006  91.7775017  11.2539987  43.4495006  92.0345017
  11.8289987  41.8245006  91.7755017   9.9449987  41.9035006  92.9045017
   9.5889987  40.9125006  92.6525017   9.0919987  42.5645006  93.0055017
  10.2209987  42.0015006  94.5095017  10.6569987  41.2125006  95.3655017
  10.1669987  43.2385006  94.7555017  10.7949987  43.4335006  96.0435017
  11.8349987  43.1625006  95.9775017  10.3239987  42.8295006  96.8065017
  10.6539987  44.9205006  96.3575017  11.4609987  45.4565006  95.8835017
  10.7339987  45.1015006  97.9125017  10.8399987  46.1595006  98.1105017
  11.6309987  44.5995006  98.2445017   9.5919987  44.5435006  98.6165017
   9.1539987  45.1645006 100.0265017   7.8069987  45.9725006  99.6955017
   7.3279987  46.2945006  98.3865017   8.2099987  46.4515006  97.7775017
   6.7479987  47.2085006  98.4025017   6.4589987  45.1685006  97.7755017
   6.2359987  45.4175006  96.7495017   7.0219987  44.2455006  97.8055017
   5.1249987  44.9735006  98.4525017   5.2109987  44.9175006  99.4535017
   4.5469987  45.8635006  98.1995017   4.6489987  44.1515006  98.1225017
   8.6949987  44.1175006 100.9625017  10.2239987  46.1115006 100.4295017
   9.3899987  45.4565006  95.8925017   9.2599987  46.0125006  94.6935017
  10.1339987  46.2405006  93.8815017   7.7649987  46.2925006  94.4375017
   7.2789987  46.4355006  95.3965017   7.6479987  47.2315006  93.9015017
   7.1479987  45.1215006  93.6475017   7.8929987  44.8025006  92.9265017
   7.0239987  44.2935006  94.3375017   5.8189987  45.3945006  92.9135017
   4.9829987  45.4805006  93.6025017   5.8639987  46.3365006  92.3715017
   5.5559987  44.2545006  91.9005017   6.5319987  44.0185006  91.4795017
   5.2579987  43.3855006  92.4815017   4.5729987  44.4405006  90.7555017
   4.5639987  43.5515006  90.1275017   3.5679987  44.5345006  91.1625017
   4.8629987  45.6505006  89.9045017   4.1479987  45.5205006  89.0935017
   4.4879987  46.4655006  90.5175017   6.2109987  46.0575006  89.3255017
   6.8839987  46.1085006  90.1735017   6.5329987  45.2045006  88.7295017
   6.3099987  47.3235006  88.4635017   6.4319987  48.2525006  89.0005017
   6.2739987  47.3925006  87.1145017   6.3429987  48.3265006  86.5755017
   6.1389987  46.1715006  86.2235017   5.9499987  45.3185006  86.8735017
   5.2659987  46.2675006  85.5865017   7.3369987  45.8615006  85.3815017
   7.6969987  46.7645006  84.8905017   8.1509987  45.5175006  86.0165017
   7.0309987  44.7795006  84.3145017   6.9329987  43.8075006  84.7985017
   6.0739987  44.9815006  83.8425017   8.0849987  44.7035006  83.2785017
   8.0849987  43.7635006  82.7305017   8.0249987  45.4915006  82.5305017
   9.3709987  44.8485006  84.0495017   9.7949987  45.8505006  84.0395017
   9.3339987  44.5525006  85.0945017  10.2289987  44.0155006  83.3505017
  11.1179987  43.6615006  83.8695017   9.7929987  43.1425006  82.8685017
  10.6179987  44.9065006  82.3725017   9.9639987  44.9925006  81.5085017
  10.7649987  45.9215006  82.7355017  11.7739987  44.4235006  81.9965017
  12.2509987  45.0815006  81.2765017  11.6739987  43.4495006  81.5295017
  12.4459987  44.3165006  82.8435017  67.5879987 103.3745006  81.0375017
  68.2859987 103.4315006  80.2085017  67.2819987 104.3875006  81.2835017
  66.7079987 102.8395006  80.6915017  68.2079987 102.6865006  82.2305017
  69.1029987 103.2365006  82.5175017  68.5429987 101.7015006  81.9155017
  67.2979987 102.5665006  83.4225017  67.8589987 102.2795006  84.3115017
  66.5689987 101.7755006  83.2585017  66.5409987 103.8795006  83.7005017
  65.8269987 104.0175006  82.8915017  67.2509987 104.7005006  83.6185017
  65.7859987 103.9855006  85.0515017  66.5409987 104.0685006  85.8285017
  65.2999987 103.0225006  85.1995017  64.7459987 105.1175006  85.2395017
  63.8709987 104.9095006  84.6265017  65.1599987 106.0545006  84.8715017
  64.3059987 105.2975006  86.7185017  63.3729987 105.8575006  86.6935017
  65.0429987 105.9545006  87.1775017  64.1229987 104.0395006  87.6015017
  65.0399987 103.4515006  87.6205017  63.3539987 103.3905006  87.1865017
  63.7359987 104.4275006  89.0465017  62.7599987 104.9075006  89.0235017
  64.4369987 105.1825006  89.3995017  63.7049987 103.2535006  90.0495017
  62.8789987 102.6165006  89.7415017  63.4209987 103.6785006  91.0115017
  64.9819987 102.4125006  90.2255017  65.1049987 101.7975006  89.3365017
  64.8339987 101.7215006  91.0535017  66.2699987 103.1955006  90.4495017
  66.5219987 103.8095006  89.5885017  67.1139987 102.5255006  90.6025017
  66.1089987 104.0805006  91.7035017  65.6219987 103.5245006  92.5025017
  65.4859987 104.9495006  91.5145017  67.4729987 104.5465006  92.2165017
  67.7839987 105.3655006  91.5755017  68.1549987 103.7225006  92.0265017
  67.6179987 104.9745006  93.6955017  67.2809987 104.1835006  94.3535017
  67.0299987 105.8635006  93.8905017  67.0769987 106.3315006  93.9775017
  66.3869987 106.8555006  93.1505017  67.5469987 106.7665006  95.1485017
  67.0269987 107.9115006  95.8355017  67.1259987 108.7245006  95.1325017
  67.7049987 108.0735006  96.6605017  65.4819987 107.8015006  96.3605017
  65.3169987 108.7075006  96.9195017  65.3119987 106.6395006  97.2345017
  64.3669987 106.6805006  97.7585017  66.1119987 106.6215006  97.9635017
  65.3709987 105.4955006  96.4125017  65.3589987 104.0935006  97.0545017
  65.3079987 104.4885006  98.5825017  66.3869987 104.3625006  99.4695017
  67.3519987 104.3265006  98.9815017  66.3029987 103.4505006 100.0535017
  66.3289987 105.5105006 100.4995017  66.2769987 106.4285006  99.9275017
  67.2179987 105.5335006 101.1125017  65.1499987 105.5575006 101.4685017
  63.8909987 105.9655006 100.7375017  64.0939987 106.8685006 100.1785017
  63.1249987 106.1585006 101.4745017  63.5799987 105.1545006 100.0955017
  65.0229987 104.1915006 102.0855017  65.9919987 103.8885006 102.4505017
  64.6489987 103.5055006 101.3465017  64.3259987 104.2715006 102.9075017
  65.3949987 106.4955006 102.6005017  66.2859987 106.1905006 103.1285017
  64.5499987 106.4705006 103.2715017  65.5219987 107.4975006 102.2175017
  64.0739987 103.4135006  96.7825017  66.6219987 103.4085006  96.7135017
  64.4619987 107.6305006  95.3195017  63.2149987 108.0415006  95.4315017
  62.6889987 108.5565006  96.4135017  62.4679987 107.8615006  94.1375017
  61.4209987 107.7425006  94.3955017  62.5309987 108.7865006  93.5695017
  62.9999987 106.6675006  93.3165017  63.8879987 106.9995006  92.7895017
  63.3309987 105.8985006  94.0075017  62.0089987 106.0695006  92.3055017
  62.4369987 105.1505006  91.9135017  61.1199987 105.7775006  92.8595017
  61.5809987 106.9985006  91.1375017  60.9889987 106.3595006  90.4845017
  60.8879987 107.7175006  91.5675017  62.5919987 107.7405006  90.2885017
  63.0509987 108.5225006  90.8895017  63.3909987 107.0475006  90.0315017
  62.0329987 108.3565006  88.9855017  61.3429987 107.6565006  88.5185017
  61.4599987 109.2545006  89.2005017  63.1339987 108.7065006  88.0025017
  63.5369987 107.8595006  87.4595017  62.8259987 109.4335006  87.2515017
  64.1609987 109.3235006  88.8635017  63.6829987 110.1185006  89.4145017
  65.4509987 109.1175006  89.0965017  65.9179987 109.7655006  89.8245017
  66.3659987 108.1155006  88.5055017  67.2289987 108.2555006  89.1535017
  65.9019987 107.1855006  88.8145017  66.8789987 107.9775006  87.0255017
  67.2659987 106.9605006  86.9685017  65.9659987 107.9885006  86.4325017
  67.9119987 108.9645006  86.3955017  67.6999987 109.9545006  86.7995017
  68.8969987 108.6905006  86.7635017  67.9419987 109.0415006  84.8285017
  68.8189987 109.6595006  84.6515017  68.2219987 108.0275006  84.5475017
  66.8389987 109.4875006  83.9815017  66.0149987 109.0755006  84.5605017
  66.8719987 110.5455006  84.2245017  66.5359987 109.3145006  82.6065017
  66.1169987 110.1685006  82.0775017  67.3289987 108.9255006  81.9705017
  65.4559987 108.2485006  82.7375017  65.9079987 107.3395006  83.1245017
  64.7719987 108.5915006  83.5105017  64.7099987 107.9445006  81.5715017
  63.9139987 107.2405006  81.7955017  65.3279987 107.5005006  80.7985017
  64.2539987 108.8385006  81.1555017  39.6259987   3.6795006  81.6845017
  40.2349987   3.7575006  80.7895017  39.3829987   4.6875006  82.0085017
  38.6959987   3.1895006  81.4095017  40.3569987   2.8975006  82.7935017
  41.2939987   3.4275006  82.9535017  40.6189987   1.9445006  82.3425017
  39.6939987   2.6785006  84.0955017  40.3449987   2.1925006  84.8215017
  38.8179987   2.0395006  84.0005017  39.2609987   3.9955006  84.6305017
  38.7579987   3.8065006  85.5765017  38.5009987   4.3945006  83.9605017
  40.3719987   5.0795006  84.8605017  40.7739987   5.3085006  83.8765017
  41.1639987   4.5635006  85.4015017  40.0349987   6.4135006  85.5915017
  39.3549987   6.9405006  84.9245017  40.9629987   6.9815006  85.5915017
  39.4509987   6.4035006  87.0005017  40.2999987   6.2715006  87.6685017
  38.8649987   5.4875006  87.0685017  38.5869987   7.6055006  87.4965017
  37.7459987   7.6865006  86.8085017  39.1879987   8.5005006  87.3485017
  38.0629987   7.5825006  88.9325017  37.3709987   6.7485006  89.0315017
  37.4769987   8.4855006  89.0985017  39.1389987   7.4765006  90.0075017
  39.9499987   8.1595006  89.7645017  39.5679987   6.4745006  89.9885017
  38.6179987   7.7665006  91.3925017  38.1109987   6.8415006  91.6605017
  37.8339987   8.5015006  91.2175017  39.4529987   8.2025006  92.5585017
  38.8409987   8.2135006  93.4565017  39.7749987   9.2295006  92.3975017
  40.6969987   7.3255006  92.7765017  41.1919987   7.7315006  93.6575017
  41.3649987   7.5105006  91.9395017  40.5469987   5.7945006  92.9755017
  41.5179987   5.3435006  93.1525017  40.1579987   5.3555006  92.0605017
  39.6009987   5.4295006  94.1335017  38.6339987   5.8965006  93.9945017
  40.0149987   5.7615006  95.0785017  39.4839987   3.9165006  94.3445017
  38.9659987   3.1255006  93.5845017  40.0779987   3.6045006  95.4965017
  40.1579987   2.1965006  95.8235017  40.4669987   1.6765006  94.9325017
  39.1769987   1.8455006  96.1105017  41.1909987   1.9705006  96.9695017
  41.0859987   0.9495006  97.2995017  40.8639987   2.9335006  98.1285017
  39.7919987   2.9765006  98.2675017  41.2159987   3.9215006  97.8695017
  41.5209987   2.5045006  99.3095017  42.2539987   3.5455006 100.2265017
  43.6459987   3.6455006  99.4565017  44.2629987   4.8915006  99.1965017
  45.1659987   4.9395006  99.7925017  43.6289987   5.7305006  99.4545017
  44.6169987   4.9845006  97.6975017  45.2789987   5.8245006  97.5525017
  45.1269987   4.0735006  97.4145017  43.4359987   5.2205006  96.7705017
  42.6729987   4.5915006  96.9585017  43.1109987   6.2395006  96.9825017
  43.6919987   5.1375006  95.8015017  41.5069987   4.8245006 100.0745017
  42.3959987   2.9975006 101.5815017  42.5839987   2.2225006  96.5685017
  43.0439987   1.1095006  95.9605017  42.2739987   0.3095006  95.5085017
  44.5429987   1.0835006  95.7245017  44.9329987   2.0265006  96.0945017
  44.9799987   0.3125006  96.3545017  44.9019987   0.8525006  94.2255017
  45.9649987   0.6435006  94.1745017  44.4019987  -0.0524994  93.8955017
  44.5699987   2.0115006  93.2675017  44.9409987   1.7705006  92.2745017
  43.4879987   2.0775006  93.1795017  45.1089987   3.3765006  93.7135017
  44.6539987   3.6355006  94.6675017  46.1799987   3.3205006  93.8925017
  44.8309987   4.5165006  92.7195017  45.3889987   4.3905006  91.7945017
  43.7799987   4.5365006  92.4385017  45.1969987   5.8715006  93.3565017
  44.8989987   5.8315006  94.4035017  46.2779987   5.9765006  93.3495017
  44.5809987   7.1095006  92.7025017  43.5289987   6.9155006  92.5285017
  44.6269987   7.9245006  93.4235017  45.2489987   7.5335006  91.4735017
  46.1829987   8.0105006  91.7295017  44.9509987   7.4405006  90.1815017
  45.6549987   7.8495006  89.4705017  43.7649987   6.8375006  89.5685017
  44.1189987   5.9785006  89.0005017  43.1229987   6.4425006  90.3475017
  42.9359987   7.7305006  88.6265017  42.0249987   7.2045006  88.3435017
  42.6179987   8.6135006  89.1765017  43.6849987   8.1655006  87.3675017
  43.0929987   8.9595006  86.9125017  44.6129987   8.6275006  87.6925017
  43.9879987   7.1015006  86.3195017  44.8219987   6.5015006  86.6765017
  43.1359987   6.4275006  86.2495017  44.3029987   7.6585006  84.9355017
  43.6899987   8.5325006  84.7215017  45.3339987   7.9935006  84.8625017
  44.0219987   6.6295006  83.8815017  44.5149987   5.6755006  84.0595017
  42.9629987   6.4055006  83.7655017  44.5189987   7.1805006  82.6235017
  43.9589987   8.0065006  82.1925017  45.5549987   7.5105006  82.6575017
  44.4219987   5.9755006  81.7105017  44.8439987   6.1965006  80.7345017
  43.3939987   5.6645006  81.5575017  44.9649987   5.1295006  82.1215017
  20.6769987  91.6235006  78.7545017  21.3029987  91.4885006  77.8785017
  19.6459987  91.4605006  78.4535017  20.9379987  90.8485006  79.4695017
  20.8579987  92.9815006  79.3455017  20.5499987  93.8315006  78.7395017
  21.8429987  93.2245006  79.7345017  19.8839987  92.8035006  80.4785017
  19.7539987  91.7545006  80.7435017  18.8959987  93.1705006  80.2085017
  20.3529987  93.5495006  81.6605017  19.9079987  94.5415006  81.6865017
  21.4309987  93.7025006  81.6325017  19.9839987  92.8205006  82.9345017
  20.2549987  93.4475006  83.7805017  20.6109987  91.9325006  82.9995017
  18.5219987  92.4145006  83.0695017  18.2989987  91.6255006  82.3535017
  17.8869987  93.2565006  82.8015017  18.1589987  91.9355006  84.4825017
  17.1459987  91.5375006  84.4635017  18.1339987  92.7995006  85.1455017
  19.1119987  90.8745006  85.0665017  19.9249987  91.3745006  85.5915017
  19.5729987  90.3185006  84.2515017  18.4199987  89.8905006  86.0225017
  19.1449987  89.2295006  86.4935017  17.7269987  89.2455006  85.4835017
  17.6559987  90.6615006  87.1065017  16.7149987  91.0115006  86.6875017
  18.2219987  91.5535006  87.3715017  17.3939987  89.8405006  88.3665017
  18.3169987  89.7885006  88.9405017  17.1569987  88.8165006  88.0825017
  16.2909987  90.3785006  89.2755017  15.3079987  90.0905006  88.9115017
  16.3039987  91.4665006  89.2895017  16.4919987  89.8725006  90.6945017
  15.6319987  90.1115006  91.3175017  17.3539987  90.3225006  91.1795017
  16.6579987  88.3795006  90.6875017  17.7059987  88.1175006  90.7935017
  16.3319987  87.9915006  89.7265017  15.8739987  87.7065006  91.7615017
  14.8289987  87.9805006  91.6955017  16.2479987  87.9925006  92.7375017
  16.5169987  88.2845006  92.9565017  17.2849987  87.6005006  93.4845017
  16.1349987  89.4005006  93.5195017  16.5979987  89.4785006  94.9205017
  16.7609987  88.4475006  95.1975017  15.7169987  89.8455006  95.4265017
  17.7969987  90.3035006  95.2655017  18.6969987  89.7975006  94.9565017
  17.9019987  90.6985006  96.7495017  17.7479987  89.8375006  97.3865017
  17.1389987  91.4345006  96.9705017  19.1809987  91.2415006  96.9585017
  19.5699987  92.3225006  98.0295017  18.1589987  92.4915006  98.8275017
  18.0789987  91.8995006 100.1365017  19.0279987  92.0235006 100.6415017
  17.9389987  90.8305006 100.0005017  16.8989987  92.3535006 101.0445017
  16.9159987  93.3505006 101.4675017  17.1079987  91.6395006 101.8285017
  15.4619987  92.1065006 100.6295017  15.3089987  90.9505006  99.8005017
  16.0139987  91.0155006  98.9835017  14.3009987  90.9495006  99.4125017
  15.4669987  90.0665006 100.3995017  14.4749987  92.5105006 101.6015017
  14.6909987  93.5215006 101.9095017  14.5039987  91.8305006 102.4345017
  13.5099987  92.4685006 101.1185017  15.1329987  92.9065006  99.6785017
  15.2619987  93.9255006 100.0105017  14.0989987  92.7395006  99.4165017
  15.7589987  92.7205006  98.8175017  20.5669987  91.7535006  98.9645017
  19.8739987  93.5805006  97.3265017  17.6449987  91.4675006  94.5425017
  18.6989987  91.8005006  93.8995017  19.7669987  91.2515006  93.7475017
  18.3609987  93.0465006  93.3255017  17.5319987  93.4485006  93.8985017
  19.1859987  93.7395006  93.4695017  18.0179987  92.9035006  91.8555017
  18.6439987  92.1025006  91.4785017  16.9979987  92.5355006  91.8095017
  18.1599987  94.0425006  91.0115017  17.4459987  94.7855006  91.3585017
  19.1459987  94.4495006  91.2195017  18.0239987  93.8515006  89.5265017
  18.4929987  94.7055006  89.0415017  18.5969987  92.9775006  89.2245017
  16.6479987  93.7215006  89.0085017  16.7209987  93.6425006  87.9255017
  16.2789987  92.7595006  89.3585017  15.7199987  94.6975006  89.3365017
  15.4759987  94.6235006  90.3955017  16.1399987  95.6885006  89.1875017
  14.6539987  94.6015006  88.6525017  14.3059987  95.6235006  88.5595017
  15.0009987  94.3045006  87.6635017  13.5649987  93.7065006  89.0545017
  12.9929987  94.0075006  89.9195017  13.2129987  92.5965006  88.4665017
  12.4199987  91.8995006  88.6965017  14.0369987  92.2155006  87.2635017
  14.7549987  93.0205006  87.1165017  14.6179987  91.3295006  87.4935017
  13.3269987  92.0135006  86.0275017  12.8439987  91.0415006  86.1175017
  12.5269987  92.7515006  86.0325017  14.0789987  92.0915006  84.6835017
  13.5289987  92.7895006  84.0515017  15.0439987  92.5515006  84.8765017
  14.2779987  90.8155006  83.9455017  14.9159987  90.1865006  84.5615017
  13.3149987  90.3115006  83.8915017  14.8669987  90.9345006  82.5315017
  15.8999987  91.2575006  82.6425017  14.9119987  89.9345006  82.1095017
  14.1769987  91.8895006  81.5475017  13.1099987  91.6745006  81.5355017
  14.2759987  92.9075006  81.9195017  14.6889987  91.8465006  80.1345017
  15.0109987  90.8445006  79.8605017  13.8769987  92.0935006  79.4535017
  15.8289987  92.8225006  79.9085017  16.1219987  92.8375006  78.8635017
  16.7069987  92.5615006  80.4895017  15.5389987  93.8325006  80.1845017
  92.8689987  86.7785006  79.7355017  92.4479987  87.7365006  79.4465017
  92.0719987  86.0415006  79.6985017  93.6069987  86.5025006  78.9875017
  93.4409987  86.8395006  81.0045017  92.7989987  86.9885006  81.8705017
  94.3169987  87.4625006  81.1635017  93.8329987  85.4245006  80.9305017
  94.6849987  85.2405006  80.2765017  93.0309987  84.7835006  80.5685017
  94.1799987  85.0095006  82.3165017  94.5609987  83.9905006  82.3135017
  93.2939987  84.9985006  82.9495017  95.2369987  85.9255006  82.9385017
  94.9329987  86.9475006  82.7275017  96.1529987  85.7565006  82.3745017
  95.5409987  85.7925006  84.4665017  96.2699987  86.5755006  84.6675017
  96.0749987  84.8495006  84.5565017  94.4599987  85.8475006  85.4995017
  93.6629987  85.1345006  85.2985017  93.9869987  86.8275006  85.5475017
  95.1039987  85.5225006  86.8735017  94.4969987  85.9815006  87.6525017
  96.0759987  86.0095006  86.9205017  95.2739987  84.0095006  87.1805017
  95.6039987  83.5485006  86.2525017  94.2729987  83.6245006  87.3715017
  96.2189987  83.5755006  88.3365017  97.2099987  83.8455006  87.9785017
  96.1759987  82.4865006  88.3235017  96.0269987  84.0735006  89.7835017
  96.5789987  83.4045006  90.4405017  94.9779987  83.9615006  90.0505017
  96.4599987  85.4745006  90.0665017  95.8849987  86.1915006  89.4845017
  97.5009987  85.6205006  89.7855017  96.3129987  85.7645006  91.5395017
  96.9249987  85.0745006  92.1185017  95.2899987  85.6205006  91.8765017
  96.7459987  87.1585006  91.8745017  96.1339987  87.9185006  91.4005017
  97.7719987  87.3455006  91.5685017  96.6549987  87.3155006  93.4055017
  97.2329987  86.5455006  93.9005017  95.6249987  87.2405006  93.7315017
  97.0019987  88.6585006  93.7065017  97.0559987  89.2665006  92.6905017
  97.0169987  88.9565006  94.9785017  96.9749987  90.1895006  95.6795017
  96.6849987  90.8495006  94.8765017  97.9609987  90.4655006  96.0245017
  95.9739987  90.2595006  96.7985017  95.8489987  91.2955006  97.0685017
  96.2479987  89.4345006  98.0375017  95.5299987  89.6505006  98.8175017
  97.2399987  89.6625006  98.4065017  96.1659987  88.0875006  97.6545017
  97.1949987  86.9695006  97.9445017  96.8099987  86.6375006  99.4665017
  96.0969987  85.4625006  99.7985017  96.3029987  85.1085006 100.8005017
  96.3649987  84.6535006  99.1245017  94.5809987  85.6805006  99.5875017
  94.1089987  84.7075006  99.6425017  94.4559987  86.0705006  98.5875017
  93.7609987  86.5915006 100.4985017  93.6209987  86.0295006 101.8775017
  93.2689987  85.0095006 101.8005017  92.8939987  86.6265006 102.4085017
  94.5749987  86.0895006 102.3795017  94.3319987  87.9585006 100.5995017
  94.5199987  88.3265006  99.6025017  95.2359987  87.9195006 101.1805017
  93.5979987  88.5795006 101.0915017  92.3809987  86.7155006  99.9065017
  92.4579987  87.1155006  98.9065017  91.7909987  87.3815006 100.5185017
  91.9129987  85.7425006  99.8765017  96.8879987  85.8105006  97.0805017
  98.5679987  87.5235006  97.9525017  94.8549987  89.9355006  96.0985017
  93.8729987  89.8495006  96.7445017  93.6459987  90.3085006  97.8795017
  93.0889987  89.4545006  95.4755017  92.0999987  89.9005006  95.4455017
  93.5719987  89.7395006  94.5445017  93.0289987  87.9935006  95.6145017
  94.0079987  87.5945006  95.3745017  92.8539987  87.7525006  96.6585017
  92.0809987  87.3715006  94.8235017  92.1779987  86.2895006  94.8725017
  91.0829987  87.6035006  95.1885017  92.1919987  87.8465006  93.3585017
  91.1849987  87.7895006  92.9495017  92.4539987  88.9015006  93.3775017
  93.1119987  87.1415006  92.4325017  94.1189987  87.4825006  92.6635017
  93.0769987  86.0895006  92.7105017  92.8679987  87.2585006  90.9125017
  93.3829987  86.4855006  90.3445017  91.8199987  87.1995006  90.6305017
  93.3969987  88.6045006  90.5125017  93.0389987  89.3775006  91.1825017
  94.4839987  88.6175006  90.5815017  92.9949987  88.8995006  89.0625017
  92.0849987  88.4035006  88.7605017  93.5879987  89.6645006  88.1665017
  93.2239987  89.8535006  87.1665017  94.8539987  90.3555006  88.4875017
  94.9819987  91.3005006  87.9615017  95.0609987  90.5595006  89.5325017
  95.8849987  89.3655006  87.9495017  95.6209987  88.3545006  88.2595017
  95.8479987  89.3685006  86.8615017  97.2999987  89.6805006  88.4015017
  97.4099987  90.7645006  88.3815017  97.3859987  89.3865006  89.4435017
  98.4239987  89.0495006  87.6045017  99.2739987  89.7145006  87.7395017
  98.6729987  88.1275006  88.1275017  98.2289987  88.7495006  86.1235017
  99.0629987  88.1575006  85.7525017  97.3409987  88.1425006  85.9675017
  98.1489987  89.9795006  85.3115017  97.1199987  90.3305006  85.3555017
  98.7479987  90.7365006  85.8145017  98.5599987  89.9195006  83.9095017
  98.5659987  90.9685006  83.6225017  99.6049987  89.6355006  84.0155017
  97.9609987  89.1215006  82.8325017  98.5359987  89.2165006  81.9165017
  96.9459987  89.4345006  82.6125017  97.9319987  88.0685006  83.0965017
  89.8179987  14.5285006  79.7325017  90.4739987  15.1135006  79.0945017
  88.7969987  14.6965006  79.4015017  90.0479987  13.4795006  79.5695017
  89.9789987  14.8785006  81.0935017  89.7839987  15.9475006  81.1585017
  91.0349987  14.7465006  81.3115017  89.1659987  14.1785006  82.0945017
  89.2189987  13.1095006  81.8885017  88.1289987  14.4645006  81.9335017
  89.4909987  14.4105006  83.4605017  88.7279987  13.9565006  84.0895017
  89.4599987  15.4785006  83.6725017  90.8429987  13.8585006  83.8635017
  90.9169987  14.0365006  84.9335017  91.5599987  14.5285006  83.3915017
  91.2349987  12.4265006  83.5775017  91.6139987  12.4635006  82.5575017
  90.2819987  11.9045006  83.5285017  92.1639987  11.6595006  84.4115017
  92.5999987  10.7595006  83.9825017  91.8349987  11.3905006  85.4145017
  93.1949987  12.7005006  84.5025017  92.8069987  13.6445006  84.8825017
  93.6539987  12.9255006  83.5415017  94.1519987  12.2275006  85.3595017
  95.1189987  12.5385006  84.9705017  94.1359987  11.1405006  85.2985017
  94.0399987  12.6325006  86.7565017  93.1099987  12.1585006  87.0625017
  93.8289987  13.6995006  86.6825017  95.1329987  12.4025006  87.8345017
  95.7469987  13.2765006  87.6255017  95.6419987  11.5585006  87.3725017
  95.0829987  12.1745006  89.5085017  96.0919987  12.0515006  89.8955017
  94.5569987  11.2485006  89.7325017  94.4069987  13.2765006  90.2015017
  93.6829987  13.6895006  89.5005017  95.1379987  14.0605006  90.3805017
  93.6619987  12.9635006  91.5315017  94.3839987  12.8245006  92.3295017
  93.1349987  12.0205006  91.4165017  92.6589987  14.0325006  91.9435017
  91.9479987  14.2115006  91.1475017  93.1689987  14.9615006  92.1695017
  93.4859987  14.8895006  92.7395017  94.5889987  14.4765006  92.9705017
  92.8819987  15.9675006  93.1845017  93.4989987  16.9025006  94.1155017
  93.4949987  17.8595006  93.6195017  94.5189987  16.5745006  94.2475017
  92.7939987  16.9925006  95.4235017  93.2569987  17.7115006  96.0785017
  92.7369987  15.6235006  96.0925017  93.7389987  15.2955006  96.3325017
  92.3089987  14.9245006  95.3825017  91.9309987  15.7005006  97.2735017
  92.6729987  15.8795006  98.6685017  91.6349987  16.6245006  99.6235017
  90.6219987  17.5355006  99.2065017  90.4849987  17.6835006  98.1405017
  91.0329987  18.4435006  99.6185017  89.2459987  17.2795006  99.9125017
  88.5059987  17.8885006  99.4145017  89.2629987  17.6605006 101.3685017
  89.2569987  16.7555006 101.8425017  90.0779987  18.2525006 101.6305017
  88.4239987  18.1435006 101.6335017  88.6929987  15.8565006  99.6465017
  92.9539987  14.5525006  99.2665017  93.8709987  16.7425006  98.4845017
  91.4689987  17.4165006  95.1545017  91.2039987  18.6245006  95.4395017
  91.9959987  19.5255006  95.7075017  88.3799987  15.1315006 100.6315017
  88.4569987  15.5485006  98.4475017  89.6949987  18.7565006  95.3135017
  89.3869987  18.9385006  96.3375017  89.5469987  19.6965006  94.7865017
  88.8739987  17.6085006  94.6535017  89.2529987  16.6725006  95.0495017
  87.8489987  17.6885006  95.0015017  88.9009987  17.5515006  93.1035017
  88.5129987  18.4595006  92.6495017  89.9169987  17.4385006  92.7345017
  88.0799987  16.3455006  92.6465017  88.4279987  15.4405006  93.1405017
  87.0279987  16.4455006  92.9005017  88.2059987  16.1475006  91.1385017
  87.6419987  16.9055006  90.5995017  89.2439987  16.2685006  90.8335017
  87.7279987  14.7565006  90.7075017  88.1339987  14.0325006  91.4125017
  86.6469987  14.7095006  90.8075017  88.1079987  14.3405006  89.2775017
  87.7159987  13.3535006  89.0605017  87.6399987  15.0195006  88.5665017
  89.5719987  14.3875006  89.0815017  90.0699987  13.6815006  89.7285017
  90.3309987  15.1045006  88.2785017  91.4089987  15.0695006  88.2055017
  89.6949987  16.0715006  87.3555017  88.9889987  15.5075006  86.7485017
  89.1069987  16.7855006  87.9215017  90.6269987  16.8135006  86.4285017
  90.9809987  16.0985006  85.6865017  90.0189987  17.5355006  85.8875017
  91.8069987  17.5235006  87.0475017  91.4529987  18.2775006  87.7505017
  92.4029987  16.8245006  87.6265017  92.6829987  18.1885006  85.9995017
  92.1229987  18.9545006  85.4685017  93.5269987  18.6955006  86.4635017
  93.2009987  17.1495006  85.0175017  93.6329987  16.3095006  85.5575017
  92.3879987  16.7365006  84.4275017  94.2289987  17.6945006  84.1385017
  93.8719987  18.6655006  83.7985017  95.0989987  17.8945006  84.7615017
  94.6879987  16.8735006  82.8965017  95.4559987  17.4605006  82.3995017
  95.1989987  16.0065006  83.3095017  93.6429987  16.3845006  81.8405017
  94.1159987  15.7565006  81.0925017  93.1739987  17.2125006  81.3205017
  92.8559987  15.8025006  82.3105017  15.6089987  21.3105006  78.0615017
  15.9919987  20.4675006  77.4945017  15.9379987  22.2195006  77.5665017
  14.5239987  21.2795006  78.0065017  16.0689987  21.2685006  79.4575017
  17.1329987  21.1985006  79.2375017  15.7319987  20.2555006  79.6595017
  15.8689987  22.1385006  80.6825017  14.7809987  22.1635006  80.7345017
  16.1739987  23.1045006  80.2855017  16.4509987  21.9905006  82.1275017
  17.4899987  22.3105006  82.0865017  16.4719987  20.9295006  82.3695017
  15.5149987  23.0065006  83.6275017  16.0809987  22.8465006  84.5415017
  14.5479987  22.5305006  83.7795017  15.2719987  24.8035006  83.3885017
  14.4349987  24.8335006  82.6935017  16.1529987  25.0835006  82.8155017
  15.0669987  25.7325006  84.3915017  14.0129987  25.8675006  84.6255017
  15.4499987  26.7185006  84.1315017  15.7619987  25.2445006  85.5725017
  16.8339987  25.4395006  85.5775017  15.6459987  24.1785006  85.7575017
  15.1749987  25.9405006  86.5825017  14.8769987  26.9275006  86.2335017
  15.8889987  26.1065006  87.3885017  13.9769987  25.2225006  87.1235017
  14.3539987  24.4545006  87.7955017  13.5189987  24.6965006  86.2865017
  12.9619987  26.0235006  87.7995017  12.9979987  26.8755006  87.1235017
  13.5639987  26.2985006  88.6645017  11.5859987  25.8285006  88.2165017
  11.5299987  24.8355006  88.6555017  10.9909987  25.7925006  87.3055017
  10.9509987  26.8845006  89.1885017   9.9059987  26.5995006  89.2935017
  10.9559987  27.8395006  88.6705017  11.5419987  27.0785006  90.6165017
  11.3139987  28.0745006  90.9825017  12.6249987  27.0035006  90.5625017
  11.0589987  26.1005006  91.5665017  11.2459987  25.0975006  91.2055017
   9.9939987  26.2205006  91.7235017  11.5819987  26.0615006  92.8365017
  11.9699987  27.0835006  93.3115017  11.2429987  24.9205006  93.3115017
  11.5579987  24.7015006  94.6645017  10.6329987  24.8885006  95.1865017
  12.3259987  25.3505006  95.0575017  11.9519987  23.2615006  94.7985017
  11.2089987  22.6045006  94.3785017  12.2649987  22.8555006  96.2775017
  11.5819987  22.0455006  96.4935017  11.9539987  23.7255006  96.8465017
  13.5929987  22.4935006  96.6055017  14.5069987  23.3005006  97.6145017
  14.0509987  22.7895006  99.0125017  12.8339987  23.1715006  99.5455017
  12.1689987  23.7995006  98.9625017  13.0729987  23.6965006 100.4565017
  12.1489987  21.8805006  99.9325017  12.5539987  21.0535006  99.3675017
  10.7579987  22.0335006  99.5725017  10.2959987  22.1345006 100.4785017
  10.5829987  22.8365006  98.9335017  10.3949987  21.2025006  99.1425017
  12.4529987  21.5935006 101.3985017  15.8489987  22.8825006  97.5895017
  14.2949987  24.7355006  97.4705017  13.0849987  23.1885006  93.8775017
  12.8209987  22.8445006  92.6275017  11.7689987  22.2245006  92.4055017
  11.4619987  21.5195006 102.1725017  13.6569987  21.4765006 101.7425017
  14.4209987  22.5545006  92.0965017  14.9869987  23.3835006  92.5095017
  14.7549987  21.6695006  92.6325017  14.6189987  22.4195006  90.7535017
  14.1769987  23.1355006  90.0695017  15.6029987  22.1915006  90.3545017
  13.7929987  21.1995006  90.7745017  14.1659987  20.2085006  91.0205017
  12.7489987  21.2135006  91.0765017  13.8709987  21.4385006  89.1885017
  13.0419987  22.1415006  89.1345017  14.7779987  22.0375006  89.1855017
  13.8479987  20.5415006  87.8865017  14.4649987  20.9565006  87.0915017
  14.2419987  19.5475006  88.0875017  12.4429987  20.4095006  87.4045017
  12.6399987  19.9945006  86.4175017  12.1059987  19.5825006  88.0225017
  11.3399987  21.4135006  87.3075017  10.3899987  21.0005006  86.9885017
  11.1489987  21.9295006  88.2475017  11.8689987  22.4255006  86.2935017
  12.6869987  23.0015006  86.6975017  11.5219987  22.6745006  85.1055017
  11.9839987  23.3875006  84.4375017  10.3809987  21.9475006  84.5135017
  10.4339987  21.8545006  83.4305017  10.1669987  20.9545006  84.8935017
   9.2889987  22.8285006  84.8375017   8.3039987  22.4145006  84.6265017
   9.2729987  23.1325006  85.8825017   9.5089987  23.9825006  84.0145017
   8.7579987  24.7165006  84.3045017  10.4689987  24.3995006  84.3045017
   9.4729987  23.8025006  82.5385017  10.4149987  23.2915006  82.3555017
   8.6919987  23.0545006  82.4145017   9.2869987  24.8435006  81.5745017
   8.1999987  24.8685006  81.5245017   9.5769987  25.7075006  82.1665017
   9.8169987  24.9785006  80.1735017   9.0489987  24.6695006  79.4665017
  10.0139987  26.0285006  79.9655017  10.9009987  24.2995006  79.9305017
  11.8089987  24.5725006  80.4615017  10.8119987  23.2205006  80.0325017
  11.0589987  24.6485006  78.4175017  11.8849987  24.0965006  77.9785017
  11.2549987  25.7045006  78.2635017  10.1599987  24.3955006  77.8625017
  32.6109987 104.7865006  78.4305017  33.2599987 105.4485006  77.8655017
  31.9189987 104.3255006  77.7315017  33.2289987 103.9975006  78.8505017
  31.9359987 105.4715006  79.4245017  31.4059987 106.2695006  78.9075017
  32.7179987 105.9515006  80.0065017  31.0289987 104.7895006  80.2895017
  31.7069987 104.3475006  81.0195017  30.6979987 103.9715006  79.6525017
  30.0229987 105.2635006  80.8885017  29.2409987 105.4175006  80.1475017
  30.2819987 106.2525006  81.2635017  28.8629987 103.5435006  83.2205017
  29.5959987 103.5345006  84.0225017  28.7959987 102.5195006  82.8565017
  27.7029987 103.9045006  83.7095017  26.9009987 104.0315006  82.9845017
  27.7039987 104.8035006  84.3225017  27.4269987 102.8045006  84.5105017
  27.2689987 101.9525006  83.8515017  26.4729987 102.9905006  85.0025017
  28.4489987 102.4495006  85.5375017  29.4159987 102.3985006  85.0375017
  28.2329987 101.4405006  85.8855017  28.5509987 103.3725006  86.7245017
  27.5419987 103.5585006  87.0875017  28.9279987 104.3305006  86.3685017
  29.4099987 102.8935006  87.8635017  30.3499987 102.6395006  87.3795017
  28.9509987 101.9485006  88.1535017  29.6819987 103.7485006  89.1465017
  28.7039987 104.1765006  89.3555017  30.2949987 104.5655006  88.7685017
  30.2849987 103.2305006  90.4825017  31.3589987 103.0845006  90.3975017
  29.8659987 102.2595006  90.7415017  29.9729987 104.2195006  91.6195017
  28.9819987 104.6205006  91.4135017  30.6629987 105.0535006  91.5305017
  29.9859987 103.7085006  93.0755017  30.6629987 102.8645006  93.1485017
  28.9919987 103.3355006  93.3075017  30.3569987 104.7175006  94.0865017
  29.7139987 105.5855006  94.0095017  31.3839987 105.0325006  93.9465017
  30.7559987 103.9895006  95.3985017  31.7849987 104.1975006  95.9885017
  29.8959987 103.0795006  95.7055017  29.8879987 102.2255006  96.8605017
  28.8419987 102.1645006  97.1115017  30.4289987 102.6145006  97.7115017
  30.4219987 100.8415006  96.4525017  29.6999987 100.4325006  95.7635017
  30.6419987  99.8625006  97.6255017  31.1709987  98.9925006  97.2635017
  29.6769987  99.5475006  97.9945017  31.3429987 100.4905006  98.6625017
  32.8449987 100.3065006  99.0275017  32.9759987  98.8125006  99.6145017
  34.1549987  98.3065006 100.2455017  33.9059987  97.3555006 100.6995017
  34.5389987  98.9685006 101.0105017  35.2319987  98.1095006  99.1875017
  34.8879987  97.4135006  98.4375017  35.4599987  99.0565006  98.7185017
  36.4799987  97.5145006  99.7565017  36.7829987  97.9915006 100.5895017
  36.2109987  96.4905006 100.0175017  37.2349987  97.5105006  99.0925017
  33.7009987 100.3205006  97.8175017  33.2149987 101.2525006 100.0945017
  31.5989987 101.1015006  95.7005017  31.9469987 100.2405006  94.8085017
  31.2849987  99.2915006  94.4085017  33.3259987 100.6285006  94.2965017
  33.2049987 101.1825006  93.3715017  33.8089987 101.3115006  94.9905017
  34.1609987  99.3605006  94.1005017  34.1239987  98.7095006  94.9665017
  33.8279987  98.7605006  93.2595017  35.5879987  99.8085006  93.8785017
  35.5889987 100.6675006  93.2125017  35.9789987 100.1625006  94.8295017
  36.5169987  98.7325006  93.3425017  37.5449987  99.0755006  93.4435017
  36.4379987  97.8295006  93.9425017  36.2709987  98.3725006  91.8705017
  36.8349987  97.4675006  91.6535017  35.2199987  98.1025006  91.7825017
  36.5909987  99.4305006  90.8225017  36.1079987 100.3745006  91.0695017
  37.6559987  99.6365006  90.7695017  36.1119987  98.9615006  89.4405017
  36.6279987  99.4965006  88.6515017  36.3479987  97.9075006  89.3015017
  34.6099987  99.1405006  89.3305017  34.0759987  98.2415006  89.5975017
  33.8739987 100.2075006  88.9775017  32.7979987 100.1065006  88.9745017
  34.3559987 101.5525006  88.5815017  35.4389987 101.5555006  88.6905017
  34.1559987 101.7325006  87.5315017  33.7989987 102.6845006  89.3965017
  32.7739987 102.9545006  89.1465017  33.8099987 102.4955006  90.4685017
  34.7099987 103.8375006  89.0895017  34.3709987 104.6355006  89.7505017
  35.6839987 103.5295006  89.4595017  34.8509987 104.3715006  87.7095017
  35.5329987 105.2185006  87.7045017  35.2909987 103.6235006  87.0525017
  33.5029987 104.7895006  87.1585017  32.8699987 103.9335006  86.9345017
  32.9339987 105.4075006  87.8485017  33.7449987 105.5485006  85.8535017
  32.8079987 105.9045006  85.4285017  34.3539987 106.4345006  86.0265017
  34.4269987 104.6985006  84.8455017  35.2959987 104.2165006  85.2855017
  33.7499987 103.8925006  84.5695017  34.8389987 105.4315006  83.5985017
  35.2509987 104.7445006  82.8655017  35.5949987 106.1825006  83.8005017
  33.9899987 105.9325006  83.1415017  75.8719987   8.2345006  82.7775017
  76.3159987   7.4385006  82.1875017  75.0989987   8.7025006  82.1745017
  75.3879987   7.7775006  83.6365017  76.9069987   9.2365006  83.2095017
  77.3699987   9.5815006  82.2865017  77.6599987   8.6485006  83.7275017
  76.5229987  10.4105006  84.0305017  75.9549987  11.1205006  83.4295017
  77.4199987  10.9375006  84.3515017  75.7189987  10.0405006  85.2565017
  76.3519987   9.6655006  86.0575017  74.9869987   9.2585006  85.0605017
  75.0189987  11.2625006  85.7365017  74.1659987  11.1035006  86.3915017
  74.6829987  11.9455006  84.9585017  76.0899987  11.8915006  86.4995017
  75.8569987  12.9195006  86.7715017  77.0269987  11.9275006  85.9485017
  76.2989987  11.0035006  87.8645017  77.0199987  10.2855006  87.4765017
  75.3359987  10.4945006  87.8705017  76.6889987  11.3865006  89.3295017
  75.6969987  11.5445006  89.7505017  77.1069987  12.3765006  89.1585017
  77.5449987  10.6515006  90.3345017  78.2799987  11.2115006  90.9085017
  78.0349987   9.7265006  90.0325017  76.4359987  10.3435006  91.1645017
  75.8739987   9.4945006  90.7805017  75.7329987  11.1735006  91.2235017
  76.9229987  10.0555006  92.4585017  78.0069987  10.1345006  92.5045017
  76.6799987   9.0435006  92.7785017  76.3499987  11.0135006  93.4085017
  77.2969987  11.5435006  93.4805017  76.3539987  10.2735006  94.2065017
  75.1979987  11.9705006  93.6415017  74.2729987  11.4205006  93.4785017
  75.2249987  12.7515006  92.8865017  75.1219987  12.6355006  95.0655017
  75.8659987  13.4225006  95.1315017  75.3919987  11.8845006  95.8025017
  73.7969987  13.1875006  95.4205017  73.0319987  12.4265006  95.3285017
  73.5449987  14.0145006  94.7665017  73.9149987  13.6385006  96.8605017
  74.8849987  13.5535006  97.5885017  72.6629987  13.8035006  97.2345017
  72.4569987  14.1305006  98.6095017  71.5769987  14.7545006  98.5795017
  73.3139987  14.7395006  98.8575017  72.2679987  12.9755006  99.6525017
  71.4909987  13.2405006 100.3505017  73.5859987  12.6815006 100.4165017
  73.9599987  13.6195006 100.8035017  74.2829987  12.3095006  99.6765017
  73.4279987  11.7375006 101.4675017  73.3969987  10.1865006 101.2025017
  74.1209987  10.0525006  99.7845017  75.3609987   9.4145006  99.5095017
  75.9569987   9.2515006 100.3975017  75.9599987  10.0305006  98.8445017
  75.1339987   8.0855006  98.7395017  74.5539987   7.4065006  99.3505017
  76.1009987   7.6425006  98.5505017  74.4309987   8.1365006  97.3995017
  75.0589987   9.2365006  96.5685017  75.0799987  10.1445006  97.1565017
  74.4449987   9.3845006  95.6925017  76.0489987   8.9275006  96.2685017
  74.4769987   6.8265006  96.6635017  74.1569987   6.0445006  97.3355017
  75.4789987   6.6565006  96.3105017  73.7939987   6.9005006  95.8295017
  73.0159987   8.4805006  97.6985017  72.6009987   7.7345006  98.3595017
  72.4539987   8.5015006  96.7775017  72.9729987   9.4515006  98.1695017
  74.1919987   9.4755006 102.2255017  71.9769987   9.7965006 101.0495017
  71.8799987  11.8015006  98.9475017  70.6819987  11.6025006  98.5185017
  69.6199987  11.9945006  98.8705017  70.5219987  10.7885006  97.3555017
  71.4359987  10.2215006  97.2085017  69.7389987  10.0525006  97.5175017
  70.2089987  11.6565006  96.1835017  69.2399987  12.1355006  96.2705017
  70.9269987  12.4575006  96.0395017  70.2049987  10.7695006  95.0065017
  71.1029987  10.1585006  94.9625017  69.3689987  10.0765006  95.0565017
  70.0809987  11.5525006  93.8045017  69.6709987  10.8155006  93.1175017
  69.2639987  12.2265006  94.0505017  71.1899987  12.3575006  93.0565017
  71.6199987  12.9795006  93.8395017  71.9329987  11.5935006  92.8345017
  70.9619987  13.2285006  91.7635017  70.7729987  12.4985006  90.9775017
  70.0239987  13.7515006  91.9295017  71.9589987  14.1925006  91.2975017
  71.7099987  14.9755006  90.5905017  72.6609987  14.6295006  92.0055017
  72.6159987  13.0555006  90.6225017  72.9629987  12.2625006  91.2675017
  72.8079987  12.9045006  89.3355017  73.2649987  12.0205006  88.9155017
  72.4159987  13.9225006  88.3245017  71.6659987  14.6605006  88.6035017
  73.1439987  14.4455006  87.7135017  71.7859987  12.9215006  87.5505017
  71.2899987  13.4755006  86.7545017  72.6179987  12.3985006  87.0835017
  70.6939987  11.7685006  88.2135017  71.4099987  11.0005006  88.5045017
  70.4189987  12.2885006  89.1275017  69.3419987  11.0405006  87.5605017
  68.9949987  10.2325006  88.2015017  68.5149987  11.7445006  87.4845017
  69.6889987  10.4685006  86.0925017  70.6699987  10.8815006  85.8645017
  69.8429987   9.4025006  86.2395017  68.7459987  10.7155006  84.8285017
  67.7359987  10.3895006  85.0725017  68.6809987  11.7865006  84.6435017
  69.1679987  10.0455006  83.5715017  70.1909987  10.3295006  83.3395017
  69.1959987   8.9765006  83.7715017  68.3149987  10.2845006  82.3955017
  68.6479987   9.6885006  81.5505017  68.3319987  11.3245006  82.0865017
  67.2819987  10.0185006  82.6015017  81.9939987  14.2755006  82.5695017
  81.6759987  15.1045006  81.9445017  81.7329987  13.3545006  82.0555017
  83.0769987  14.3145006  82.6445017  81.4259987  14.3325006  83.7785017
  80.3509987  14.3435006  83.6085017  81.6809987  15.3095006  84.1805017
  81.7599987  13.2515006  84.7855017  81.4579987  13.6095006  85.7695017
  82.8439987  13.1655006  84.8155017  81.1589987  11.8345006  84.5475017
  81.6279987  11.3585006  83.6895017  80.0949987  11.8855006  84.3195017
  81.3709987  10.9535006  85.7675017  82.2259987  11.3515006  86.3085017
  81.6729987   9.9765006  85.3935017  80.2089987  10.7825006  86.7375017
  80.4279987  10.0065006  87.4685017  79.3119987  10.4625006  86.2125017
  79.9299987  12.0715006  87.4525017  79.2169987  12.6755006  86.8935017
  80.8359987  12.6695006  87.5355017  79.3919987  11.8085006  88.8065017
  80.1669987  11.2685006  89.3485017  78.5659987  11.1105006  88.6825017
  78.8999987  13.0625006  89.6915017  78.2929987  13.5455006  88.9285017
  79.8459987  13.6025006  89.7135017  78.1999987  13.1995006  91.0685017
  77.5189987  12.3705006  91.2475017  77.5969987  14.1055006  91.1195017
  79.1569987  13.2395006  92.0475017  80.0989987  13.6625006  91.7055017
  79.3989987  12.2655006  92.4705017  78.6099987  14.1185006  93.1195017
  78.1869987  14.9585006  92.5745017  79.4989987  14.4975006  93.6195017
  77.7059987  13.6695006  94.0925017  76.7149987  13.5705006  93.6535017
  77.6099987  14.3875006  94.9025017  78.0799987  12.3875006  94.6415017
  77.8909987  11.8055006  93.7455017  77.2079987  12.2755006  95.2795017
  79.1679987  11.8695006  95.2945017  79.3959987  12.4565006  96.1755017
  80.0339987  11.8685006  94.6435017  79.0439987  10.3415006  95.5005017
  78.2779987   9.4345006  95.1575017  80.0819987  10.2415006  96.1325017
  80.2959987   9.0375006  96.7795017  80.8189987   8.4555006  96.0355017
  79.4349987   8.4825006  97.1215017  81.2469987   9.3775006  97.9645017
  81.4499987   8.4125006  98.3985017  80.6529987  10.3035006  99.0165017
  81.2329987  10.2505006  99.9275017  79.6439987   9.9715006  99.2285017
  80.6419987  11.6175006  98.5155017  79.8329987  12.7395006  99.2335017
  81.0099987  13.7325006  99.6235017  81.8939987  13.4095006 100.6875017
  81.3829987  12.9955006 101.5465017  82.4039987  14.3035006 101.0335017
  83.0149987  12.4655006 100.2015017  82.5379987  11.6105006  99.7395017
  83.6399987  12.1185006 101.0115017  83.9649987  13.0275006  99.1515017
  84.6159987  14.2935006  99.6175017  83.8469987  14.9695006  99.9645017
  85.1329987  14.7315006  98.7765017  85.3259987  14.0565006 100.3955017
  85.0229987  12.0415006  98.7825017  84.5489987  11.0995006  98.5535017
  85.7139987  11.9455006  99.6005017  85.5299987  12.4235006  97.9085017
  83.2269987  13.2835006  97.8655017  82.7839987  12.3615006  97.5195017
  83.9209987  13.6515006  97.1255017  82.4539987  14.0195006  98.0335017
  78.9419987  13.3125006  98.2275017  79.2559987  12.1475006 100.4655017
  82.4989987   9.8585006  97.4165017  83.2369987   9.1095006  96.5855017
  83.3009987   7.9395006  96.3485017  84.1129987   9.9565006  95.7545017
  84.4249987  10.8265006  96.3235017  85.0279987   9.4365006  95.4805017
  83.3029987  10.3455006  94.5085017  82.7739987   9.4595006  94.1755017
  82.5389987  11.0545006  94.8115017  84.1059987  10.9145006  93.3445017
  84.8669987  11.5895006  93.7285017  84.6389987  10.0965006  92.8665017
  83.2469987  11.6355006  92.2765017  82.3889987  12.0775006  92.7805017
  83.8119987  12.4635006  91.8555017  82.7359987  10.7585006  91.1385017
  82.0649987   9.9945006  91.5265017  82.1429987  11.3645006  90.4565017
  83.8579987  10.0925006  90.3495017  84.5369987  10.8315006  89.9265017
  84.4659987   9.4355006  90.9655017  83.2409987   9.2705006  89.2225017
  82.4269987   8.7445006  89.7075017  82.7819987  10.0225006  88.5815017
  84.0249987   8.3735006  88.3965017  83.7529987   7.3285006  88.3725017
  85.0209987   8.7345006  87.6735017  85.4479987   7.9105006  87.1195017
  85.6969987  10.0345006  87.4405017  84.9179987  10.7945006  87.4645017
  86.3579987  10.2505006  88.2725017  86.4669987  10.1815006  86.1305017
  87.0419987  11.1035006  86.2115017  87.1929987   9.3705006  86.1185017
  85.6879987  10.1795006  84.8125017  84.8109987  10.7885006  85.0305017
  86.3059987  10.7675006  84.1395017  85.2529987   8.9115006  84.1175017
  86.1569987   8.3435006  83.9075017  84.6859987   8.3255006  84.8385017
  84.4799987   9.0625006  82.9175017  83.5239987   9.5575006  83.0795017
  84.9749987   9.6245006  82.1305017  84.2059987   7.6815006  82.4595017
  85.0669987   7.0395006  82.2805017  83.5109987   7.0945006  83.0575017
  83.6049987   7.9655006  81.2375017  84.3389987   8.2285006  80.4795017
  83.1009987   7.0755006  80.8655017  82.5799987   9.0925006  81.3665017
  82.0549987   9.2455006  80.4285017  83.0449987  10.0345006  81.6365017
  81.8389987   8.8615006  82.1265017  87.6159987  99.0475006  80.8215017
  87.4809987 100.1215006  80.7415017  87.2779987  98.7435006  81.8075017
  86.9639987  98.5775006  80.0905017  89.0749987  98.6525006  80.5905017
  89.6469987  99.2175006  81.3245017  89.3289987  99.0695006  79.6195017
  89.4919987  97.1685006  80.6555017  90.5799987  97.1265006  80.6065017
  89.1309987  96.6935006  79.7455017  89.0079987  96.3485006  81.8565017
  89.3149987  95.3065006  81.8015017  87.9249987  96.3385006  81.9685017
  89.6359987  96.9755006  83.0895017  89.0669987  97.8515006  83.3905017
  90.6339987  97.3315006  82.8385017  89.7259987  96.0205006  84.2645017
  90.5089987  95.2945006  84.0535017  88.7959987  95.4575006  84.3175017
  89.9989987  96.6815006  85.6315017  90.7659987  97.4425006  85.4985017
  90.4249987  95.9325006  86.2975017  88.7549987  97.3205006  86.3085017
  87.9939987  96.5495006  86.4275017  88.3349987  98.0605006  85.6295017
  89.0259987  97.9795006  87.6705017  88.1129987  98.4805006  87.9865017
  89.7669987  98.7645006  87.5205017  89.5009987  97.0425006  88.7825017
  90.1929987  96.3165006  88.3615017  88.6519987  96.4725006  89.1585017
  90.1679987  97.7895006  89.9535017  89.4799987  98.5255006  90.3635017
  91.0379987  98.3465006  89.6095017  90.5879987  96.8435006  91.0785017
  91.1349987  97.4075006  91.8305017  91.2889987  96.1145006  90.6755017
  89.4289987  96.0985006  91.7235017  88.9999987  95.4005006  91.0065017
  88.6299987  96.7805006  91.9985017  89.8489987  95.3135006  92.9435017
  90.7669987  94.7985006  92.6815017  89.0869987  94.5505006  93.0775017
  90.0449987  96.0495006  94.2795017  89.1509987  96.5985006  94.5445017
  90.8729987  96.7455006  94.2095017  91.4069987  96.6985006  94.5295017
  92.4589987  96.4405006  93.9795017  91.2999987  97.4755006  95.5935017
  92.4959987  98.1935006  95.9615017  92.9569987  98.4745006  95.0265017
  93.1689987  97.5485006  96.5075017  92.1409987  99.4675006  96.7955017
  93.0679987 100.0065006  96.9035017  91.5439987  99.1425006  98.2135017
  91.7589987  99.9965006  98.8415017  92.1189987  98.2965006  98.5695017
  90.1519987  98.8425006  98.2395017  89.4559987  97.7035006  99.1105017
  88.0129987  97.7475006  98.4365017  86.8539987  97.5155006  99.2335017
  86.9609987  96.6095006  99.8155017  86.0049987  97.3595006  98.5745017
  86.4499987  98.7245006 100.1445017  87.2379987  98.8845006 100.8695017
  85.5769987  98.3495006 100.6585017  86.0659987 100.1265006  99.6255017
  85.5549987 100.9475006 100.7855017  84.7909987 100.3805006 101.2995017
  85.1279987 101.8565006 100.3885017  86.3829987 101.1895006 101.4345017
  87.2089987 100.8685006  98.9785017  87.6749987 100.2165006  98.2555017
  87.9049987 101.1735006  99.7395017  86.7929987 101.7345006  98.4835017
  84.9159987 100.0225006  98.6865017  85.1839987  99.3735006  97.8665017
  84.6779987 101.0045006  98.3075017  84.0599987  99.6195006  99.2075017
  90.1109987  96.4085006  98.7915017  89.3709987  98.1595006 100.5115017
  91.1989987 100.2845006  96.0855017  91.5679987 100.6065006  94.8665017
  92.6709987 100.4375006  94.3805017  90.3959987 101.2965006  94.1755017
  89.4919987 101.0345006  94.7155017  90.4979987 102.3745006  94.2725017
  90.3239987 100.8735006  92.6845017  91.3269987 100.8555006  92.2725017
  89.9499987  99.8575006  92.6085017  89.4409987 101.8255006  91.8325017
  88.4229987 101.5805006  92.1265017  89.6489987 102.8075006  92.2505017
  89.5399987 101.9125006  90.3135017  89.2629987 101.0005006  89.7875017
  88.9889987 102.7185006  89.8345017  90.8119987 102.1135006  90.1415017
  91.0879987 102.9455006  90.7865017  91.3119987 101.2365006  90.5475017
  91.3499987 102.3725006  88.7095017  90.8139987 103.2995006  88.5095017
  92.3699987 102.6545006  88.9555017  91.3699987 101.5725006  87.5225017
  91.8619987 100.6535006  87.8195017  90.3249987 101.3185006  87.3485017
  91.9199987 102.0815006  86.3165017  92.8829987 102.5695006  86.3485017
  91.3369987 101.9875006  85.1455017  92.0539987 102.4915006  84.5125017
  90.2329987 101.5165006  84.4765017  89.6879987 100.7495006  85.0245017
  89.4959987 102.2465006  84.1615017  90.8699987 100.8595006  83.2315017
  91.8119987 100.4205006  83.5585017  90.2229987 100.0255006  82.9675017
  91.1129987 101.7265006  81.9835017  91.8069987 102.5365006  82.2065017
  91.5689987 101.1475006  81.1845017  89.8199987 102.3035006  81.5045017
  89.1539987 101.4665006  81.3085017  89.3799987 102.8545006  82.3345017
  89.8869987 103.1695006  80.3365017  89.1409987 103.9605006  80.3845017
  90.8469987 103.6715006  80.2475017  89.6039987 102.3165006  79.0455017
  88.6689987 101.7675006  79.1465017  89.4809987 102.9655006  78.1805017
  90.7409987 101.3035006  78.7435017  91.6529987 101.8515006  78.9665017
  90.6279987 100.5775006  79.5455017  90.9059987 100.5655006  77.4445017
  91.7209987  99.8515006  77.5075017  91.1259987 101.2375006  76.6215017
  90.0039987 100.0165006  77.1905017  98.6879987  70.5825006  82.7305017
  98.6819987  71.1785006  81.8235017  97.7339987  70.7275006  83.2285017
  98.7509987  69.5375006  82.4395017  99.8369987  70.9655006  83.6305017
  99.7669987  72.0195006  83.8955017 100.7759987  70.8465006  83.0965017
  99.8489987  70.1205006  84.9165017 100.6729987  70.4025006  85.5725017
  99.9959987  69.0675006  84.6835017  98.5939987  70.2625006  85.6355017
  98.4729987  69.3965006  86.2825017  97.7709987  70.2245006  84.9235017
  98.4769987  71.4755006  86.4485017  98.1879987  72.3335006  85.8475017
  99.4339987  71.7285006  86.9025017  97.4419987  71.2695006  87.5425017
  96.8299987  70.4155006  87.2595017  96.7799987  72.1335006  87.5375017
  97.9859987  71.0555006  88.9675017  98.7809987  71.7725006  89.1655017
  98.4419987  70.0685006  89.0395017  96.8939987  71.1925006  90.0505017
  97.3419987  70.7475006  90.9385017  96.1119987  70.5075006  89.7295017
  96.3259987  72.4075006  90.3865017  96.2009987  73.0295006  89.5025017
  96.9779987  72.9635006  91.0585017  95.0209987  72.2095006  91.0315017
  94.6509987  71.1985006  90.8745017  94.2659987  72.8785006  90.6205017
  95.1699987  72.4755006  92.4835017  94.1399987  72.7765006  92.6595017
  95.7409987  73.3965006  92.3845017  95.6669987  71.6985006  93.7205017
  96.7429987  71.6675006  93.5665017  95.3029987  70.6905006  93.5305017
  95.3369987  72.0845006  95.2465017  95.2259987  71.1735006  95.8315017
  94.3879987  72.6075006  95.3155017  96.4449987  72.9515006  95.9135017
  96.5409987  73.8395006  95.2975017  97.3609987  72.3815006  95.7885017
  96.3279987  73.3665006  97.3765017  96.1979987  72.4965006  98.0075017
  95.4799987  74.0265006  97.5145017  96.3539987  72.2215006  98.2885017
  95.9199987  72.3145006  99.4105017  96.7379987  71.2025006  97.6035017
  96.6729987  69.9175006  98.0975017  96.2959987  69.3095006  97.2885017
  95.9139987  69.9985006  98.8615017  97.9819987  69.2985006  98.6745017
  97.8989987  68.2265006  98.7395017  98.3469987  69.8585006 100.0035017
  99.1199987  69.2915006 100.5045017  97.4819987  69.9155006 100.6525017
  98.8129987  71.1575006  99.6865017  99.3929987  71.9835006 100.8625017
 100.9159987  72.1185006 100.4025017 101.6199987  70.9575006  99.9725017
 101.2099987  70.0365006 100.3655017 102.6559987  70.9975006 100.2975017
 101.6799987  70.9245006  98.4275017 100.6629987  71.1295006  98.1185017
 101.9759987  69.9635006  98.0325017 102.5439987  71.9535006  97.7135017
 102.1439987  73.3305006  98.0045017 101.0809987  73.4255006  97.8305017
 102.6819987  73.9825006  97.3325017 102.4079987  73.5635006  99.0255017
 103.8499987  72.1185006  98.2995017 104.2949987  71.1435006  98.4245017
 103.7509987  72.6285006  99.2405017 104.4389987  72.7105006  97.6135017
 102.5389987  71.6835006  96.2385017 102.9069987  70.6845006  96.0585017
 103.1789987  72.3995006  95.7445017 101.5319987  71.7765006  95.8585017
  98.7179987  73.2855006 100.8165017  99.2529987  71.1455006 102.0785017
  99.0369987  69.6575006  97.7845017  99.0639987  68.9855006  96.7245017
  98.7289987  67.8415006  96.5835017  99.9019987  69.6215006  95.6255017
  99.2989987  69.9435006  94.7825017 100.4619987  70.4975006  95.9425017
 100.8479987  68.4645006  95.2485017 101.6099987  68.9695006  94.6655017
 101.3119987  68.2155006  96.1975017 100.4209987  67.1585006  94.5095017
 101.1739987  66.4005006  94.7105017  99.5069987  66.8115006  94.9855017
 100.1859987  67.2625006  93.0645017  99.3259987  67.9215006  92.9605017
 101.0339987  67.8005006  92.6465017  99.9499987  66.0815006  92.2755017
 100.7939987  65.4395006  92.0305017  99.1469987  65.4185006  92.5925017
  99.5239987  66.7895006  91.0865017  99.1889987  65.9725006  90.4495017
  98.6279987  67.3065006  91.4195017 100.3469987  67.7335006  90.2835017
 100.0779987  67.8795006  89.2435017 100.4909987  68.7275006  90.7055017
 101.5669987  67.0075006  90.4015017 101.7079987  65.9445006  90.5295017
 102.5809987  67.7045006  90.3325017 103.5999987  67.3435006  90.3395017
 102.4559987  69.2525006  90.2185017 101.4349987  69.2195006  90.5935017
 103.0919987  69.4135006  91.0815017 102.5829987  70.4875006  89.2345017
 101.6439987  71.0385006  89.2385017 103.3339987  71.1655006  89.6345017
 102.9299987  70.1415006  87.8845017 103.6929987  69.3895006  88.0845017
 102.0339987  69.5975006  87.5985017 103.4179987  71.0885006  86.6335017
 102.4389987  71.3075006  86.2145017 103.7119987  71.9725006  87.1975017
 104.5099987  70.8305006  85.4145017 105.4659987  71.0815006  85.8705017
 104.5129987  69.7505006  85.2925017 104.4519987  71.4685006  84.1325017
 103.4259987  71.7645006  83.9235017 105.0309987  72.3895006  84.1655017
 104.9579987  70.6195006  82.9695017 106.0179987  70.3815006  83.0215017
 104.4429987  69.6635006  82.9165017 104.6799987  71.3865006  81.7135017
 104.9369987  70.7985006  80.8375017 105.2519987  72.3075006  81.6655017
 103.6279987  71.6475006  81.6395017  21.1509987   9.4445006  80.5215017
  20.6799987   9.0275006  79.6365017  20.9719987   8.7605006  81.3465017
  22.2229987   9.4715006  80.3435017  20.5979987  10.8695006  80.8395017
  19.5489987  10.9515006  81.1195017  20.7809987  11.6535006  80.1095017
  21.3879987  11.0705006  81.9655017  21.5329987  12.1295006  82.1775017
  22.3829987  10.6515006  81.8275017  20.7489987  10.4035006  83.1665017
  20.5239987   9.3555006  82.9805017  19.8079987  10.8665006  83.4605017
  21.7279987  10.4905006  84.3105017  21.2319987  10.1095006  85.1995017
  21.9099987  11.5485006  84.4915017  23.0669987   9.7705006  84.1435017
  23.7229987  10.0315006  84.9715017  23.5599987  10.1275006  83.2415017
  22.9229987   8.2415006  84.0715017  23.5009987   7.8745006  83.2255017
  21.8829987   7.9965006  83.8585017  23.3639987   7.5095006  85.3405017
  22.7869987   7.8655006  86.1925017  24.4049987   7.7405006  85.5605017
  23.1989987   5.9885006  85.2175017  23.6889987   5.6815006  84.2965017
  22.1379987   5.7865006  85.0785017  23.7229987   5.1475006  86.3715017
  24.7959987   5.2545006  86.5175017  23.5369987   4.0815006  86.2395017
  22.9799987   5.6345006  87.6025017  21.9149987   5.5015006  87.4255017
  23.1379987   6.7065006  87.7025017  23.3219987   4.9785006  88.8585017
  24.3949987   4.8195006  88.9385017  22.8639987   3.9925006  88.9125017
  22.8109987   5.8355006  90.0685017  21.9499987   6.4155006  89.7405017
  23.5699987   6.5565006  90.3585017  22.3959987   5.0305006  91.2935017
  23.0019987   4.1305006  91.2725017  21.3729987   4.7255006  91.0905017
  22.4539987   5.6595006  92.7325017  21.8829987   6.5785006  92.7675017
  23.4789987   5.8765006  93.0085017  21.1329987   6.2095006  92.9585017
  20.3729987   6.4415006  92.0445017  20.9829987   6.4275006  94.2415017
  19.8189987   7.1695006  94.5935017  19.2879987   6.6195006  95.3535017
  19.1949987   7.2595006  93.7175017  20.2329987   8.5645006  95.1265017
  21.0319987   8.4135006  95.8325017  19.0709987   9.3155006  95.7885017
  18.8319987   8.8145006  96.7165017  18.2219987   9.2195006  95.1195017
  19.3759987  10.6885006  96.0185017  20.2719987  11.1535006  97.2305017
  19.6459987  10.2765006  98.4405017  20.4799987   9.3685006  99.1895017
  21.4969987   9.7265006  99.3075017  20.5089987   8.4795006  98.5805017
  19.8649987   8.9665006 100.5835017  19.0889987   8.2395006 100.3955017
  19.2529987  10.1265006 101.3085017  19.9159987  10.2995006 102.0665017
  19.1009987  10.9585006 100.7015017  18.3759987   9.8775006 101.7285017
  20.9189987   8.2875006 101.4655017  21.6789987  10.7525006  97.0025017
  19.9679987  12.5555006  97.5465017  20.6659987   9.4115006  94.0685017
  21.9409987   9.4545006  93.8235017  22.8029987   8.6985006  94.2455017
  21.3249987   8.8285006 102.5245017  21.2919987   7.1505006 101.1075017
  22.1669987  10.6205006  92.8645017  21.9619987  11.5215006  93.4335017
  23.2269987  10.6555006  92.6235017  21.3069987  10.5385006  91.5815017
  20.3649987  10.0845006  91.8675017  21.0719987  11.5565006  91.2855017
  21.8909987   9.7735006  90.3925017  22.9299987  10.0365006  90.2085017
  21.8779987   8.7025006  90.5785017  21.0459987  10.0635006  89.1445017
  21.1179987  11.1245006  88.9115017  21.4469987   9.5345006  88.2835017
  19.5539987   9.7015006  89.3015017  19.4319987   8.6445006  89.5265017
  19.1249987  10.2415006  90.1435017  18.7559987  10.0485006  88.0385017
  17.6979987  10.0025006  88.2915017  18.9609987  11.0795006  87.7645017
  19.0219987   9.1665006  86.8375017  18.2739987   9.3605006  86.0775017
  19.9809987   9.4475006  86.4035017  19.0629987   7.7785006  87.1775017
  19.7229987   7.2945006  87.8815017  18.1989987   7.0365006  86.5775017
  18.4959987   6.1105006  87.0495017  17.0789987   6.8935006  85.6185017
  16.9589987   5.8255006  85.4425017  16.1599987   7.2295006  86.0865017
  17.2369987   7.5665006  84.3025017  16.3389987   7.4115006  83.7065017
  17.3119987   8.6405006  84.4645017  18.3849987   7.1185006  83.5645017
  18.7949987   7.9505006  82.9915017  19.1679987   6.8065006  84.2495017
  18.0359987   5.9135006  82.5685017  17.8289987   4.9375006  83.0015017
  17.2739987   6.0765006  81.8075017  19.5949987   5.9095006  81.8215017
  20.1659987   6.8125006  82.0275017  20.2289987   5.0815006  82.1255017
  19.3459987   5.8495006  80.3505017  18.5869987   5.0805006  80.4855017
  18.8189987   6.8015006  80.3775017  19.9419987   5.6865006  79.0235017
  20.0489987   4.6245006  78.8155017  19.2129987   6.0565006  78.3055017
  21.2199987   6.3605006  78.7865017  21.5279987   6.2485006  77.7515017
  22.0129987   5.9565006  79.4075017  21.1459987   7.4235006  78.9965017
   9.3709987  84.5935006  82.6955017  10.3739987  84.4075006  82.3235017
   8.8209987  85.1155006  81.9175017   8.8909987  83.6305006  82.8485017
   9.4069987  85.5595006  84.2375017  10.0009987  86.4015006  83.8865017
  10.0839987  84.9215006  84.7995017   8.0379987  86.1945006  85.3585017
   7.4069987  85.3075006  85.4195017   7.5339987  86.8765006  84.6755017
   8.1069987  86.7985006  86.6165017   8.3919987  87.8355006  86.4535017
   8.9339987  86.3405006  87.1565017   6.8839987  86.7685006  87.4685017
   7.1819987  86.8745006  88.5085017   6.4389987  85.7795006  87.3775017
   5.8279987  87.8285006  87.1455017   5.4009987  87.5745006  86.1765017
   6.3489987  88.7735006  87.0105017   4.7069987  88.0145006  88.1545017
   4.2159987  87.0695006  88.3785017   3.9319987  88.6745006  87.7675017
   5.2199987  88.5485006  89.3185017   4.8739987  89.5805006  89.3525017
   6.2979987  88.5935006  89.1785017   4.9149987  87.8735006  90.6475017
   4.1739987  87.0775006  90.6115017   4.6069987  88.5385006  91.4535017
   6.1589987  87.3315006  90.9505017   6.9779987  87.9925006  90.6745017
   6.3409987  86.3885006  90.4355017   6.1679987  87.0985006  92.4035017
   5.5019987  86.2935006  92.7085017   5.8789987  87.9685006  92.9915017
   7.5499987  86.7145006  92.7495017   7.7389987  85.7675006  92.2505017
   7.5449987  86.4995006  93.8165017   8.6749987  87.6935006  92.4565017
   8.5429987  88.5995006  93.0455017   8.6739987  88.0045006  91.4155017
  10.0369987  87.1055006  92.7975017  10.8349987  87.7775006  92.4985017
  10.1839987  86.1795006  92.2475017  10.1619987  86.8105006  94.2835017
   9.3559987  86.1665006  94.6115017  10.1269987  87.7305006  94.8555017
  11.4639987  86.7255006  94.8285017  12.2549987  87.5315006  94.4195017
  11.5419987  85.6905006  95.6615017  12.3839987  85.4605006  96.7775017
  13.1719987  84.9845006  96.2195017  11.9509987  84.7395006  97.4555017
  12.9759987  86.7785006  97.6055017  13.9859987  86.5695006  97.9205017
  12.1219987  86.8375006  98.7315017  12.5779987  87.2585006  99.6165017
  11.6879987  85.8825006  98.9905017  11.1199987  87.6705006  98.2315017
   9.7109987  87.3565006  98.6905017   9.6689987  87.9215006 100.1325017
  10.2769987  89.1185006 100.5485017  11.2809987  89.1005006 100.1425017
  10.3379987  89.1665006 101.6285017   9.5279987  90.3665006 100.0425017
  10.0359987  91.2585006 100.3765017   9.4949987  90.3565006  98.9615017
   8.1189987  90.4595006 100.5965017   7.6139987  89.5945006 100.4995017
   8.2469987  90.6735006 101.6585017   7.5879987  91.1945006 100.1615017
   8.7829987  88.1505006  97.8535017   9.5949987  85.8865006  98.7775017
  13.1189987  87.9565006  96.7545017  13.7119987  88.9855006  97.2165017
  14.2249987  89.0835006  98.3155017  13.6449987  90.0555006  96.1595017
  14.5169987  90.6895006  96.2795017  13.7399987  89.6015006  95.1765017
  12.3599987  90.8365006  96.2745017  12.0329987  90.7505006  97.3055017
  12.6029987  91.8835006  96.1235017  11.2159987  90.4325006  95.3535017
  11.1729987  89.3465006  95.3575017  10.3039987  90.7735006  95.8365017
  11.2289987  90.9475006  93.9275017  10.2619987  90.7095006  93.4875017
  11.2969987  92.0325006  93.9445017  12.3319987  90.3945006  93.0025017
  13.2899987  90.8185006  93.2975017  12.4119987  89.3225006  93.1695017
  12.1059987  90.6405006  91.5145017  11.0389987  90.5235006  91.3285017
  12.3419987  91.6795006  91.3015017  12.8799987  89.7625006  90.5555017
  12.9149987  90.2515006  89.5885017  13.9089987  89.7025006  90.9065017
  12.3359987  88.3835006  90.4395017  12.5739987  87.7105006  91.2495017
  11.5779987  87.9005006  89.4485017  11.2639987  86.8695006  89.5245017
  11.0869987  88.5975006  88.2235017  10.3759987  87.9465006  87.7175017
  10.5469987  89.5055006  88.4685017  12.2029987  88.9225006  87.2545017
  12.9629987  89.5715006  87.6875017  12.7239987  88.0295006  86.9155017
  11.5639987  89.6155006  86.0565017  10.9399987  90.3855006  86.5105017
  12.3919987  90.1355006  85.5825017  10.7789987  88.8955006  85.0255017
  11.3199987  87.9965006  84.7395017   9.8379987  88.5595006  85.4585017
  10.4849987  89.7565006  83.7725017  11.3779987  90.3215006  83.5125017
  10.2839987  89.1105006  82.9225017   9.3039987  90.7795006  83.9635017
   8.4809987  90.1715006  84.3355017   9.6229987  91.3985006  84.7995017
   8.7639987  91.7075006  82.8415017   7.7199987  91.9175006  83.0625017
   9.2889987  92.6525006  82.9645017   8.8979987  91.2525006  81.3645017
   8.5609987  92.0325006  80.6885017   8.3069987  90.3665006  81.1585017
   9.9309987  91.0255006  81.1185017 100.4999987  22.6065006  81.9285017
 100.4689987  23.1015006  80.9635017 100.7909987  21.5735006  81.7615017
 101.2829987  23.0775006  82.5165017  99.2329987  22.6875006  82.5975017
  98.4269987  22.2095006  82.0445017  98.9139987  23.7105006  82.7785017
  99.4239987  21.9925006  83.8615017  98.9409987  22.4695006  84.7135017
 100.4699987  21.8735006  84.1365017  98.8379987  20.6505006  83.6565017
  98.9249987  20.1355006  84.6105017  99.4959987  20.1225006  82.9675017
  97.4109987  20.5335006  83.1735017  97.0649987  19.5085006  83.0635017
  97.2449987  21.0165006  82.2125017  96.5669987  21.2295006  84.2395017
  95.5339987  21.2655006  83.8965017  96.8959987  22.2635006  84.3245017
  96.6179987  20.5815006  85.5905017  97.3179987  21.1175006  86.2285017
  97.0059987  19.5685006  85.4965017  95.2429987  20.5365006  86.2735017
  94.5389987  19.9715006  85.6635017  94.8319987  21.5405006  86.3605017
  95.3269987  19.8985006  87.6765017  95.8909987  20.5755006  88.3145017
  95.9239987  18.9915006  87.5925017  93.9779987  19.5605006  88.3545017
  93.1739987  19.6325006  87.6255017  93.7569987  20.2965006  89.1265017
  93.9929987  18.1865006  88.9705017  94.5189987  17.4865006  88.3255017
  92.9839987  17.7935006  89.0835017  94.6829987  18.1985006  90.3285017
  94.0659987  18.6535006  91.0995017  95.6079987  18.7705006  90.3025017
  95.0089987  16.7705006  90.6995017  95.6049987  16.3345006  89.8995017
  94.0959987  16.1835006  90.7535017  95.7749987  16.6105006  91.9925017
  95.8699987  15.5305006  92.0445017  95.0069987  16.8925006  92.7075017
  97.0559987  17.2335006  92.4055017  96.9949987  18.3115006  92.3295017
  97.8649987  16.8865006  91.7745017  97.3539987  16.9995006  93.9145017
  97.0129987  16.0715006  94.6245017  98.1209987  18.0165006  94.2175017
  98.8229987  18.1035006  95.4615017  98.5929987  17.2005006  96.0065017
  98.4189987  18.9505006  95.9955017 100.3719987  18.2455006  95.2745017
 100.7899987  17.5305006  94.5855017 100.9979987  18.0505006  96.6815017
 102.0749987  18.1045006  96.6045017 100.7239987  17.0605006  97.0255017
 100.5109987  19.0435006  97.5845017 100.6719987  18.9505006  99.1595017
  99.4669987  19.8375006  99.6795017  98.1299987  19.4795006  99.3615017
  97.5459987  19.1595006 100.2145017  98.1059987  18.6605006  98.6475017
  97.4649987  20.6455006  98.6525017  96.5949987  20.3155006  98.0985017
  98.1899987  21.0415006  97.9565017  96.9989987  21.8295006  99.4895017
  96.6249987  22.8755006  98.5015017  97.4449987  23.0055006  97.8085017
  96.4539987  23.7965006  99.0395017  95.7169987  22.5755006  97.9995017
  95.8749987  21.4345006 100.3615017  96.1489987  20.5325006 100.8865017
  94.9969987  21.2865006  99.7575017  95.7139987  22.2385006 101.0655017
  98.1019987  22.3915006 100.3335017  98.4819987  21.6175006 100.9835017
  97.7139987  23.2045006 100.9285017  98.8939987  22.7555006  99.6955017
 100.4339987  17.5615006  99.6205017 101.9579987  19.5745006  99.5535017
 100.6519987  19.5685006  94.7685017 101.6329987  19.6595006  93.9145017
 102.4479987  18.7795006  93.6905017 101.4449987  21.0305006  93.2085017
 100.4159987  21.3305006  93.3785017 102.0589987  21.7705006  93.7165017
 101.7789987  20.9655006  91.7365017 102.7189987  20.4275006  91.6875017
 101.0339987  20.3075006  91.3005017 101.8919987  22.2605006  90.8965017
 102.3209987  23.0775006  91.4715017 102.5539987  22.1075006  90.0475017
 100.5359987  22.6495006  90.3825017  99.8099987  22.5225006  91.1835017
 100.5189987  23.7045006  90.1205017 100.0649987  21.8265006  89.1655017
  99.2569987  22.3575006  88.6655017 100.8829987  21.7755006  88.4495017
  99.6069987  20.3915006  89.4945017 100.4839987  19.8085006  89.7715017
  98.9619987  20.4095006  90.3685017  98.8629987  19.6795006  88.3465017
  98.0649987  20.3365006  88.0205017  99.5599987  19.6065006  87.5135017
  98.3319987  18.2845006  88.6615017  97.5939987  18.2325006  89.4485017
  98.6719987  17.1245006  88.0605017  98.1939987  16.2215006  88.4125017
  99.6489987  16.9045006  86.9325017 100.1029987  17.8545006  86.6565017
 100.4649987  16.2465006  87.2085017  98.9359987  16.3415006  85.7045017
  98.3949987  15.4315006  85.9625017  98.1879987  17.0505006  85.3555017
  99.9099987  16.0495006  84.5785017 100.5169987  16.9255006  84.3475017
 100.6059987  15.2595006  84.8455017  99.1229987  15.6355006  83.3275017
  99.8909987  15.2965006  82.6365017  98.5739987  14.7465006  83.6325017
  98.2159987  16.5505006  82.6515017  97.1849987  16.4065006  82.9705017
  98.4459987  17.5935006  82.8505017  98.2939987  16.2405006  80.9515017
  98.0369987  15.1865006  80.8605017  97.4499987  16.7935006  80.5435017
  99.8169987  16.5845006  79.8725017 100.3959987  15.7045006  80.1425017
  99.3509987  16.3515006  78.9175017 101.0089987  18.0925006  79.6315017
 101.7189987  17.8985006  78.8335017 101.5789987  18.3055006  80.5295017
 100.4549987  18.9905006  79.3715017  81.9229987 110.1505006  80.7855017
  81.6749987 109.9925006  79.7405017  82.7389987 110.8655006  80.8275017
  81.0609987 110.6065006  81.2645017  82.3109987 108.8075006  81.4865017
  83.1409987 108.3925006  80.9175017  81.4709987 108.1355006  81.3345017
  82.6649987 108.8475006  82.8765017  81.8619987 109.3265006  83.4365017
  83.5369987 109.4875006  82.9925017  82.9589987 107.5585006  83.4705017
  83.6639987 107.7965006  84.2635017  83.5309987 107.0355006  82.7055017
  81.9039987 106.6345006  84.0245017  82.3669987 105.6515006  83.9925017
  81.1369987 106.6365006  83.2525017  81.2369987 106.8295006  85.4065017
  80.5899987 105.9875006  85.6465017  80.6009987 107.7125006  85.4085017
  82.2859987 106.9705006  86.4765017  82.9809987 107.7455006  86.1575017
  82.8559987 106.0435006  86.5045017  81.7979987 107.2825006  87.8335017
  81.4529987 108.3135006  87.9015017  82.5899987 107.1775006  88.5725017
  80.6259987 106.3235006  88.1975017  81.0069987 105.3345006  87.9525017
  79.8599987 106.5465006  87.4555017  79.9899987 106.2915006  89.5845017
  79.1959987 105.5605006  89.4465017  79.5029987 107.2655006  89.6355017
  80.7149987 106.0285006  90.8875017  81.3339987 105.1475006  90.7345017
  79.9689987 105.7485006  91.6285017  81.6129987 107.1655006  91.4655017
  81.1939987 108.1495006  91.2665017  82.5999987 107.1575006  91.0065017
  81.7739987 106.9545006  92.9825017  82.0559987 105.9235006  93.1885017
  80.8419987 107.1265006  93.5125017  82.8299987 107.8425006  93.5525017
  82.5929987 108.8865006  93.3735017  83.7769987 107.6455006  93.0565017
  83.0119987 107.6175006  95.0575017  83.2169987 106.5745006  95.2625017
  82.1159987 107.9075006  95.5935017  82.2829987 108.5055006  95.9845017
  82.7049987 109.2485006  96.8585017  81.1119987 108.2675006  95.6385017
  80.1509987 108.6485006  96.5295017  79.5779987 109.2985006  95.8875017
  80.6369987 109.2385006  97.2925017  79.2509987 107.5885006  97.1505017
  78.4079987 108.1195006  97.5585017  79.9019987 106.8345006  98.1685017
  79.2329987 106.1685006  98.6965017  80.3799987 107.4845006  98.8935017
  80.8639987 106.1055006  97.4455017  81.9169987 105.3245006  98.2515017
  81.0359987 104.7495006  99.4725017  80.4329987 103.4805006  99.2495017
  81.1669987 102.6845006  99.1845017  79.9079987 103.5265006  98.3085017
  79.3909987 103.1735006 100.3455017  78.6709987 103.9785006 100.3425017
  79.9899987 103.0925006 101.7055017  79.9569987 102.0925006 101.9115017
  80.9519987 103.4885006 101.7575017  79.4199987 103.5575006 102.3875017
  78.7329987 101.8355006  99.9915017  82.4439987 104.1885006  97.4715017
  82.8969987 106.2385006  98.8255017  78.7569987 106.7165006  96.1205017
  77.7269987 105.9185006  96.2195017  77.0219987 105.7745006  97.2015017
  78.8999987 100.8315006 100.7535017  78.0599987 101.8205006  98.9345017
  77.3569987 105.3585006  94.8375017  77.0589987 106.2135006  94.2395017
  78.2659987 104.9775006  94.3785017  76.2909987 104.3055006  94.8795017
  75.3919987 104.6705006  95.3635017  75.9889987 103.9865006  93.8865017
  76.8219987 103.1365006  95.6505017  76.9139987 103.4565006  96.6855017
  76.0369987 102.3845006  95.6345017  78.1189987 102.4925006  95.1865017
  78.9359987 103.1335006  95.5115017  78.2509987 101.5455006  95.7045017
  78.2629987 102.2545006  93.6715017  77.3789987 101.7535006  93.2825017
  78.3179987 103.2125006  93.1585017  79.5009987 101.4415006  93.3195017
  80.3099987 101.9275006  93.8635017  79.3569987 100.4715006  93.7875017
  79.9149987 101.2315006  91.9075017  80.6729987 100.4575006  91.9345017
  79.0489987 100.7955006  91.4115017  80.3669987 102.3855006  91.1305017
  81.0639987 103.0225006  91.6535017  80.0429987 102.7335006  89.8825017
  80.5259987 103.6425006  89.5535017  79.1639987 102.1215006  88.8735017
  78.3469987 101.5855006  89.3535017  78.7039987 102.8355006  88.1995017
  79.9619987 101.1475006  88.0905017  80.5349987 100.5665006  88.8125017
  79.2429987 100.4595006  87.6495017  80.8509987 101.6415006  87.0505017
  81.4799987 102.4355006  87.4535017  81.5259987 100.8525006  86.7295017
  80.1009987 102.1595006  85.8775017  79.3659987 101.4055006  85.6055017
  79.5359987 103.0325006  86.2005017  80.9569987 102.5345006  84.6415017
  81.4659987 103.4435006  84.9555017  81.7189987 101.7605006  84.6165017
  80.3999987 102.7695006  83.2315017  80.8609987 103.5915006  82.6865017
  80.4479987 101.9045006  82.5715017  78.9449987 103.1085006  83.4725017
  78.1239987 102.4015006  83.5575017  78.6209987 104.0025006  84.0005017
  79.1409987 103.4225006  82.1545017  78.2539987 103.8845006  81.7325017
  79.3659987 102.5455006  81.5575017  79.9649987 104.1215006  82.0375017
  39.6819987 100.4335006  82.4285017  39.2899987  99.4795006  82.0905017
  38.9149987 100.9125006  83.0305017  40.5299987 100.2315006  83.0765017
  40.1229987 101.3855006  81.1535017  39.2119987 101.4375006  80.5595017
  40.8079987 100.7445006  80.6055017  40.7739987 102.9325006  81.3065017
  41.4539987 102.9935006  80.4575017  41.4019987 102.8355006  82.1895017
  39.9879987 104.2305006  81.4145017  39.0379987 103.7625006  81.6645017
  39.9519987 104.4325006  80.3455017  40.0949987 105.5295006  82.1625017
  39.1609987 105.4955006  82.7165017  39.9319987 106.2135006  81.3305017
  41.0169987 106.0035006  82.9275017  41.0969987 107.0885006  82.8915017
  42.0089987 105.6175006  82.7045017  40.6439987 105.6055006  84.2345017
  40.4619987 104.5385006  84.3525017  39.7649987 106.1105006  84.6325017
  41.8149987 105.9845006  85.0215017  41.6059987 106.9745006  85.4255017
  42.6329987 106.1115006  84.3145017  42.2609987 105.0745006  86.1405017
  42.7739987 104.2105006  85.7235017  41.3879987 104.6865006  86.6645017
  43.1729987 105.7695006  87.1345017  42.8979987 106.8125006  86.9975017
  44.1529987 105.6485006  86.6725017  43.2779987 105.4465006  88.6315017
  44.0239987 104.6615006  88.7415017  42.3319987 105.0105006  88.9475017
  43.6419987 106.5865006  89.5675017  42.9849987 107.4215006  89.3385017
  44.6479987 106.9105006  89.3055017  43.6009987 106.2755006  91.0895017
  42.5759987 106.0935006  91.4075017  43.9589987 107.1125006  91.6815017
  44.4269987 105.0355006  91.4285017  45.2409987 104.9505006  90.7155017
  43.7909987 104.1655006  91.2855017  44.9969987 104.9945006  92.8515017
  44.2049987 105.1115006  93.5805017  45.7189987 105.7905006  92.9915017
  44.0649987 104.6245006  93.9995017  43.7119987 103.4935006  94.2825017
  43.8369987 105.7035006  94.7305017  43.0259987 105.4575006  95.8995017
  43.2629987 106.3505006  96.4575017  43.2649987 104.5915006  96.4995017
  41.5999987 105.4575006  95.5165017  41.4659987 106.1575006  94.7085017
  40.7869987 105.9835006  96.8545017  40.0709987 106.7645006  96.6365017
  41.4729987 106.3435006  97.6115017  40.1229987 104.8135006  97.3045017
  40.5069987 104.2055006  98.6275017  41.9239987 103.5535006  98.2665017
  42.0029987 102.1315006  98.2195017  42.7069987 101.7705006  97.4805017
  41.0369987 101.7095006  97.9575017  42.3299987 101.5585006  99.6295017
  42.4539987 100.4835006  99.5915017  41.4879987 101.7885006 100.2655017
  43.5769987 102.0995006 100.3645017  43.4149987 103.5095006 100.8325017
  43.0789987 104.1135006 100.0005017  44.3779987 103.8605006 101.1715017
  42.7129987 103.5285006 101.6525017  43.9069987 101.2535006 101.5475017
  43.9289987 100.2205006 101.2345017  43.1689987 101.4165006 102.3125017
  44.8829987 101.5555006 101.8985017  44.7219987 102.1495006  99.4295017
  44.9059987 101.1595006  99.0395017  45.5959987 102.4985006  99.9575017
  44.4959987 102.8265006  98.6185017  40.6929987 105.3765006  99.4965017
  39.5409987 103.1495006  98.9845017  41.2289987 104.1055006  94.8815017
  40.1949987 103.4005006  94.2755017  39.1139987 103.5525006  93.8245017
  40.2569987 102.1125006  93.7555017  41.2959987 101.7995006  93.7365017
  39.7479987 101.4135006  94.4145017  39.5919987 102.1065006  92.2695017
  38.7629987 101.4105006  92.2095017  39.1899987 103.0765006  91.9955017
  40.6569987 101.6945006  91.2785017  41.4429987 102.4445006  91.3205017
  41.0929987 100.7765006  91.6635017  40.2319987 101.4615006  89.8275017
  39.3549987 100.8175006  89.7965017  39.9449987 102.3895006  89.3395017
  41.3369987 100.8035006  89.0185017  41.7469987  99.9945006  89.6195017
  40.8609987 100.3315006  88.1615017  42.4669987 101.6845006  88.5215017
  42.1909987 102.2075006  87.6075017  42.7459987 102.4505006  89.2405017
  43.6849987 100.8015006  88.2505017  43.9809987 100.2595006  89.1415017
  43.4479987 100.0505006  87.4985017  44.7979987 101.6465006  87.7435017
  45.2519987 102.2775006  88.4925017  45.3049987 101.7105006  86.4995017
  46.1259987 102.3975006  86.3485017  44.8999987 100.9545006  85.2605017
  45.7529987 100.9265006  84.5855017  44.6589987  99.9225006  85.4885017
  43.7169987 101.6035006  84.5155017  43.3309987 100.9025006  83.7765017
  42.9089987 101.7705006  85.2255017  44.0689987 102.9355006  83.8265017
  43.1349987 103.4015006  83.5125017  44.5019987 103.5965006  84.5715017
  44.9989987 102.8365006  82.6405017  45.2589987 103.8495006  82.3425017
  45.9249987 102.3705006  82.9745017  44.4689987 102.0905006  81.4825017
  44.1509987 101.0625006  81.6455017  43.6999987 102.5445006  80.8635017
  45.7369987 102.0595006  80.7615017  46.1039987 103.0135006  80.3865017
  46.5739987 101.5975006  81.2825017  45.4269987 101.3285006  79.7695017
  44.4889987 101.7255006  79.3905017  46.1759987 101.5725006  79.0195017
  45.3159987  99.6545006  79.8985017  45.1269987  99.2045006  78.9285017
  44.5109987  99.3515006  80.5595017  46.2379987  99.2305006  80.2855017
  63.7919987   3.6745006  81.6695017  63.3329987   3.5085006  80.6995017
  63.1579987   4.3615006  82.2225017  63.7919987   2.7265006  82.2015017
  65.2439987   4.2375006  81.5225017  65.3209987   5.2125006  81.0435017
  65.9449987   3.5875006  81.0055017  65.6299987   4.3665006  82.9755017
  65.5119987   5.4145006  83.2505017  66.6959987   4.1575006  83.0355017
  64.8699987   3.4485006  84.0495017  64.7389987   2.4505006  83.6365017
  63.8679987   3.8355006  84.2265017  65.6529987   3.3265006  85.4585017
  66.6439987   3.7725006  85.4695017  65.7749987   2.3025006  85.8085017
  64.8779987   3.9855006  86.3005017  63.8799987   3.5805006  86.4605017
  64.7479987   5.0485006  86.1115017  65.6549987   3.8095006  87.4875017
  66.6789987   4.1545006  87.3555017  65.7219987   2.7615006  87.7755017
  65.0239987   4.5695006  88.5705017  65.4259987   5.5785006  88.4945017
  65.4209987   4.1525006  89.4945017  63.4649987   4.6415006  88.6665017
  62.9759987   3.7035006  88.4135017  63.0289987   5.3965006  88.0135017
  63.1599987   4.9945006  90.1175017  63.6419987   4.3155006  90.8185017
  62.0939987   4.9575006  90.3405017  63.6689987   6.4175006  90.3345017
  63.4619987   6.9865006  89.4305017  64.7529987   6.3855006  90.4295017
  63.0799987   7.1755006  91.5255017  62.0059987   7.2335006  91.3665017
  63.4519987   8.1965006  91.4615017  63.3749987   6.6365006  92.9175017
  64.4419987   6.6825006  93.1305017  63.0869987   5.5945006  93.0275017
  62.6389987   7.4795006  93.9855017  61.5729987   7.2775006  93.9815017
  62.7589987   8.5385006  93.7725017  63.2029987   7.1945006  95.3885017
  64.2729987   7.3575006  95.4075017  63.0019987   6.1685006  95.6745017
  62.6559987   5.9385006  95.9305017  61.5279987   5.6805006  96.3305017
  63.6219987   5.1155006  95.8505017  63.3389987   3.8075006  96.2585017
  62.5469987   3.5945006  95.5585017  63.0029987   3.5745006  97.2575017
  64.5849987   3.0145006  95.9055017  64.2569987   1.9895006  95.9315017
  65.7499987   3.2345006  96.9055017  66.4529987   2.4215006  96.7825017
  65.3169987   3.1655006  97.8975017  66.3809987   4.4675006  96.7285017
  67.7269987   4.8545006  97.4535017  67.2019987   5.0675006  98.9265017
  65.9549987   5.6655006  99.2565017  65.0679987   5.0595006  99.1035017
  65.8719987   6.5405006  98.6315017  66.0409987   6.1505006 100.7235017
  66.7619987   6.9535006 100.7685017  66.4939987   5.0745006 101.6255017
  65.6449987   4.8335006 102.1405017  66.9109987   4.2635006 101.1235017
  67.1639987   5.4105006 102.2935017  64.6759987   6.7045006 101.0695017
  68.6989987   3.7245006  97.4895017  68.2029987   6.1275006  96.9095017
  64.8229987   3.2495006  94.4915017  65.5039987   2.3625006  93.7665017
  65.7829987   1.2775006  94.0275017  64.0039987   6.2585006 102.0315017
  64.2639987   7.5445006 100.2575017  65.9249987   2.5865006  92.3955017
  65.0519987   2.4055006  91.7765017  66.1559987   3.6425006  92.2805017
  67.1549987   1.6825006  91.9655017  67.8079987   1.5545006  92.8225017
  66.7989987   0.6895006  91.7075017  67.9609987   2.2615006  90.8055017
  68.9059987   1.7275006  90.7485017  67.4239987   2.0255006  89.8905017
  68.2099987   3.7565006  90.8485017  67.2669987   4.2995006  90.8885017
  68.7709987   4.0555006  91.7305017  68.9709987   4.2075006  89.6035017
  69.9939987   3.8395006  89.6425017  68.5179987   3.7505006  88.7255017
  68.9839987   5.7265006  89.4125017  67.9619987   6.0765006  89.5525017
  69.5709987   6.1665006  90.2145017  69.5249987   6.2515006  88.0555017
  69.5039987   7.3345006  88.0685017  70.5729987   5.9665006  87.9745017
  68.7779987   5.7025006  86.8505017  68.7159987   4.6255006  86.8905017
  68.1939987   6.3155006  85.7905017  67.7109987   5.6865006  85.0565017
  68.1179987   7.7605006  85.4895017  69.1269987   8.1685006  85.4865017
  67.7129987   7.9455006  84.5005017  67.2929987   8.5295006  86.5305017
  67.7729987   8.3555006  87.4925017  67.4399987   9.5845006  86.3055017
  65.8099987   8.2475006  86.6475017  65.6999987   7.2295006  87.0205017
  65.4059987   8.8985006  87.4175017  65.0179987   8.4005006  85.4075017
  65.0809987   7.4975006  84.8045017  63.9629987   8.5405006  85.6355017
  65.4949987   9.5325006  84.6505017  65.3529987  10.4895006  85.1495017
  66.5449987   9.4945006  84.3735017  64.7179987   9.5235006  83.5335017
  63.9359987   8.7695006  83.5965017  64.2089987  10.4755006  83.3965017
  65.5289987   9.2555006  82.3435017  65.2329987   9.8155006  81.4595017
  66.5799987   9.4875006  82.5035017  65.4049987   7.8785006  82.0885017
  66.0499987   7.5785006  81.2685017  64.3899987   7.6055006  81.8205017
  65.6849987   7.2935006  82.9595017  57.7739987   7.4765006  80.5175017
  57.7969987   8.2045006  79.7125017  58.5519987   6.7435006  80.3235017
  58.0309987   7.9925006  81.4385017  56.7369987   6.9735006  80.5985017
  56.5049987   6.4965006  79.6475017  55.9889987   7.7485006  80.7415017
  56.6199987   5.7195006  81.9525017  55.6309987   5.2615006  81.9455017
  56.7109987   6.2245006  82.9115017  57.6499987   4.6575006  81.8815017
  58.4929987   5.0375006  82.4535017  57.9789987   4.6285006  80.8435017
  57.3349987   3.2175006  82.3605017  58.1589987   2.5085006  82.3615017
  56.5039987   2.7195006  81.8635017  56.9499987   3.5225006  83.7875017
  56.7779987   2.6065006  84.3495017  56.0189987   4.0835006  83.8295017
  58.0669987   4.3385006  84.4725017  57.9139987   5.3975006  84.2725017
  59.0269987   4.0805006  84.0275017  58.1349987   4.1165006  85.9705017
  59.1549987   4.2755006  86.3175017  57.8949987   3.0795006  86.1985017
  57.2139987   5.0115006  86.7255017  56.2809987   5.0995006  86.1725017
  57.6449987   6.0115006  86.7545017  56.9169987   4.5515006  88.1445017
  57.7709987   4.0175006  88.5565017  56.0839987   3.8495006  88.1535017
  56.5809987   5.7235006  89.0095017  55.7459987   6.2675006  88.5715017
  57.4159987   6.4215006  89.0355017  56.1949987   5.3235006  90.4785017
  55.2049987   4.8925006  90.3535017  56.0469987   6.2905006  90.9555017
  56.9929987   4.4935006  91.3545017  58.0319987   4.7155006  91.1185017
  56.8289987   3.4595006  91.0635017  56.8159987   4.6195006  92.8695017
  56.7449987   5.6645006  93.1515017  57.6989987   4.2205006  93.3615017
  55.5699987   3.8625006  93.3995017  55.6029987   2.8225006  93.1005017
  54.6629987   4.3085006  93.0085017  55.3489987   3.9275006  94.9235017
  56.0859987   4.4655006  95.7415017  54.1399987   3.4295006  95.1925017
  53.8219987   3.2235006  96.5815017  52.7429987   3.2555006  96.5705017
  54.1899987   3.9535006  97.2875017  54.3099987   1.8115006  96.9455017
  53.7669987   1.1345006  96.3065017  54.0439987   1.4675006  98.4135017
  54.2199987   0.4155006  98.5915017  53.0079987   1.6885006  98.6365017
  54.8959987   2.2525006  99.2145017  56.1999987   1.6805006  99.8905017
  57.3809987   2.3675006  99.0985017  57.6469987   3.7555006  99.1725017
  57.0249987   4.2615006  99.8995017  57.4439987   4.2245006  98.2145017
  59.1689987   4.0235006  99.4485017  59.3189987   3.9385006 100.5175017
  59.3799987   5.0395006  99.1475017  60.2639987   3.1545006  98.8015017
  60.2039987   1.7405006  99.3005017  60.1909987   1.7565006 100.3815017
  61.0889987   1.2275006  98.9555017  59.3259987   1.2625006  98.8935017
  60.0489987   3.2035006  97.3255017  59.9499987   4.2365006  97.0275017
  59.1689987   2.6375006  97.0795017  60.9179987   2.7645006  96.8575017
  61.6089987   3.6915006  99.1415017  61.6819987   4.7125006  98.7975017
  62.3639987   3.0915006  98.6565017  61.7519987   3.6555006 100.2115017
  56.1419987   2.2425006 101.2645017  56.2989987   0.2205006  99.7015017
  55.6759987   1.7215006  96.5225017  56.1339987   0.4965006  96.3665017
  55.5209987  -0.5274994  96.5865017  57.5049987   0.5365006  95.6895017
  58.1969987   0.8285006  96.4725017  57.7609987  -0.4884994  95.4335017
  57.6059987   1.4595006  94.4555017  56.8629987   1.1555006  93.7265017
  57.3519987   2.4765006  94.7375017  58.9859987   1.4325006  93.8035017
  59.0789987   2.2565006  93.1005017  59.7389987   1.6015006  94.5695017
  59.2889987   0.1205006  93.1095017  60.3689987   0.0015006  93.0435017
  58.9269987  -0.7144994  93.7045017  58.7049987   0.0115006  91.6965017
  59.1739987  -0.8174994  91.1705017  57.6479987  -0.2364994  91.7725017
  58.8499987   1.2945006  90.8595017  58.2989987   2.1085006  91.3275017
  59.8869987   1.6145006  90.8105017  58.3339987   1.0885006  89.4355017
  58.7769987   1.8545006  88.8095017  58.7299987   0.1365006  89.0825017
  56.8199987   1.0695006  89.2895017  56.3249987   1.9105006  89.7525017
  56.0429987   0.1715006  88.6645017  54.9719987   0.3175006  88.6545017
  56.4929987  -1.0474994  87.9515017  57.5609987  -1.1254994  88.1505017
  56.0329987  -1.9094994  88.4215017  56.2839987  -1.1194994  86.4585017
  56.2689987  -2.1614994  86.1415017  55.3029987  -0.7144994  86.2185017
  57.3099987  -0.3874994  85.6935017  57.3179987   0.6695006  85.9595017
  58.3089987  -0.7604994  85.9025017  57.0169987  -0.5284994  84.2065017
  55.9729987  -0.2704994  84.0425017  57.6019987   0.2125006  83.6645017
  57.3109987  -1.9304994  83.6285017  58.3699987  -2.0054994  83.3905017
  57.1219987  -2.6894994  84.3825017  56.5319987  -2.2414994  82.3765017
  56.6349987  -3.2984994  82.1365017  55.4719987  -2.0754994  82.5595017
  56.9319987  -1.4524994  81.1975017  57.9509987  -1.0774994  81.2475017
  56.8799987  -2.0464994  80.2875017  56.0079987  -0.3314994  81.0775017
  56.2039987   0.2345006  80.1715017  56.0919987   0.3545006  81.9135017
  54.9789987  -0.6764994  81.0355017  26.4599987   5.2885006  81.6295017
  26.1589987   5.7655006  80.7015017  27.5419987   5.1955006  81.6185017
  26.1959987   5.9565006  82.4455017  25.7939987   3.9355006  81.7945017
  26.0679987   3.3705006  80.9055017  24.7289987   4.1365006  81.7115017
  26.0729987   3.0905006  83.0305017  25.5399987   2.1455006  82.9285017
  25.6289987   3.5965006  83.8855017  27.5319987   2.8115006  83.3415017
  28.1019987   3.7335006  83.4245017  28.0159987   2.2275006  82.5605017
  27.6249987   2.0545006  84.6745017  28.5569987   1.4955006  84.6845017
  26.8259987   1.3155006  84.6855017  27.5429987   2.9065006  85.9445017
  27.5139987   2.2565006  86.8175017  26.6089987   3.4645006  85.9495017
  28.7179987   3.8855006  86.0795017  28.7089987   4.5525006  85.2195017
  29.6459987   3.3185006  86.0155017  28.7219987   4.7255006  87.3775017
  29.6929987   5.2105006  87.4715017  28.6369987   4.0505006  88.2265017
  27.6119987   5.7895006  87.4615017  26.6719987   5.2935006  87.2305017
  27.7859987   6.5025006  86.6565017  27.4739987   6.5475006  88.7865017
  26.6649987   7.2645006  88.6605017  28.3829987   7.1335006  88.9215017
  27.2309987   5.6965006  90.0425017  27.2699987   6.3595006  90.9045017
  28.0639987   5.0045006  90.1555017  25.9459987   4.9335006  90.0925017
  25.8169987   4.4165006  89.1445017  25.1309987   5.6515006  90.1595017
  25.8219987   3.9405006  91.2575017  26.6339987   4.2285006  91.9225017
  26.1039987   2.9825006  90.8305017  24.5849987   3.7615006  92.0875017
  24.1719987   2.8985006  91.5755017  24.0399987   4.6305006  91.7295017
  24.3479987   3.6235006  93.5405017  24.7819987   4.4585006  94.0765017
  24.7909987   2.7055006  93.9095017  25.1469987   2.5325006  93.6365017
  24.9639987   1.6255006  92.8945017  25.9919987   2.6835006  94.5465017
  26.4849987   1.4445006  95.0455017  26.8409987   0.8385006  94.2255017
  25.7499987   0.8845006  95.6055017  27.6629987   1.8665006  95.9485017
  28.1659987   0.9945006  96.3315017  27.1569987   2.7575006  97.1395017
  26.8099987   2.0965006  97.9225017  26.3109987   3.3155006  96.7565017
  28.1529987   3.6465006  97.6415017  29.0859987   3.3225006  98.8755017
  28.4199987   4.1405006 100.0855017  27.0339987   4.1055006 100.4275017
  26.8259987   3.4715006 101.2795017  26.4539987   3.7085006  99.5995017
  26.4909987   5.5375006 100.6545017  27.1419987   5.9605006 101.4095017
  25.4789987   5.5325006 101.0315017  26.5009987   6.5315006  99.4915017
  25.8419987   7.7855006  99.9635017  24.8879987   7.5295006 100.4045017
  25.6869987   8.4235006  99.1065017  26.4929987   8.2785006 100.6695017
  27.9219987   6.8495006  99.1875017  28.4669987   5.9235006  99.0905017
  28.3219987   7.4605006  99.9765017  27.9389987   7.3895006  98.2515017
  25.8409987   5.9835006  98.2545017  26.3469987   5.0785006  97.9535017
  25.9069987   6.7155006  97.4635017  24.8029987   5.7705006  98.4635017
  29.0589987   1.9045006  99.2235017  30.4169987   3.9265006  98.6155017
  28.6049987   2.6055006  95.1225017  29.4519987   1.8595006  94.4285017
  29.4819987   0.6415006  94.4265017  30.3769987   2.7285006  93.5655017
  29.7329987   3.2975006  92.9035017  30.8599987   3.4585006  94.2105017
  31.4249987   1.8965006  92.7815017  32.0479987   1.3615006  93.4905017
  30.9189987   1.1375006  92.1935017  32.3199987   2.7505006  91.8705017
  31.7199987   3.3995006  91.2375017  32.9389987   3.4065006  92.4775017
  33.2299987   1.8815006  91.0125017  33.9409987   2.5145006  90.4845017
  33.8219987   1.2085006  91.6275017  32.4549987   1.0535006  89.9745017
  33.1289987   0.3715006  89.4605017  31.7239987   0.4295006  90.4855017
  31.7349987   1.9065006  88.9585017  30.8479987   2.3005006  89.4525017
  32.3659987   2.7615006  88.7345017  31.3339987   1.2515006  87.6645017
  30.4409987   0.7135006  87.9615017  30.9959987   2.1075006  87.0815017
  32.1959987   0.4195006  86.8195017  32.6689987  -0.4594994  87.2315017
  32.4189987   0.6785006  85.5665017  33.0019987  -0.0714994  85.0525017
  31.9949987   1.8705006  84.6735017  31.0999987   2.3175006  85.1025017
  32.7499987   2.6485006  84.6665017  31.6969987   1.4775006  83.3125017
  32.3999987   0.7495006  82.9105017  30.7089987   1.0315006  83.2135017
  31.7569987   2.7715006  82.4695017  31.3709987   3.6185006  83.0365017
  32.7809987   3.0235006  82.2075017  30.9489987   2.6045006  81.2205017
  31.4319987   1.8485006  80.6055017  29.9739987   2.2005006  81.4885017
  30.7569987   3.8935006  80.4115017  30.5889987   4.7495006  81.0625017
  31.6319987   4.1415006  79.8165017  29.5319987   3.7435006  79.5055017
  29.7429987   2.9415006  78.8005017  28.7109987   3.3915006  80.1265017
  29.0519987   4.9785006  78.7135017  27.9969987   4.8595006  78.4775017
  29.1099987   5.8295006  79.3885017  29.8279987   5.3125006  77.4305017
  29.4729987   6.2425006  76.9965017  29.7189987   4.5395006  76.6775017
  30.8889987   5.4265006  77.6345017 108.6689987  65.8285006  82.6005017
 107.9289987  65.7665006  81.8085017 108.4929987  65.0015006  83.2835017
 109.6469987  65.6815006  82.1515017 108.5929987  67.1815006  83.3325017
 107.5759987  67.2785006  83.7095017 108.7109987  67.9495006  82.5725017
 109.5929987  67.4215006  84.4935017 109.6159987  68.4855006  84.7305017
 110.5919987  67.1685006  84.1445017 109.3069987  66.6195006  85.7815017
 109.8979987  65.7085006  85.7225017 108.2649987  66.3055006  85.7485017
 109.5909987  67.3045006  87.1335017 108.8209987  68.0335006  87.3735017
 110.5289987  67.8545006  87.0885017 109.6659987  66.2645006  88.2705017
 110.5399987  65.6305006  88.1295017 108.8019987  65.6055006  88.2225017
 109.7299987  66.9165006  89.6625017 108.9349987  67.6565006  89.7375017
 110.6659987  67.4665006  89.7465017 109.6139987  65.9205006  90.8425017
 110.5509987  65.3695006  90.9115017 108.8479987  65.1885006  90.5925017
 109.2889987  66.5495006  92.2215017 109.6259987  65.8915006  93.0195017
 108.2109987  66.6455006  92.3425017 109.9449987  67.9355006  92.3905017
 109.3539987  68.6255006  91.7925017 110.9219987  67.8755006  91.9115017
 110.1149987  68.4885006  93.8195017 110.7299987  69.3865006  93.8275017
 110.6079987  67.7785006  94.4805017 108.7369987  68.8415006  94.3935017
 108.0539987  68.0445006  94.1085017 108.3949987  69.7345006  93.8735017
 108.6549987  69.0925006  95.9045017 109.3139987  68.3485006  96.3485017
 107.6459987  68.8215006  96.2025017 109.0059987  70.4585006  96.5105017
 108.7249987  71.2715006  95.8485017 110.0789987  70.5365006  96.6665017
 108.2949987  70.6435006  97.8745017 108.5349987  69.8245006  98.5405017
 107.2209987  70.6785006  97.7385017 106.8129987  70.8375006  97.6655017
 106.2859987  71.6835006  96.9715017 106.1419987  69.8145006  98.1395017
 104.7849987  69.6205006  97.7325017 104.6979987  70.5275006  97.1565017
 104.1609987  69.6955006  98.6105017 104.4179987  68.4865006  96.9375017
 103.3759987  68.4045006  96.6755017 104.8459987  67.3035006  97.7555017
 104.3159987  66.4145006  97.4415017 104.6079987  67.4945006  98.7965017
 106.2259987  67.1455006  97.5865017 107.0029987  65.8265006  97.8445017
 108.1999987  66.5995006  98.5015017 109.2209987  66.1055006  99.3495017
 110.1929987  66.0655006  98.8685017 108.9339987  65.0975006  99.6045017
 109.2949987  66.9175006 100.6725017 110.0189987  66.4765006 101.3415017
 107.9629987  66.8255006 101.3085017 107.5789987  67.7625006 101.1725017
 107.3639987  66.0755006 100.9045017 108.0359987  66.6725006 102.2975017
 109.7049987  68.3835006 100.5055017 106.3619987  65.0375006  98.9155017
 107.4539987  65.2135006  96.5805017 105.0499987  68.7215006  95.6775017
 104.5189987  68.2115006  94.6355017 103.4639987  67.6085006  94.5865017
 108.9699987  69.2135006 101.1085017 110.7539987  68.6895006  99.8915017
 105.3679987  68.6285006  93.4555017 105.6499987  69.6625006  93.6285017
 106.2939987  68.0595006  93.4805017 104.6599987  68.4515006  92.1425017
 104.3309987  67.4225006  92.0455017 103.7599987  69.0575006  92.1185017
 105.5799987  68.8135006  90.9225017 105.7769987  69.8795006  91.0075017
 106.5239987  68.3135006  91.1255017 105.1499987  68.4775006  89.5145017
 104.9149987  67.4205006  89.6255017 104.1969987  68.9955006  89.4445017
 105.8779987  68.6575006  88.2605017 106.5659987  69.4825006  88.4345017
 106.4939987  67.7655006  88.1605017 105.1339987  68.8865006  86.9485017
 105.1389987  69.9715006  87.0375017 105.9719987  68.6285006  86.3075017
 103.6989987  68.3925006  86.1905017 102.9779987  67.9745006  86.8835017
 103.1979987  69.2195006  85.6885017 104.0679987  67.4795006  85.2585017
 105.1229987  67.3295006  85.0865017 103.1969987  66.7125006  84.5185017
 103.7669987  66.0535006  83.8795017 101.8699987  66.5785006  84.3965017
 101.3489987  65.6545006  84.6435017 101.1249987  67.3655006  84.4295017
 102.4509987  66.4465006  82.8785017 102.9039987  65.4555006  82.8815017
 101.5389987  66.3615006  82.2905017 103.3999987  67.4415006  82.1965017
 103.1979987  68.4625006  82.5215017 104.4379987  67.2425006  82.4485017
 103.2239987  67.3535006  80.7405017 103.3209987  66.3415006  80.3545017
 102.2619987  67.7225006  80.3895017 104.3129987  68.2165006  80.1885017
 104.2989987  68.1675006  79.1015017 104.1309987  69.2575006  80.4405017
 105.7149987  67.7965006  80.6625017 106.0209987  68.4155006  81.5045017
 105.6849987  66.7745006  81.0345017 106.7709987  67.8845006  79.5955017
 107.6679987  67.3545006  79.9065017 106.4079987  67.3605006  78.7145017
 107.1219987  69.2575006  79.2155017 107.8209987  69.2605006  78.3845017
 107.5869987  69.7985006  80.0325017 106.2409987  69.8155006  78.9095017
  48.7359987 106.4365006  79.7945017  48.4029987 105.9585006  78.8785017
  49.6369987 106.9975006  79.5655017  47.9719987 107.1495006  80.0925017
  48.9969987 105.3765006  80.9325017  49.7229987 104.6815006  80.5135017
  48.0629987 104.8275006  81.0195017  49.4699987 105.8255006  82.3075017
  50.4389987 106.3205006  82.2435017  49.6149987 104.9625006  82.9545017
  48.4959987 106.7385006  82.9515017  47.5059987 106.2925006  83.0255017
  48.3659987 107.6735006  82.4085017  48.9979987 107.0365006  84.3485017
  50.0049987 107.4445006  84.3135017  49.0629987 106.1125006  84.9205017
  48.0959987 108.0145006  85.0785017  47.0919987 107.6035006  85.1695017
  47.9969987 108.9345006  84.5065017  48.6389987 108.3445006  86.4795017
  48.4909987 107.4835006  87.1285017  48.0469987 109.1525006  86.9075017
  50.1309987 108.7425006  86.4935017  50.2919987 109.4995006  85.7265017
  50.7209987 107.8775006  86.1955017  50.6459987 109.2665006  87.8345017
  49.9359987 109.9735006  88.2585017  51.5739987 109.8175006  87.6905017
  50.8839987 108.1265006  88.8315017  51.5409987 107.3795006  88.3905017
  49.9459987 107.6165006  89.0505017  51.4879987 108.6505006  90.1365017
  50.8039987 109.3815006  90.5625017  52.4059987 109.1915006  89.9125017
  51.7779987 107.5755006  91.2045017  50.8619987 107.0285006  91.4135017
  52.0529987 108.0745006  92.1315017  52.8949987 106.6035006  90.8225017
  53.6509987 107.1675006  90.2785017  52.5029987 105.8685006  90.1245017
  53.5969987 105.8675006  91.9885017  54.3149987 105.1785006  91.5555017
  52.8349987 105.2635006  92.4745017  54.3079987 106.7355006  93.0725017
  53.6169987 107.4535006  93.4955017  55.1439987 107.2705006  92.6385017
  53.4389987 106.8605006  94.3405017  53.3639987 106.0395006  95.2295017
  52.7789987 108.0085006  94.2735017  51.8139987 108.3635006  95.2835017
  51.7779987 109.4405006  95.2215017  52.2029987 108.0775006  96.2505017
  50.4249987 107.7745006  95.0575017  50.1039987 108.0005006  94.0545017
  49.4119987 108.3825006  96.0915017  48.4609987 108.4905006  95.5885017
  49.7929987 109.3675006  96.3295017  49.2609987 107.5955006  97.2955017
  48.6899987 108.2565006  98.6415017  49.2159987 107.2745006  99.7665017
  49.0449987 105.8555006  99.7245017  48.9219987 105.4895006  98.7135017
  48.1429987 105.5815006 100.2635017  50.1949987 105.1105006 100.4505017
  50.0329987 104.0415006 100.3885017  50.2499987 105.3935006 101.4915017
  51.5669987 105.3495006  99.8855017  52.0009987 106.7435006 100.2995017
  51.2169987 107.4415006 100.0375017  52.9009987 106.9875006  99.7555017
  52.2059987 106.7465006 101.3595017  52.5509987 104.3295006 100.3665017
  52.1289987 103.3475006 100.2145017  52.7639987 104.5095006 101.4055017
  53.4489987 104.4425006  99.7755017  51.5589987 105.2545006  98.3795017
  51.2029987 104.2775006  98.0865017  52.5629987 105.3995006  98.0095017
  50.9099987 106.0175006  97.9735017  49.3839987 109.5555006  98.8595017
  47.2159987 108.2455006  98.6335017  50.5049987 106.3535006  95.1765017
  49.3569987 105.7775006  95.0805017  48.2929987 106.2685006  94.7155017
  49.5069987 104.3385006  95.3215017  50.5089987 103.9225006  95.2815017
  49.0329987 103.8885006  96.1905017  48.7409987 104.0545006  94.0905017
  48.2829987 103.0725006  94.1375017  47.9269987 104.7595006  93.9525017
  49.7029987 104.1105006  92.8665017  50.2179987 105.0665006  92.9165017
  50.4579987 103.3495006  93.0475017  49.1419987 103.9065006  91.5095017
  48.6819987 102.9215006  91.5635017  48.3249987 104.6195006  91.4285017
  50.0219987 103.9775006  90.1805017  50.3069987 105.0265006  90.1295017
  50.9209987 103.4325006  90.4635017  49.5649987 103.4885006  88.7485017
  49.8349987 102.4645006  89.0005017  48.5169987 103.6035006  89.0115017
  49.7109987 103.6865006  87.2995017  49.1869987 103.0625006  86.5845017
  49.7029987 104.6955006  86.8905017  51.0199987 103.2815006  87.4465017
  51.0819987 102.4105006  88.0815017  52.0619987 103.7125006  86.9955017
  53.1069987 103.4505006  87.0855017  51.8049987 104.8665006  86.1135017
  50.7909987 104.6665006  85.7725017  51.7359987 105.7105006  86.7905017
  52.6329987 105.2475006  84.9245017  52.6129987 106.3305006  84.8095017
  53.6689987 104.9825006  85.1275017  52.1859987 104.5785006  83.5995017
  52.0479987 103.5215006  83.8275017  51.1989987 104.9715006  83.3735017
  53.0809987 104.7155006  82.3715017  52.7839987 105.6525006  81.9055017
  54.0879987 104.8725006  82.7545017  53.1079987 103.5845006  81.3145017
  53.6549987 102.7355006  81.7205017  52.0969987 103.2285006  81.1365017
  53.7559987 103.9725006  80.0105017  53.5429987 104.9885006  79.6815017
  54.8399987 103.8725006  79.9985017  53.1869987 103.0305006  79.0235017
  52.9069987 103.6275006  78.1595017  54.0349987 102.4285006  78.7045017
  52.0109987 102.0785006  79.3995017  51.7859987 101.4015006  78.5805017
  51.1029987 102.6265006  79.6275017  52.2589987 101.4755006  80.2685017
 109.9169987  60.9445006  81.6245017 110.6069987  60.9165006  80.7875017
 109.1139987  61.6305006  81.3695017 109.4829987  59.9535006  81.7275017
 110.6219987  61.3725006  82.9115017 111.0709987  62.3445006  82.7165017
 111.4459987  60.6795006  83.0565017 109.7709987  61.4565006  84.1875017
 110.4189987  61.7585006  85.0095017 109.4339987  60.4495006  84.4235017
 108.5549987  62.3755006  84.1425017 107.8769987  62.0945006  83.3395017
 108.8289987  63.4125006  83.9555017 107.7969987  62.2805006  85.4855017
 107.2679987  63.2005006  85.7185017 108.4839987  62.1055006  86.3115017
 106.7859987  61.1295006  85.4165017 107.4279987  60.2505006  85.4235017
 106.3979987  61.2145006  84.4035017 105.6299987  60.9155006  86.3795017
 105.2689987  61.8835006  86.7215017 105.9959987  60.3975006  87.2645017
 104.4569987  60.1195006  85.7735017 104.7929987  59.5465006  84.9105017
 103.6859987  60.7955006  85.4085017 103.8539987  59.1805006  86.7915017
 102.8159987  59.0685006  86.4845017 103.8359987  59.7515006  87.7195017
 104.4399987  57.8345006  87.0535017 105.4999987  57.9775006  87.2545017
 104.3789987  57.2635006  86.1275017 103.7969987  57.0285006  88.1845017
 104.0099987  55.9685006  88.0635017 102.7129987  57.1225006  88.1685017
 104.3199987  57.4705006  89.5445017 103.8109987  58.3795006  89.8555017
 105.3739987  57.7275006  89.4565017 104.1689987  56.3945006  90.6105017
 104.5879987  55.4845006  90.1835017 103.1059987  56.2095006  90.7385017
 104.7959987  56.6035006  91.9605017 105.8239987  56.2565006  91.9455017
 104.2669987  55.9915006  92.6865017 104.7659987  57.9395006  92.3955017
 103.7519987  58.3185006  92.3865017 105.3749987  58.5605006  91.7495017
 105.4559987  58.2895006  93.7095017 105.6849987  57.3255006  94.3735017
 105.2779987  59.6305006  94.1625017 105.1019987  60.2725006  95.5145017
 104.4189987  59.6745006  96.0985017 104.6969987  61.2685006  95.4095017
 106.4569987  60.3075006  96.1695017 106.8169987  59.3105006  96.3625017
 106.4259987  61.1045006  97.4635017 105.7339987  60.6685006  98.1715017
 106.1099987  62.1175006  97.2485017 107.7609987  61.0985006  97.9965017
 108.0039987  60.5755006  99.4535017 108.0749987  59.0015006  99.2835017
 109.2209987  58.5005006  98.5875017 110.1429987  58.6465006  99.1345017
 109.3399987  59.0175006  97.6395017 109.0259987  57.0165006  98.2175017
 109.9269987  56.6395006  97.7505017 108.2109987  56.9415006  97.5115017
 108.7029987  56.0495006  99.3245017 109.8599987  56.0995006 100.2755017
 110.7739987  55.9605006  99.7145017 109.7429987  55.2935006 100.9855017
 109.8459987  57.0455006 100.7955017 107.3409987  56.3055006  99.8775017
 106.6429987  56.3635006  99.0565017 107.3579987  57.2195006 100.4445017
 107.0909987  55.4725006 100.5185017 108.5849987  54.7025006  98.7545017
 107.8149987  54.7025006  97.9975017 108.3229987  54.0075006  99.5375017
 109.5289987  54.4125006  98.3155017 109.3079987  61.0895006  99.9135017
 106.7959987  61.0065006 100.1585017 107.3369987  60.9335006  95.2355017
 108.2929987  60.1845006  94.7655017 108.5349987  59.0205006  95.0445017
 109.0519987  61.0365006  93.7325017 108.3779987  61.8475006  93.4765017
 109.8909987  61.4975006  94.2465017 109.5279987  60.2545006  92.4725017
 110.3579987  60.7815006  92.0145017 109.9129987  59.2815006  92.7615017
 108.4029987  60.0835006  91.4315017 107.5419987  59.6255006  91.9105017
 108.0829987  61.0735006  91.1155017 108.8069987  59.2705006  90.1745017
 107.8969987  58.9185006  89.6925017 109.2969987  59.9235006  89.4565017
 109.7179987  58.0515006  90.4435017 110.7479987  58.3675006  90.5955017
 109.4129987  57.5595006  91.3645017 109.6619987  57.0305006  89.3005017
 110.0579987  56.0885006  89.6775017 108.6219987  56.8455006  89.0445017
 110.4209987  57.4255006  88.0205017 111.3809987  57.8405006  88.3045017
 110.6329987  56.5145006  87.4625017 109.6679987  58.3665006  87.1325017
 109.7929987  59.4275006  87.2865017 108.8609987  57.9895006  86.1525017
 108.3349987  58.7025006  85.5335017 108.5949987  56.5545006  85.7945017
 108.8769987  55.8785006  86.5995017 107.5649987  56.3205006  85.5485017
 109.4959987  56.2555006  84.5735017 110.5369987  56.3345006  84.8835017
 109.3419987  55.2155006  84.2905017 109.2569987  57.1485006  83.3555017
 109.7699987  58.0995006  83.4995017 109.6999987  56.6945006  82.4735017
 107.8859987  57.3905006  83.1215017 107.2809987  56.6105006  83.5775017
 107.5729987  58.3265006  83.5815017 107.5579987  57.4635006  81.3185017
 108.4719987  57.2135006  80.7835017 106.8369987  56.6975006  81.0475017
 107.1249987  58.7055006  80.8685017 106.5179987  59.2275006  81.6065017
 107.9529987  59.3715006  80.6335017 106.3569987  58.5235006  79.7075017
 107.0279987  58.1195006  78.9535017 105.6709987  57.7165006  79.9565017
 105.6089987  59.6055006  79.1475017 105.0089987  59.2655006  78.3085017
 106.2529987  60.3995006  78.7855017 104.9359987  60.0365006  79.8835017
   5.7249987  33.7045006  82.7335017   5.7559987  33.1845006  81.7815017
   6.7399987  33.9995006  82.9835017   5.1439987  34.6125006  82.5955017
   5.1239987  32.8315006  83.8195017   5.7479987  31.9405006  83.7975017
   4.1659987  32.5435006  83.3945017   4.9449987  33.2755006  85.2495017
   5.1499987  32.4545006  85.9355017   3.9089987  33.5605006  85.4225017
   5.8389987  34.4625006  85.6025017   5.5239987  35.3425006  85.0455017
   6.8699987  34.2715006  85.3075017   5.7909987  34.7865006  87.0995017
   6.0289987  33.9095006  87.6955017   4.7839987  35.0865006  87.3865017
   6.7699987  35.9065006  87.4525017   6.3399987  36.8565006  87.1385017
   7.6769987  35.7745006  86.8655017   7.1339987  35.9825006  88.9285017
   8.1029987  36.4675006  89.0315017   7.2559987  34.9725006  89.3175017
   6.1109987  36.7235006  89.7705017   5.1719987  36.1765006  89.8475017
   5.8629987  37.6965006  89.3505017   6.7009987  36.9145006  91.1735017
   7.5639987  37.5745006  91.1145017   7.0739987  35.9595006  91.5415017
   5.6979987  37.4825006  92.1745017   4.8619987  36.7895006  92.2305017
   5.2999987  38.4085006  91.7605017   6.2559987  37.7585006  93.5965017
   5.4509987  38.1855006  94.1905017   7.0189987  38.5315006  93.5215017
   6.8359987  36.5405006  94.3625017   7.4509987  36.9095006  95.1795017
   7.5079987  36.0095006  93.6915017   5.7779987  35.5395006  94.8995017
   5.0059987  35.4305006  94.1395017   5.2889987  35.9675006  95.7705017
   6.2869987  34.1575006  95.2485017   7.0729987  34.2075006  95.9955017
   6.7189987  33.6905006  94.3675017   5.1569987  33.2675006  95.7665017
   4.3459987  33.2295006  95.0505017   4.7749987  33.6505006  96.7055017
   5.8499987  32.0015006  95.8905017   6.5739987  31.5965006  95.0165017
   5.7279987  31.6455006  97.0765017   6.5419987  30.5615006  97.2775017
   6.7409987  30.2315006  96.2695017   5.9269987  29.8255006  97.7755017
   7.9229987  30.7915006  98.0725017   8.4359987  29.8445006  98.1035017
   7.7929987  31.3465006  99.4595017   8.7659987  31.4505006  99.9215017
   7.1979987  30.6635006 100.0535017   7.1479987  32.6145006  99.3655017
   8.0039987  33.7765006  99.9505017   6.9709987  34.9875006 100.0135017
   6.4219987  35.4585006  98.7805017   5.4179987  35.8405006  98.9095017
   6.3489987  34.6305006  98.0815017   7.3379987  36.5135006  98.0735017
   6.8719987  36.8145006  97.1435017   8.2759987  36.0255006  97.8495017
   7.7049987  37.8205006  98.8005017   8.5359987  38.7255006  97.9405017
   9.3699987  38.1595006  97.5485017   8.9019987  39.5305006  98.5605017
   7.9159987  39.1275006  97.1535017   6.4379987  38.5115006  99.2185017
   5.8109987  37.7975006  99.7305017   5.9499987  38.9085006  98.3465017
   6.7129987  39.3125006  99.8895017   8.5239987  37.4955006  99.9895017
   7.9659987  36.8335006 100.6355017   8.7569987  38.4065006 100.5195017
   9.4399987  37.0155006  99.6765017   8.3749987  33.4115006 101.3295017
   9.0539987  34.1345006  98.9705017   8.6419987  31.6535006  97.3175017
   9.3649987  31.0055006  96.6455017   9.4799987  29.7625006  96.5845017
  10.0439987  32.2265006  95.9495017  10.4379987  32.8095006  96.7755017
  10.9099987  31.8245006  95.4295017   9.2349987  33.0225006  95.0675017
   8.7239987  32.3875006  94.3525017   8.4569987  33.5415006  95.6175017
  10.0909987  34.0235006  94.3185017   9.5179987  34.9335006  94.1585017
  10.9259987  34.2985006  94.9575017  10.6339987  33.5205006  93.0105017
  11.5529987  32.9755006  93.2185017   9.9419987  32.7985006  92.5845017
  10.9279987  34.5585006  91.9935017  10.1189987  35.2745006  91.8635017
  11.8119987  35.1415006  92.2435017  11.1759987  33.8405006  90.6885017
  11.8179987  32.9785006  90.8625017  10.2469987  33.4525006  90.2805017
  11.7679987  34.6725006  89.7385017  12.7259987  35.0705006  90.0525017
  11.9429987  34.1625006  88.7925017  10.8049987  35.7365006  89.5205017
  10.3999987  36.3605006  90.3025017  10.4029987  35.9765006  88.2985017
   9.6569987  36.7515006  88.1965017  10.8249987  35.3325006  86.9675017
  10.4549987  35.8475006  86.0825017  11.8809987  35.1555006  86.7965017
  10.2039987  34.1895006  87.0635017  10.7329987  33.4665006  87.6825017
   9.2119987  34.2925006  87.4985017  10.0789987  33.6605006  85.6805017
   9.2159987  34.0295006  85.1255017  10.9419987  33.8195006  85.0405017
   9.9219987  32.2935006  85.9195017  10.7619987  31.9545006  86.5215017
   9.0309987  32.1425006  86.5265017   9.8209987  31.4955006  84.7215017
   8.7389987  31.3975006  84.6565017  10.0969987  32.2425006  83.9815017
  10.4119987  30.2015006  84.3725017  11.4569987  30.3595006  84.1115017
  10.4149987  29.5755006  85.2635017   9.7799987  29.4745006  83.3075017
  10.2059987  28.4765006  83.2455017   8.7369987  29.3345006  83.5825017
   9.8369987  30.1005006  82.0145017   9.2639987  29.5345006  81.2865017
  10.8539987  30.1725006  81.6435017   9.4269987  31.1055006  82.0485017
  96.3469987  99.5195006  82.7655017  96.7869987  99.3585006  81.7865017
  95.2969987  99.7565006  82.6215017  96.4009987  98.5805006  83.3105017
  97.0609987 100.6255006  83.5145017  97.0119987 101.5365006  82.9215017
  98.1139987 100.3655006  83.5885017  96.4849987 100.9015006  84.9145017
  95.5869987 101.5045006  84.7795017  97.2029987 101.5405006  85.4245017
  96.1619987  99.7095006  85.8245017  97.0919987  99.1775006  86.0105017
  95.5249987  99.0195006  85.2725017  95.5039987 100.0395006  87.1785017
  94.5259987 100.4975006  87.0565017  96.1049987 100.7485006  87.7455017
  95.3469987  98.7295006  87.9985017  96.3279987  98.3015006  88.1965017
  94.8059987  97.9915006  87.4105017  94.6149987  98.9525006  89.3265017
  93.9979987  99.8415006  89.2115017  95.3669987  99.1985006  90.0745017
  93.7429987  97.7915006  89.8445017  93.0119987  97.5515006  89.0735017
  93.1749987  98.1535006  90.6995017  94.4919987  96.5235006  90.2395017
  95.4469987  96.7775006  90.6935017  94.7239987  95.9325006  89.3545017
  93.6809987  95.6745006  91.2115017  92.8439987  95.2415006  90.6675017
  93.2479987  96.3325006  91.9645017  94.4659987  94.5895006  91.8955017
  93.8639987  94.0855006  92.6485017  95.3359987  94.9845006  92.4185017
  94.9209987  93.5545006  90.8725017  95.5919987  94.0105006  90.1485017
  94.0639987  93.1935006  90.3075017  95.5989987  92.3665006  91.5395017
  95.7689987  91.5825006  90.8035017  94.9639987  91.9315006  92.3065017
  96.9399987  92.7305006  92.1545017  96.8299987  93.5905006  92.8075017
  97.6239987  93.0225006  91.3615017  97.5369987  91.6385006  92.8995017
  97.6259987  90.7585006  92.2755017  96.9289987  91.3935006  93.7625017
  98.4869987  91.9235006  93.8985017  99.5679987  91.4855006  93.6925017
  97.9629987  92.4515006  94.9995017  98.6959987  92.5655006  96.2055017
  99.6829987  92.8295006  95.8645017  98.7519987  91.6315006  96.7455017
  98.1049987  93.7125006  97.1165017  98.8819987  93.9115006  97.8375017
  96.8919987  93.1765006  97.8085017  97.1869987  92.4045006  98.5055017
  96.2329987  92.7405006  97.0725017  96.2229987  94.2185006  98.4565017
  95.8639987  94.1505006  99.9745017  94.6249987  95.1155006  99.9805017
  94.4299987  96.1925006  99.1035017  95.1859987  96.1925006  98.3285017
  94.4019987  97.1715006  99.5635017  93.0689987  95.9035006  98.4975017
  92.4159987  95.5815006  99.2945017  92.6979987  96.8325006  98.0855017
  93.0069987  94.8105006  97.4395017  93.7179987  94.9215006  96.7355017
  93.1929987  93.8825006  97.9815017  92.1089987  94.7695006  96.9895017
  95.3649987  92.7925006 100.3115017  96.9799987  94.7125006 100.7455017
  97.7649987  95.0995006  96.3495017  98.3349987  96.4555006  95.7635017
  99.4669987  96.9855006  95.7835017  97.5559987  97.0915006  95.2095017
  96.6759987  96.5485006  94.8815017  97.1859987  97.9715006  95.7295017
  98.4649987  97.4865006  94.0265017  98.1549987  98.4665006  93.6805017
  99.4789987  97.6055006  94.3955017  98.4529987  96.5595006  92.9045017
  99.0659987  95.7015006  93.1695017  97.4359987  96.1865006  92.8085017
  98.8879987  97.1135006  91.5745017  98.2179987  97.9245006  91.2935017
  99.8799987  97.5515006  91.6485017  98.8879987  96.0775006  90.4495017
  99.5769987  95.2575006  90.6425017  97.9059987  95.6255006  90.3275017
  99.2709987  96.7615006  89.1535017  98.7189987  97.6995006  89.1135017
 100.3229987  97.0265006  89.2085017  99.0319987  95.9805006  87.8655017
  98.0079987  95.6265006  87.8655017  99.1159987  96.6775006  87.0325017
  99.9999987  94.8445006  87.6435017 101.0059987  95.1125006  87.3575017
  99.7319987  93.5415006  87.7805017 100.4379987  92.7405006  87.6125017
  98.3619987  93.0745006  88.2035017  98.5429987  92.2725006  88.9175017
  97.8929987  93.8775006  88.7615017  97.3849987  92.5565006  87.1345017
  97.8629987  91.6685006  86.7225017  96.5259987  92.2025006  87.7005017
  96.9109987  93.4325006  86.0165017  96.4519987  94.3175006  86.4575017
  97.7789987  93.7825006  85.4655017  95.9109987  92.7745006  85.0385017
  96.4259987  92.1725006  84.2935017  95.2259987  92.1025006  85.5525017
  95.1039987  93.8905006  84.3465017  94.5119987  94.3375006  85.1425017
  95.8399987  94.6395006  84.0685017  94.1639987  93.6075006  83.1585017
  93.4619987  94.4345006  83.0655017  94.7539987  93.6075006  82.2435017
  93.3779987  92.3145006  83.2225017  94.0269987  91.4445006  83.2885017
  92.7679987  92.2985006  84.1235017  92.4639987  92.1745006  82.0095017
  91.8369987  91.2925006  82.0985017  93.0259987  92.0815006  81.0865017
  91.8099987  93.0365006  81.9115017  14.3189987  12.0195006  80.4315017
  14.4949987  11.8555006  79.3735017  14.6049987  11.1145006  80.9595017
  14.9839987  12.8145006  80.7575017  13.0389987  12.3355006  80.6685017
  12.5629987  11.4825006  80.1885017  12.9499987  13.1655006  79.9735017
  12.2239987  12.6905006  82.1045017  11.1559987  12.6125006  81.9015017
  12.4129987  13.7395006  82.3225017  12.5599987  11.8725006  83.3435017
  13.6129987  11.9415006  83.6065017  12.3479987  10.8115006  83.2245017
  11.7159987  12.4375006  84.5195017  11.2919987  11.5555006  84.9925017
  10.8909987  12.9415006  84.0195017  12.3039987  13.3835006  85.6355017
  11.5449987  13.6305006  86.3755017  12.6339987  14.3295006  85.2105017
  13.4779987  12.7065006  86.3265017  14.3249987  12.6435006  85.6455017
  13.2179987  11.6805006  86.5835017  13.8849987  13.4205006  87.5405017
  13.0019987  13.6955006  88.1165017  14.3749987  14.3545006  87.2705017
  14.8069987  12.6095006  88.4045017  15.4679987  11.9405006  87.8585017
  14.3059987  11.9965006  89.1525017  15.6169987  13.6525006  89.0875017
  16.0849987  14.3115006  88.3595017  16.4289987  13.2015006  89.6565017
  14.6809987  14.5085006  90.0865017  13.8949987  13.8625006  90.4735017
  14.1769987  15.2975006  89.5295017  15.4919987  15.1795006  91.3785017
  16.1259987  14.4135006  91.8185017  14.7559987  15.4375006  92.1375017
  16.3339987  16.4485006  91.0495017  15.7369987  17.0595006  90.3745017
  17.2109987  16.1415006  90.4865017  16.7759987  17.3315006  92.2205017
  15.8999987  17.5185006  92.8325017  17.0679987  18.2855006  91.7885017
  17.9329987  16.8235006  93.1265017  18.8089987  16.5975006  92.5315017
  17.6319987  15.9275006  93.6565017  17.5299987  16.2375006  94.4905017
  18.1769987  15.4295006  95.1215017  16.3299987  16.6515006  94.8005017
  15.9759987  16.3795006  96.1735017  16.7639987  16.8105006  96.7725017
  15.8809987  15.3315006  96.4165017  14.6869987  17.1045006  96.4125017
  14.8609987  18.1375006  96.1605017  14.2749987  16.9845006  97.9295017
  14.9529987  17.6485006  98.4485017  14.5369987  15.9625006  98.1715017
  12.9229987  17.2545006  98.3075017  12.3709987  16.5745006  99.6215017
  13.4189987  15.4365006  99.9555017  13.0239987  14.2535006 100.6485017
  12.1959987  14.4375006 101.3205017  13.8479987  13.9035006 101.2635017
  12.7089987  13.0805006  99.6855017  11.8979987  13.3925006  99.0395017
  12.3869987  12.2215006 100.2565017  13.8039987  12.5795006  98.7605017
  15.0779987  12.2875006  99.5115017  15.3299987  13.1505006 100.1125017
  15.8579987  12.1075006  98.7865017  14.9339987  11.4045006 100.1155017
  13.3199987  11.3365006  98.1165017  12.3379987  11.5215006  97.7095017
  13.3009987  10.5475006  98.8465017  14.0109987  11.0945006  97.3215017
  14.0419987  13.6525006  97.7665017  13.1219987  13.8595006  97.2395017
  14.7949987  13.3255006  97.0655017  14.3819987  14.5445006  98.2725017
  12.2309987  17.5205006 100.7465017  11.1269987  15.9295006  99.1645017
  13.6259987  16.6005006  95.5195017  13.1909987  17.7405006  94.9915017
  13.3669987  18.7465006  95.5045017  12.1479987  17.8155006  93.9725017
  12.4029987  16.9145006  93.4235017  11.2779987  17.5615006  94.5735017
  11.8459987  18.9995006  93.0305017  10.8109987  18.9935006  92.7075017
  12.0039987  19.9585006  93.5145017  12.7649987  18.8795006  91.7895017
  12.9849987  19.9285006  91.6105017  13.6519987  18.4595006  92.2565017
  12.5219987  18.1485006  90.4415017  12.4249987  17.0905006  90.6775017
  11.5549987  18.4645006  90.0575017  13.5899987  18.3035006  89.3095017
  13.8449987  19.3585006  89.3835017  14.4319987  17.7585006  89.7325017
  13.4289987  17.8665006  87.6395017  13.3709987  16.7885006  87.7785017
  12.4109987  18.2105006  87.4785017  14.3169987  18.1945006  86.2885017
  14.1889987  17.5935006  85.3955017  14.3839987  19.2295006  85.9545017
  15.5949987  17.8355006  87.0075017  15.5849987  18.7495006  87.5825017
  16.5239987  17.0575006  87.2095017  17.3009987  16.9715006  87.9555017
  16.5579987  16.0355006  86.2135017  16.6359987  15.0155006  86.5845017
  15.8039987  16.0185006  85.4345017  18.0699987  16.4765006  85.5345017
  18.2449987  16.7585006  84.4965017  19.0409987  16.1995006  85.9415017
  17.5599987  15.8115006  85.5615017  17.7699987  14.8925006  85.0145017
  17.0159987  15.5165006  86.4545017  16.3569987  17.0445006  84.3925017
  15.3469987  17.0845006  84.7955017  16.7269987  18.0685006  84.3955017
  16.3249987  16.5305006  82.9705017  17.2919987  16.7555006  82.5235017
  16.2609987  15.4465006  83.0105017  14.7159987  17.3535006  81.6005017
  14.7829987  18.3855006  81.2615017  14.4119987  16.7705006  80.7335017
  13.3139987  17.2345006  82.9475017  12.6969987  16.7785006  82.1775017
  13.8959987  16.4235006  83.3795017  12.3229987  17.8895006  84.1475017
  11.7199987  17.1165006  84.6135017  11.6439987  18.6365006  83.7495017
  12.9139987  18.3625006  84.9265017 104.2319987  47.5245006  83.0075017
 104.0069987  46.8305006  82.2035017 103.2979987  47.9805006  83.3225017
 104.6149987  46.9465006  83.8445017 105.1519987  48.4885006  82.6015017
 104.7999987  49.1085006  81.7785017 106.1029987  48.0715006  82.2835017
 105.3409987  49.3255006  83.7885017 105.8489987  48.8315006  84.6165017
 104.4129987  49.7205006  84.1975017 106.1709987  50.4665006  83.3145017
 105.8289987  50.8275006  82.3475017 107.2149987  50.1875006  83.1805017
 106.0789987  51.5965006  84.3115017 105.0239987  51.8525006  84.3585017
 106.5749987  52.4325006  83.8215017 106.6169987  51.4545006  85.7335017
 107.0219987  52.4135006  86.0515017 107.4539987  50.7595006  85.7235017
 105.5679987  50.9745006  86.7665017 105.4699987  49.8925006  86.6975017
 104.5949987  51.3855006  86.5025017 105.9059987  51.3625006  88.2165017
 105.8559987  52.4455006  88.3225017 106.9349987  51.0825006  88.4365017
 104.9699987  50.7075006  89.2495017 104.9229987  49.6345006  89.0735017
 103.9559987  51.0815006  89.1145017 105.4189987  50.9675006  90.6995017
 105.5739987  52.0365006  90.8295017 106.3889987  50.4965006  90.8585017
 104.4289987  50.4495006  91.7505017 104.5549987  49.3755006  91.8675017
 103.4059987  50.5985006  91.4095017 104.6049987  51.1075006  93.1195017
 104.1409987  52.0905006  93.1015017 105.6669987  51.2765006  93.2885017
 104.0479987  50.2815006  94.2855017 103.0299987  49.9725006  94.0535017
 103.9859987  50.8805006  95.1895017 104.8719987  49.0185006  94.5775017
 105.9179987  49.2935006  94.6655017 104.7909987  48.3625006  93.7155017
 104.4489987  48.2365006  95.8275017 103.3979987  47.9805006  95.7765017
 104.6199987  48.8285006  96.7185017 105.4349987  47.0905006  96.0365017
 106.2009987  46.6815006  95.1865017 105.3129987  46.5745006  97.2685017
 106.2679987  45.5265006  97.5765017 106.6339987  45.1225006  96.6465017
 105.7539987  44.7505006  98.1245017 107.4409987  46.1145006  98.4115017
 108.1289987  45.3325006  98.6855017 106.9029987  46.8085006  99.6585017
 106.4359987  46.0705006 100.2975017 106.1419987  47.5105006  99.3335017
 107.9369987  47.4785006 100.3415017 107.7029987  48.7345006 101.2475017
 107.4429987  49.8025006 100.1705017 108.5219987  50.2865006  99.4195017
 109.3469987  49.6115006  99.2205017 108.8879987  51.0825006 100.0475017
 108.0119987  50.9255006  98.1125017 107.3929987  51.7795006  98.3425017
 107.1779987  49.9275006  97.4105017 107.7659987  49.6505006  96.6225017
 106.8979987  49.1255006  98.0135017 106.3469987  50.3425006  97.0315017
 109.1909987  51.5155006  97.3235017 106.4799987  48.5035006 102.0355017
 108.9589987  48.8725006 101.9885017 108.1379987  47.1125006  97.6435017
 109.3579987  46.7625006  97.2805017 110.0449987  45.8885006  97.7875017
 109.2709987  51.2615006  96.0945017 109.9679987  52.2705006  97.9555017
 109.7289987  47.5265006  96.0275017 108.9789987  48.2965006  95.8795017
 110.6669987  48.0515006  96.1875017 109.8239987  46.5795006  94.8235017
 110.3339987  45.6995006  95.1985017 108.8039987  46.2705006  94.6165017
 110.5109987  47.0435006  93.5115017 111.5489987  47.2105006  93.7885017
 110.5039987  46.1555006  92.8845017 109.9879987  48.2325006  92.6845017
 108.9569987  48.0495006  92.3885017 109.9779987  49.1495006  93.2685017
 110.8189987  48.4615006  91.4185017 110.6459987  49.4685006  91.0435017
 111.8749987  48.4125006  91.6775017 110.5439987  47.4605006  90.3165017
 110.8749987  46.4635006  90.6025017 109.4839987  47.3785006  90.0915017
 111.2899987  47.8995006  89.0345017 112.2359987  48.3455006  89.3185017
 111.5319987  47.0065006  88.4605017 110.5219987  48.7945006  88.1955017
 110.4619987  49.8295006  88.4975017 109.8889987  48.4515006  87.0675017
 109.3559987  49.2365006  86.5505017 109.8079987  47.0965006  86.3875017
 109.8089987  46.3275006  87.1575017 108.8769987  46.9805006  85.8445017
 110.9739987  46.8335006  85.4515017 111.7519987  46.3705006  86.0575017
 110.6289987  46.0645006  84.7625017 111.5739987  47.9975006  84.6495017
 111.8069987  48.8475006  85.2905017 112.5049987  47.7215006  84.1615017
 110.5749987  48.4185006  83.6165017 110.3289987  47.5685006  82.9845017
 109.6459987  48.7185006  84.0985017 111.0929987  49.5725006  82.7595017
 111.6369987  50.2825006  83.3785017 111.8049987  49.2165006  82.0195017
 109.9529987  50.3265006  82.0695017 109.1759987  49.6345006  81.7495017
 109.4769987  51.0145006  82.7665017 110.4269987  51.1205006  80.8525017
 111.0709987  51.9285006  81.1905017 111.0649987  50.4555006  80.2735017
 109.3139987  51.6995006  79.9085017 109.7559987  52.1675006  79.0335017
 108.7089987  52.4495006  80.4075017 108.6479987  50.9145006  79.5625017
 103.1489987  28.2195006  78.6465017 103.4809987  28.4885006  77.6485017
 102.6019987  29.0655006  79.0525017 102.4509987  27.3915006  78.5515017
 104.3219987  27.8455006  79.5355017 105.0269987  28.6695006  79.6335017
 104.8819987  27.0125006  79.1195017 103.7819987  27.4785006  80.9175017
 103.2659987  26.5185006  80.9015017 103.0479987  28.2095006  81.2495017
 104.9089987  27.4265006  81.9415017 105.4189987  28.3865006  81.9905017
 105.6659987  26.6975006  81.6575017 104.3789987  27.0885006  83.3195017
 103.6589987  26.2835006  83.1965017 103.8129987  27.9575006  83.6505017
 105.3699987  26.6995006  84.3945017 106.3469987  27.1625006  84.2685017
 105.5469987  25.6275006  84.4515017 104.7749987  27.1585006  85.6535017
 103.7259987  26.8705006  85.6045017 104.7939987  28.2465006  85.6075017
 105.3429987  26.7145006  86.9445017 106.3869987  26.9705006  86.7695017
 105.2659987  25.6375006  86.8055017 104.9989987  27.0395006  88.2885017
 104.1989987  26.3225006  88.4605017 104.5149987  28.0035006  88.1355017
 105.8979987  27.1145006  89.5435017 106.4189987  28.0665006  89.4655017
 106.6539987  26.3415006  89.4095017 105.2759987  26.9715006  90.9275017
 104.7469987  26.0225006  90.9755017 104.5229987  27.7455006  91.0675017
 106.2509987  27.0235006  92.0575017 106.6489987  28.0335006  92.1175017
 107.0919987  26.3805006  91.8025017 105.7209987  26.6085006  93.3675017
 106.4319987  26.8285006  94.1625017 105.5249987  25.5415006  93.4205017
 104.5039987  27.3235006  93.6505017 103.6949987  27.2335006  92.9325017
 104.6169987  28.3825006  93.8645017 104.1259987  26.6295006  94.8985017
 104.9329987  26.6785006  95.6185017 103.9009987  25.5885006  94.6985017
 104.8589987  27.1045006  96.1675017 105.5009987  26.3065006  96.8045017
 104.7649987  28.4075006  96.4705017 105.3719987  28.8805006  97.6485017
 105.2329987  28.1315006  98.4095017 104.9389987  29.8105006  97.9895017
 106.8699987  29.0515006  97.3335017 107.2819987  28.0925006  97.0625017
 107.6059987  29.6085006  98.5345017 108.6769987  29.5035006  98.4235017
 107.3029987  29.0975006  99.4365017 107.2189987  31.0025006  98.6295017
 107.2439987  31.4535006 100.1025017 106.8949987  32.9905006 100.0285017
 106.3139987  33.5755006  98.8595017 105.5309987  34.2455006  99.1935017
 105.8809987  32.8305006  98.2045017 107.3829987  34.3675006  98.0685017
 106.9399987  35.2535006  97.6385017 108.1879987  34.6555006  98.7305017
 107.9359987  33.5775006  96.9085017 108.2089987  32.6465006  97.1775017
 107.1129987  33.5095006  96.1955017 108.7229987  34.0345006  96.4795017
 106.4169987  30.6615006 101.0235017 108.6859987  31.3365006 100.2155017
 107.0069987  29.9385006  96.2015017 108.1869987  29.8875006  95.6305017
 109.0909987  29.1365006  95.8975017 108.2689987  30.9355006  94.5215017
 108.5169987  31.8885006  94.9775017 109.0919987  30.7025006  93.8505017
 106.9289987  30.9925006  93.7575017 106.4619987  30.0185006  93.8495017
 106.2759987  31.6885006  94.2755017 107.0189987  31.3695006  92.2685017
 107.6619987  32.2355006  92.1375017 107.4899987  30.5565006  91.7225017
 105.6749987  31.6325006  91.6665017 105.7429987  32.0315006  90.6565017
 105.0319987  30.7575006  91.6055017 105.0219987  32.6465006  92.5245017
 105.0409987  32.4205006  93.5885017 105.4459987  33.6435006  92.4195017
 103.6539987  32.6755006  92.0655017 103.3349987  33.4905006  92.7135017
 103.8499987  33.1165006  91.0925017 102.5169987  31.6695006  91.9245017
 103.1019987  30.9735006  91.3355017 102.5739987  31.3225006  92.9555017
 100.9449987  31.6645006  91.4565017 100.4059987  32.1295006  92.2685017
 100.2629987  31.2865006  90.4475017  99.1969987  31.3945006  90.3115017
 100.8919987  30.6875006  89.4135017 101.6149987  30.0025006  89.8525017
 100.1809987  30.0735006  88.8725017 101.5259987  31.4675006  88.5695017
 101.4429987  30.8165006  87.7005017 100.7369987  32.2105006  88.4685017
 103.0509987  32.2575006  88.5505017 103.0599987  32.7995006  89.4965017
 103.7599987  31.4415006  88.6615017 103.5959987  33.3465006  87.2435017
 102.6859987  33.8725006  86.9655017 104.2229987  34.0735006  87.7575017
 104.3719987  32.8195006  85.8965017 105.4139987  32.8995006  86.2005017
 104.1389987  31.7585006  85.9115017 104.2599987  33.3355006  84.5395017
 103.2529987  33.4775006  84.1505017 104.7999987  34.2545006  84.3215017
 104.9739987  32.0995006  83.7095017 105.6459987  32.6345006  83.0425017
 105.6049987  31.6795006  84.4895017 104.3029987  30.9485006  82.9435017
 105.0449987  30.2455006  82.5765017 103.7409987  31.3045006  82.0865017
 103.6169987  30.4015006  83.5835017  99.9409987  78.0275006  80.7925017
  99.9149987  77.1915006  80.1005017  99.2569987  78.7855006  80.4215017
  99.5579987  77.6775006  81.7475017 101.3799987  78.5925006  80.9415017
 101.5139987  78.7325006  79.8705017 101.8029987  77.6195006  81.1775017
 102.1639987  79.7295006  81.7175017 101.3839987  80.1295006  82.3655017
 102.3049987  80.4645006  80.9275017 103.5569987  79.6045006  82.5645017
 103.9299987  80.6155006  82.4175017 104.1189987  78.9735006  81.8785017
 103.8849987  79.1345006  84.1525017 104.8619987  79.5305006  84.4165017
 103.9869987  78.0505006  84.1435017 102.8439987  79.5515006  85.2695017
 101.8879987  79.7285006  84.7795017 103.1609987  80.5105006  85.6745017
 102.6409987  78.5255006  86.4555017 103.5079987  78.4775006  87.1125017
 102.4729987  77.5105006  86.0985017 101.4319987  78.9825006  87.2535017
 100.5679987  78.9885006  86.5895017 101.5919987  80.0165006  87.5545017
 101.1159987  78.1525006  88.4745017 102.0019987  78.0605006  89.0985017
 100.8489987  77.1395006  88.1755017  99.9809987  78.7495006  89.2955017
  99.0749987  78.8715006  88.7065017 100.2299987  79.7375006  89.6815017
  99.7199987  77.8095006  90.4615017 100.5849987  77.8275006  91.1215017
  99.6449987  76.7885006  90.0905017  98.5019987  78.1315006  91.2715017
  98.3689987  77.3285006  91.9925017  97.6479987  78.0805006  90.5985017
  98.4829987  79.5395006  92.0115017  99.2439987  80.0825006  91.4535017
  98.9249987  79.2995006  92.9745017  97.2729987  80.4985006  92.2325017
  96.5229987  80.0255006  91.6075017  97.6259987  81.3735006  91.6925017
  96.6189987  80.9625006  93.5405017  97.3559987  81.4085006  94.1955017
  96.1619987  80.1235006  94.0525017  96.7779987  80.2705006  94.8825017
  96.1999987  79.2935006  95.2685017  97.6439987  80.9295006  95.5945017
  97.9609987  80.1645006  96.7735017  97.0389987  79.7025006  97.0945017
  98.3029987  80.8415006  97.5425017  99.0369987  79.0725006  96.4695017
  98.6559987  78.3175006  95.8015017  99.4589987  78.4265006  97.8055017
 100.1639987  77.6205006  97.6525017  98.5859987  78.0325006  98.3115017
 100.0559987  79.4745006  98.5815017 100.6679987  79.0685006  99.9735017
 101.2849987  80.4195006 100.5085017 100.7149987  81.6695006 100.1695017
 100.9289987  82.4265006 100.9125017  99.6339987  81.5755006 100.1285017
 101.1339987  82.1415006  98.7605017 100.7319987  83.1375006  98.6265017
 100.7349987  81.4995006  97.9885017 102.6059987  82.2545006  98.4825017
 103.1579987  80.9385006  98.0185017 102.8599987  80.1725006  98.7205017
 104.2349987  81.0165006  98.0005017 102.7929987  80.7365006  97.0225017
 102.8239987  83.3795006  97.5175017 102.3009987  84.2505006  97.8825017
 102.4669987  83.0835006  96.5475017 103.8859987  83.5735006  97.4825017
 103.3279987  82.7055006  99.7015017 102.9299987  83.6575006 100.0185017
 104.3779987  82.8105006  99.4735017 103.1999987  81.9755006 100.4875017
  99.5889987  78.6715006 100.8805017 101.7769987  78.1125006  99.7295017
 100.1689987  79.7075006  95.8305017 100.8989987  78.9075006  95.0945017
 100.7159987  77.7245006  94.8895017 102.0409987  79.7145006  94.5165017
 102.5419987  80.2195006  95.3355017 102.7809987  79.0475006  94.0815017
 101.5089987  80.7005006  93.4765017 100.9449987  80.1695006  92.7175017
 100.8149987  81.4005006  93.9305017 102.6139987  81.4365006  92.8315017
 103.3899987  81.5485006  93.5845017 103.0159987  80.7615006  92.0795017
 102.3259987  82.7805006  92.1735017 101.5799987  83.3155006  92.7585017
 103.2139987  83.4085006  92.1655017 101.8099987  82.6435006  90.7545017
 100.7379987  82.4785006  90.8415017 101.9299987  83.6305006  90.3115017
 102.4109987  81.5975006  89.7975017 102.4269987  80.6385006  90.3125017
 101.7529987  81.4755006  88.9415017 103.7759987  81.9125006  89.3055017
 103.8419987  82.9935006  89.3345017 104.4429987  81.5435006  90.0835017
 104.2349987  81.3835006  87.9975017 104.2479987  80.3115006  87.8675017
 104.6259987  82.1325006  86.9495017 104.9229987  81.6565006  86.0265017
 104.6959987  83.6435006  86.9145017 104.7569987  84.0935006  87.9035017
 105.4949987  84.0855006  86.3305017 103.4759987  83.9855006  86.3575017
 102.7119987  83.6865006  87.0745017 103.4539987  85.0735006  86.3265017
 103.1079987  83.4155006  84.9225017 103.6019987  84.1745006  84.3165017
 103.7619987  82.5475006  84.9155017 101.6879987  83.0275006  84.2395017
 101.7289987  83.7015006  83.3865017 101.9419987  82.0395006  83.8595017
 100.1099987  82.9945006  84.8785017  99.9459987  81.9225006  84.9725017
 100.2859987  83.3575006  85.8875017  98.7719987  83.6475006  84.2865017
  98.7619987  84.7075006  84.5335017  98.8109987  83.5915006  83.2005017
  97.4929987  83.0445006  84.7435017  97.6429987  82.0025006  85.0165017
  97.1879987  83.5485006  85.6575017  96.3539987  83.1455006  83.7225017
  95.4259987  82.7695006  84.1425017  96.5609987  82.5715006  82.8255017
  96.1879987  84.1765006  83.4235017  -1.2020013  78.4705006  81.9935017
  -0.8530013  78.6625006  80.9835017  -0.5620013  79.0225006  82.6755017
  -2.2050013  78.8795006  82.0795017  -1.1890013  76.9815006  82.3095017
  -0.1680013  76.6395006  82.1505017  -1.7930013  76.5035006  81.5435017
  -1.6590013  76.5395006  83.7055017  -2.6010013  77.0485006  83.9095017
  -0.9410013  76.9365006  84.4205017  -1.8280013  75.0355006  83.9695017
  -0.8770013  74.5295006  83.8175017  -2.5210013  74.5985006  83.2515017
  -2.3220013  74.7385006  85.4045017  -2.7150013  73.7265006  85.4555017
  -3.1540013  75.4015006  85.6355017  -1.2370013  74.9025006  86.4675017
  -0.6770013  75.8205006  86.3005017  -0.5160013  74.0905006  86.4035017
  -1.8420013  74.9285006  87.8665017  -1.9440013  73.9175006  88.2565017
  -2.8470013  75.3475006  87.8395017  -0.9820013  75.7485006  88.8175017
  -1.1640013  76.8085006  88.6475017   0.0699987  75.5815006  88.5925017
  -1.2390013  75.4235006  90.2815017  -1.0280013  74.3745006  90.4785017
  -2.2910013  75.5725006  90.5235017  -0.3860013  76.2895006  91.1955017
   0.6469987  75.9575006  91.1135017  -0.6850013  76.1045006  92.2265017
  -0.4790013  77.7945006  90.9055017  -1.5220013  78.0955006  90.8315017
  -0.0270013  78.0315006  89.9435017   0.1869987  78.6325006  91.9945017
   0.0359987  79.6855006  91.7705017   1.2609987  78.4635006  91.9515017
  -0.2960013  78.3235006  93.3965017   0.2199987  78.9035006  94.1595017
  -0.2020013  77.2815006  93.6905017  -1.7890013  78.7225006  93.4235017
  -2.3040013  78.3435006  92.5465017  -1.8760013  79.8055006  93.3965017
  -2.4920013  78.2095006  94.6805017  -1.9750013  78.5485006  95.5695017
  -2.5160013  77.1265006  94.6835017  -2.7340013  76.7765006  94.3815017
  -3.2380013  76.3595006  93.3595017  -2.2020013  76.0685006  95.3575017
  -1.9320013  74.7195006  94.9575017  -1.6500013  74.7435006  93.9155017
  -2.8410013  74.1455006  95.0645017  -0.7760013  74.1045006  95.8195017
  -0.7110013  73.0675006  95.5345017  -1.0800013  74.2175006  97.3505017
  -2.0140013  73.7205006  97.5755017  -1.1790013  75.2685006  97.5935017
  -0.0000013  73.6275006  98.1035017   0.0839987  73.7515006  99.6535017
   1.1899987  74.8435006  99.8515017   2.1169987  75.2345006  98.8565017
   2.2839987  74.4615006  98.1185017   3.0819987  75.4405006  99.3105017
   1.7059987  76.5185006  98.2065017   0.9199987  76.3945006  97.4725017
   2.5789987  76.9235006  97.7155017   1.2269987  77.5865006  99.1395017
  -0.2180013  77.3725006  99.4725017  -0.7710013  77.2525006  98.5505017
  -0.5720013  78.2475006  99.9975017  -0.3060013  76.5065006 100.1105017
   2.0169987  78.0825006 100.2985017   3.0119987  78.3245006  99.9565017
   2.0369987  77.3235006 101.0605017   1.5249987  78.9705006 100.6685017
   1.3739987  78.5765006  98.2895017   2.4049987  78.6215006  97.9705017
   1.1039987  79.5025006  98.7735017   0.7329987  78.4155006  97.4345017
  -1.1740013  74.3845006 100.0855017   0.4759987  72.5375006 100.3985017
   0.4949987  74.7635006  95.6175017   1.0339987  74.6515006  94.4075017
   0.5689987  74.0285006  93.4745017   2.3129987  75.4835006  94.3335017
   2.0349987  76.4505006  93.9275017   2.6629987  75.6755006  95.3445017
   3.4089987  74.7925006  93.4855017   3.6399987  73.8305006  93.9305017
   3.0189987  74.5795006  92.4955017   4.7069987  75.6205006  93.3715017
   5.0849987  75.8055006  94.3735017   5.4479987  74.9965006  92.8775017
   4.5889987  76.9465006  92.5995017   3.7999987  77.5225006  93.0795017
   5.5069987  77.5105006  92.7425017   4.2829987  76.8685006  91.0915017
   3.3539987  76.3295006  90.9215017   4.1269987  77.8725006  90.7005017
   5.4089987  76.2035006  90.2965017   6.3539987  76.6595006  90.5855017
   5.4799987  75.1535006  90.5675017   5.2389987  76.3075006  88.7615017
   4.8759987  77.2835006  88.4615017   6.1919987  76.1655006  88.2535017
   4.2859987  75.2105006  88.3205017   4.5249987  74.2895006  88.8295017
   3.2519987  75.1865006  87.4685017   2.7299987  74.2485006  87.3395017
   2.7139987  76.2795006  86.6715017   1.6769987  76.3945006  86.9825017
   3.2179987  77.1975006  86.9505017   2.7429987  76.1265006  85.1505017
   1.6769987  76.2315006  84.9515017   3.1939987  77.0855006  84.9015017
   3.3109987  75.0765006  84.2675017   3.9959987  74.5675006  84.9455017
   2.4629987  74.4105006  84.1365017   4.0029987  75.2915006  82.9195017
   3.5389987  76.1395006  82.4205017   5.0419987  75.5695006  83.0895017
   3.9529987  74.0815006  82.0275017   2.9509987  73.9595006  81.6195017
   4.6099987  74.2045006  81.1705017   4.3199987  72.7735006  82.7985017
   5.2689987  72.9465006  83.3025017   3.5799987  72.6425006  83.5855017
   4.4229987  71.4425006  81.9895017   3.4869987  71.2105006  81.4875017
   5.1609987  71.5615006  81.1995017   4.8219987  70.2935006  82.8475017
   4.9729987  69.3995006  82.2495017   4.0679987  70.0625006  83.5925017
   5.7509987  70.5015006  83.3715017   6.5919987  30.4645006  81.1735017
   6.7729987  30.6365006  80.1165017   5.6239987  30.8925006  81.4185017
   6.5249987  29.3905006  81.3275017   7.3579987  30.8865006  81.7675017
   7.4619987  31.9705006  81.7675017   8.3619987  30.4835006  81.6615017
   6.7849987  30.4655006  83.0195017   6.8409987  29.3875006  83.1725017
   5.7309987  30.7265006  83.0965017   7.4489987  31.0865006  84.0035017
   7.1509987  32.1325006  84.0235017   8.5159987  31.0815006  83.7855017
   7.2089987  30.4775006  85.4055017   7.3329987  29.4065006  85.2675017
   6.1479987  30.6415006  85.5845017   7.9769987  30.8995006  86.5995017
   7.4989987  31.8775006  86.6235017   8.8939987  31.0235006  86.0285017
   8.3149987  30.4855006  87.9845017   9.2929987  30.7725006  88.3665017
   8.1859987  29.4335006  88.2365017   7.2929987  31.2665006  88.6525017
   6.3769987  31.2915006  88.0635017   7.6079987  32.3015006  88.7685017
   7.0039987  30.6995006  89.9725017   6.8669987  29.6225006  89.9055017
   6.0709987  31.1005006  90.3675017   8.1339987  31.0045006  90.9465017
   8.2749987  32.0805006  91.0245017   9.0729987  30.5995006  90.5695017
   7.8519987  30.4165006  92.3195017   6.7749987  30.4065006  92.4715017
   8.2589987  31.0815006  93.0795017   8.3869987  28.9925006  92.5525017
   9.3849987  28.9075006  92.1295017   7.7639987  28.2865006  92.0065017
   8.4039987  28.5915006  94.0185017   9.0319987  29.2795006  94.5815017
   8.8369987  27.6045006  94.1535017   7.0209987  28.6125006  94.6335017
   6.8149987  29.6655006  94.7935017   7.1749987  28.1695006  95.6135017
   5.7969987  27.9515006  93.9865017   5.9919987  26.9055006  93.7865017
   5.5509987  28.4435006  93.0535017   4.5739987  28.0135006  94.9195017
   3.9619987  29.0295006  95.1895017   4.2839987  26.7865006  95.2355017
   3.2619987  26.5335006  96.2005017   2.5809987  25.8235006  95.7615017
   2.7379987  27.4635006  96.3675017   3.8459987  25.9715006  97.5355017
   3.0819987  25.3175006  97.9255017   4.1479987  27.0745006  98.5425017
   4.2789987  26.6185006  99.5145017   3.2889987  27.7285006  98.5835017
   5.2619987  27.8155006  98.1785017   5.9959987  28.3155006  99.4595017
   7.1169987  27.4025006 100.0635017   7.9909987  26.7285006  99.0795017
   8.6409987  27.4335006  98.5755017   7.5019987  26.1115006  98.3375017
   8.7729987  25.8725006  99.9515017   9.4819987  25.2825006  99.3905017
   9.2999987  26.4485006 100.6995017   7.8609987  24.8925006 100.6185017
   7.0519987  25.3375006 101.0195017   7.5339987  24.2235006  99.8215017
   8.3299987  24.3655006 101.3355017   7.0059987  28.6195006  98.6105017
   5.3629987  29.3915006 100.2455017   5.0919987  25.2705006  97.3735017
   4.9559987  24.1095006  96.8075017   3.9689987  23.6485006  96.2935017
   6.2629987  23.3735006  97.0145017   6.9789987  24.0395006  97.4845017
   6.1399987  22.5385006  97.6995017   6.7379987  22.8975006  95.6505017
   7.6349987  22.3015006  95.7785017   5.9959987  22.2345006  95.2175017
   7.0359987  24.0525006  94.6795017   6.1059987  24.5755006  94.4705017
   7.6729987  24.7625006  95.2015017   7.7189987  23.6565006  93.3715017
   8.6069987  23.0805006  93.6245017   7.0689987  22.9835006  92.8175017
   8.1279987  24.7825006  92.4735017   7.2709987  25.3625006  92.1365017
   8.7789987  25.4795006  92.9975017   8.8679987  24.2395006  91.2735017
   9.8759987  23.9675006  91.5835017   8.3929987  23.3225006  90.9365017
   8.9439987  25.1845006  90.1285017   9.7759987  25.8075006  90.4375017
   9.3259987  24.5285006  89.3475017   7.8629987  25.9885006  89.5745017
   7.4089987  26.8675006  90.0075017   7.4199987  25.6045006  88.4355017
   6.6339987  26.1055006  87.8895017   7.9709987  24.4005006  87.7435017
   9.0579987  24.3695006  87.6915017   7.6559987  23.4215006  88.0875017
   7.4449987  24.6355006  86.3675017   7.5509987  23.7555006  85.7335017
   6.3819987  24.8705006  86.3845017   8.2049987  25.8005006  85.7505017
   8.1709987  26.6965006  86.3705017   9.2569987  25.5845006  85.5865017
   7.5159987  26.0955006  84.3815017   7.4359987  25.1835006  83.7945017
   6.4979987  26.4535006  84.5285017   8.2579987  27.0745006  83.6595017
   7.6819987  27.2445006  82.7515017   8.1659987  27.9855006  84.2435017
   9.6809987  26.8615006  83.2665017  10.3579987  27.4285006  83.9025017
   9.9679987  25.8175006  83.3755017   9.9219987  27.2945006  81.7635017
  10.4349987  28.2485006  81.8625017  10.6819987  26.5805006  81.4545017
   8.7899987  27.4035006  80.5815017   9.2509987  27.6395006  79.6265017
   8.0589987  28.1775006  80.7895017   8.2529987  26.4655006  80.4675017
 106.5189987  22.0585006  80.8715017 106.2389987  21.0275006  80.6765017
 105.7789987  22.6975006  80.3985017 106.4559987  22.2205006  81.9445017
 107.9099987  22.3575006  80.3565017 107.9949987  22.2095006  79.2815017
 108.6619987  21.7195006  80.8125017 108.1889987  23.8015006  80.6815017
 107.4039987  24.3835006  80.1975017 109.1119987  24.0495006  80.1615017
 108.3199987  24.2475006  82.1465017 107.3279987  24.3145006  82.5875017
 108.7379987  25.2515006  82.1915017 109.1479987  23.3315006  82.9755017
 110.1099987  23.2055006  82.4855017 108.6669987  22.3545006  82.9615017
 109.3849987  23.7615006  84.4415017 108.5449987  23.3645006  85.0085017
 109.2769987  24.8435006  84.4565017 110.7219987  23.3665006  85.1535017
 110.7989987  24.1035006  85.9515017 111.4779987  23.6355006  84.4165017
 111.0129987  22.0805006  85.6745017 111.5149987  22.0115006  86.6385017
 111.4989987  21.3535006  85.0265017 109.5249987  21.6955006  85.8455017
 109.6349987  20.7345006  85.3485017 109.1749987  22.3925006  85.0845017
 108.5489987  21.5875006  86.8645017 107.9969987  22.4505006  86.4995017
 109.2219987  21.9595006  87.6365017 107.5019987  20.4845006  87.5375017
 107.9639987  19.5025006  87.4585017 106.6049987  20.4465006  86.9225017
 107.0889987  20.7225006  89.0515017 106.6519987  21.7115006  89.1625017
 107.9819987  20.7135006  89.6735017 106.1569987  19.6975006  89.5505017
 106.5039987  19.5445006  90.5705017 106.4409987  18.8075006  88.9955017
 104.7619987  19.7915006  89.5795017 104.2399987  18.8805006  89.8545017
 104.3239987  20.1355006  88.6465017 104.5239987  20.8305006  90.6275017
 105.0629987  21.7385006  90.3905017 104.8539987  20.4725006  91.5955017
 104.7809987  20.4075006  92.1075017 104.6619987  19.2725006  92.5045017
 104.7529987  21.5255006  92.8115017 104.8489987  21.4255006  94.2385017
 104.0899987  20.7555006  94.6125017 104.6849987  22.4105006  94.6515017
 106.2349987  20.9065006  94.5985017 106.1889987  19.8385006  94.4665017
 106.8799987  21.2395006  95.9615017 107.8219987  20.7155006  96.0515017
 106.2109987  20.8865006  96.7355017 107.0789987  22.6485006  96.0805017
 108.1119987  23.0945006  97.2125017 107.4609987  22.5155006  98.5485017
 106.1559987  22.9195006  98.9165017 105.4069987  22.6215006  98.1945017
 106.1059987  24.0025006  98.9825017 105.7979987  22.4105006 100.3285017
 105.6739987  21.3345006 100.3245017 104.8589987  22.8675006 100.6065017
 106.7519987  22.7085006 101.4545017 107.4139987  24.0345006 101.2535017
 107.8289987  24.0655006 100.2555017 108.2079987  24.1245006 101.9805017
 106.6869987  24.8165006 101.4125017 106.0089987  22.7655006 102.7465017
 105.3959987  21.8815006 102.8285017 105.4139987  23.6605006 102.7695017
 106.7419987  22.7825006 103.5405017 107.8659987  21.7045006 101.4825017
 107.4499987  20.7145006 101.5965017 108.5179987  21.9205006 102.3155017
 108.4269987  21.7625006 100.5605017 109.3739987  22.3665006  97.0465017
 108.1479987  24.5685006  97.3055017 107.1389987  21.5325006  93.5885017
 108.0809987  20.6615006  93.4605017 107.8759987  19.5435006  93.8065017
 109.3959987  21.0305006  92.8185017 109.9569987  20.1145006  92.6635017
 109.2169987  21.4405006  91.8275017 110.1519987  22.0195006  93.6915017
 109.4789987  22.8535006  93.8585017 110.2879987  21.5455006  94.6585017
 111.4899987  22.5505006  93.1815017 111.9279987  23.2085006  93.9275017
 112.1749987  21.7125006  93.0755017 111.3959987  23.2535006  91.8755017
 112.3719987  23.7255006  91.7825017 111.3739987  22.4525006  91.1405017
 110.3079987  24.3025006  91.5075017 109.3389987  23.8535006  91.7185017
 110.4189987  25.1265006  92.2095017 110.3069987  24.8865006  90.0405017
 110.2679987  25.9715006  90.1265017 111.2609987  24.6495006  89.5775017
 109.1779987  24.4085006  89.1115017 109.2949987  24.9285006  88.1675017
 109.3619987  23.3545006  88.9055017 107.8289987  24.5515006  89.6235017
 107.5979987  24.6785006  90.6705017 106.8079987  24.5425006  88.7765017
 105.7999987  24.6315006  89.1545017 106.8919987  24.4235006  87.3045017
 106.6629987  25.3675006  86.8135017 107.8579987  24.1105006  86.9235017
 105.8529987  23.4245006  86.9055017 106.3319987  22.4465006  86.9365017
 105.1129987  23.4245006  87.7035017 105.1499987  23.6025006  85.5725017
 104.6239987  24.5575006  85.5735017 105.8879987  23.6635006  84.7775017
 104.1709987  22.4955006  85.2655017 103.5309987  22.3675006  86.1355017
 103.5219987  22.8265006  84.4565017 104.7959987  21.1835006  84.8915017
 105.3749987  21.2625006  83.9735017 105.4869987  20.8195006  85.6475017
 103.6949987  20.1665006  84.6625017 104.1659987  19.1865006  84.7085017
 103.0379987  20.2265006  85.5285017 102.8489987  20.2335006  83.4145017
 102.4929987  21.2325006  83.1775017 103.4039987  19.9015006  82.5395017
 101.6749987  19.3195006  83.6165017 101.0739987  19.2585006  82.7135017
 101.0269987  19.6625006  84.4155017 102.0009987  18.3135006  83.8655017
  -1.2130013  84.8955006  80.8205017  -1.3740013  85.8045006  80.2485017
  -1.9610013  84.8625006  81.6075017  -1.3940013  84.0525006  80.1595017
   0.2869987  84.8435006  81.4345017   0.3379987  85.7775006  81.9915017
   0.8929987  84.9865006  80.5435017   0.8949987  83.6595006  82.3325017
   1.9619987  83.8055006  82.5015017   0.7999987  82.7075006  81.8145017
   0.1919987  83.5535006  83.6595017  -0.7190013  82.9705006  83.5465017
  -0.1200013  84.5375006  84.0075017   1.0599987  82.8975006  84.7195017
   1.8879987  83.5265006  85.0385017   1.5009987  81.9665006  84.3685017
   0.1659987  82.6085006  85.9235017  -0.5780013  81.8785006  85.6115017
  -0.3800013  83.5205006  86.1535017   0.8469987  82.1205006  87.1555017
   1.3979987  82.9745006  87.5445017   1.5949987  81.4055006  86.8145017
   0.0499987  81.5105006  88.2525017   0.6609987  81.0145006  89.0055017
  -0.6660013  80.7675006  87.9055017  -0.6730013  82.6245006  88.8735017
  -1.5130013  82.8775006  88.2305017  -0.0160013  83.4935006  88.8705017
  -1.1680013  82.3845006  90.2645017  -0.3190013  82.2895006  90.9375017
  -1.6980013  81.4335006  90.3055017  -2.1060013  83.5085006  90.7525017
  -3.0910013  83.2545006  90.3675017  -1.7990013  84.4095006  90.2255017
  -2.2340013  83.8105006  92.2135017  -3.1250013  84.4005006  92.4145017
  -1.3900013  84.4065006  92.5555017  -2.2710013  82.5275006  93.0075017
  -1.3870013  81.9215006  92.8165017  -3.1260013  81.9035006  92.7615017
  -2.3050013  82.8535006  94.4925017  -2.9750013  83.6975006  94.6235017
  -1.3080013  83.2005006  94.7515017  -2.7000013  81.7445006  95.4615017
  -2.0650013  80.8785006  95.3255017  -3.7300013  81.4495006  95.2985017
  -1.4950013  80.9645006  95.6775017  -0.6890013  80.6015006  94.8545017
  -1.4230013  80.7945006  96.9215017  -0.2120013  80.1865006  97.1125017
  -0.1330013  79.7795006  96.1155017  -0.2710013  79.3745006  97.8225017
   1.0009987  81.1025006  97.4165017   1.7419987  80.5925006  98.0085017
   0.5049987  82.3075006  98.1505017   1.3129987  82.8135006  98.6615017
  -0.2320013  82.0025006  98.8825017  -0.0740013  83.1485006  97.1995017
  -0.5390013  84.5725006  97.6295017   0.4059987  84.8965006  98.8975017
   1.6369987  85.6275006  98.7275017   1.4799987  86.5365006  98.1625017
   2.3309987  85.0225006  98.1515017   2.3709987  85.9235006 100.0715017
   1.7969987  86.6475006 100.6355017   3.3359987  86.3505006  99.8395017
   2.6479987  84.7525006 101.0475017   1.3989987  84.4005006 101.6785017
   0.9499987  85.2985006 102.0805017   1.6139987  83.7105006 102.4815017
   0.7609987  83.9215006 100.9505017   3.1849987  83.5535006 100.3525017
   4.0089987  83.8605006  99.7265017   2.3989987  83.1015006  99.7735017
   3.5309987  82.8675006 101.1125017   3.6039987  85.2355006 102.0745017
   4.5069987  85.5735006 101.5885017   3.8369987  84.4265006 102.7505017
   3.1589987  86.0505006 102.6265017  -0.2600013  85.4915006  96.5095017
  -1.9350013  84.3605006  98.0915017   1.6249987  81.2185006  96.1905017
   2.4339987  82.1595006  96.3925017   3.2019987  82.2095006  97.3545017
   2.2179987  82.8525006  95.0825017   3.2309987  82.6015006  94.7855017
   1.5929987  82.0395006  94.7225017   1.7799987  84.1535006  94.5185017
   0.7749987  84.3395006  94.8815017   2.4029987  84.9305006  94.9505017
   1.7899987  84.2695006  92.9665017   2.7839987  84.3295006  92.5305017
   1.2949987  83.4335006  92.4785017   1.0239987  85.5165006  92.6695017
   0.1459987  85.5595006  93.3115017   1.6139987  86.3995006  92.9025017
   0.5669987  85.6005006  91.2355017   0.7089987  84.6705006  90.6895017
  -0.4920013  85.8375006  91.1595017   1.3409987  86.6775006  90.5795017
   0.7619987  87.5955006  90.6695017   2.2569987  86.8365006  91.1415017
   1.7019987  86.4495006  89.1105017   0.7759987  86.4275006  88.5475017
   2.2439987  87.3325006  88.7745017   2.5469987  85.2225006  88.8235017
   2.3359987  84.4335006  89.5295017   3.4519987  84.9675006  87.8835017
   3.9529987  84.0135006  87.8105017   3.8389987  85.8935006  86.9045017
   3.5959987  86.7285006  87.5595017   4.8929987  85.6885006  87.0535017
   3.6139987  86.3215006  85.5035017   2.6429987  86.0045006  85.1255017
   3.6379987  87.4055006  85.4065017   4.6149987  85.7735006  84.7225017
   5.5659987  86.2395006  84.9785017   4.7229987  84.7165006  84.9515017
   4.3569987  85.9455006  83.2275017   3.6509987  85.1385006  83.0455017
   3.7779987  86.8665006  83.2095017   5.3899987  85.9855006  82.1255017
   5.8829987  86.9045006  82.4365017   6.0089987  85.1755006  82.5005017
   5.3659987  85.9625006  80.7355017   4.9779987  86.8965006  80.3325017
   6.3699987  85.8525006  80.3295017   4.5379987  84.8585006  80.2345017
   3.7379987  84.6115006  80.9285017   4.0469987  85.1655006  79.3135017
   5.3619987  83.6215006  79.9555017   4.7509987  82.8455006  79.5035017
   5.7939987  83.2095006  80.8615017   6.1769987  83.8415006  79.2715017
  18.9619987 102.9985006  82.3415017  20.0459987 103.0635006  82.3325017
  18.5699987 104.0115006  82.3385017  18.6509987 102.5225006  81.4155017
  18.4569987 102.2065006  83.5705017  18.8659987 102.7215006  84.4375017
  18.9639987 101.2475006  83.5185017  16.9509987 101.9965006  83.7725017
  16.5539987 101.3755006  82.9695017  16.4439987 102.9555006  83.6905017
  16.5839987 101.3605006  85.1425017  15.5049987 101.4295006  85.2635017
  17.0159987 101.9685006  85.9355017  17.0079987  99.8945006  85.3365017
  18.0849987  99.7935006  85.2275017  16.5629987  99.2795006  84.5555017
  16.5949987  99.3495006  86.7035017  15.5129987  99.2405006  86.7575017
  16.8699987 100.0485006  87.4905017  17.2469987  98.0105006  86.9745017
  18.2539987  97.9715006  86.5645017  16.6939987  97.1995006  86.5025017
  17.3049987  97.7775006  88.4365017  16.3669987  97.3335006  88.7695017
  17.3899987  98.7325006  88.9525017  18.3619987  96.9555006  88.8165017
  19.3179987  97.4735006  88.7845017  18.4639987  96.0885006  88.1645017
  18.0919987  96.4875006  90.2325017  19.0789987  96.0305006  90.2055017
  17.4049987  95.7555006  89.8085017  17.6759987  96.7855006  91.7235017
  16.8829987  97.5155006  91.5765017  18.5389987  97.3455006  92.0795017
  17.2059987  95.7465006  92.8665017  17.5169987  94.7575006  92.5395017
  16.1179987  95.7435006  92.8535017  17.6569987  95.9885006  94.2415017
  17.2019987  95.2245006  94.8695017  17.2519987  96.9395006  94.5775017
  19.1799987  95.9705006  94.4985017  19.7479987  96.6375006  93.8575017
  19.6149987  94.9805006  94.3865017  19.3409987  96.4065006  95.9375017
  18.7549987  95.7745006  96.5925017  19.0139987  97.4325006  96.0605017
  20.7389987  96.3055006  96.4665017  21.7049987  96.3575006  95.7365017
  20.7259987  96.2115006  97.7855017  21.9689987  96.0095006  98.4485017
  22.6389987  95.7005006  97.6605017  21.8469987  95.1955006  99.1485017
  22.5169987  97.2655006  99.1535017  23.4549987  97.0255006  99.6255017
  21.4929987  97.7015006 100.2165017  22.0029987  98.2355006 101.0065017
  21.0539987  96.8035006 100.6325017  20.4729987  98.5315006  99.6225017
  18.9639987  98.3545006 100.0535017  18.3349987  99.8185006  99.7575017
  18.9329987 100.9925006 100.3275017  20.0089987 100.9465006 100.2175017
  18.7319987 100.9825006 101.3945017  18.3749987 102.3605006  99.8175017
  18.8659987 103.1565006 100.3625017  17.3139987 102.4045006 100.0185017
  18.5339987 102.7035006  98.3605017  17.7529987 101.8475006  97.4195017
  17.9569987 100.8105006  97.6465017  18.0809987 102.0715006  96.4155017
  16.7039987 102.0835006  97.5195017  18.1679987 104.1275006  98.1475017
  18.6959987 104.7295006  98.8715017  17.1029987 104.2355006  98.2495017
  18.4769987 104.3945006  97.1475017  19.9639987 102.5335006  98.0085017
  20.5639987 103.1745006  98.6375017  20.1089987 102.8045006  96.9735017
  20.2519987 101.5025006  98.1555017  18.3099987  97.3625006  99.2025017
  18.9499987  98.0845006 101.5175017  22.7469987  98.3285006  98.2115017
  23.2499987  99.3795006  98.7905017  23.7509987  99.4655006  99.8965017
  23.3389987 100.5155006  97.8415017  22.3559987 100.6805006  97.4125017
  23.5899987 101.4305006  98.3715017  24.3809987 100.1955006  96.7745017
  24.7219987 101.1515006  96.3945017  25.2289987  99.7585006  97.2915017
  23.9809987  99.3205006  95.6185017  24.7399987  99.3985006  94.8445017
  24.0029987  98.2895006  95.9625017  22.5859987  99.6105006  95.0225017
  22.3339987  98.8015006  94.3395017  21.8369987  99.5865006  95.8105017
  22.4649987 100.9405006  94.2625017  22.6859987 101.7685006  94.9335017
  23.2239987 100.9715006  93.4835017  21.0829987 101.1625006  93.6135017
  20.3159987 101.0485006  94.3775017  21.0049987 102.1835006  93.2515017
  20.7849987 100.1965006  92.4405017  21.6849987 100.0735006  91.8495017
  20.5529987  99.2165006  92.8545017  19.6119987 100.6495006  91.5705017
  18.6489987 100.6265006  92.0575017  19.6439987 101.0805006  90.2865017
  18.7389987 101.3825006  89.7785017  20.8919987 101.1935006  89.4415017
  20.7249987 101.7995006  88.5525017  21.7549987 101.6195006  89.9415017
  21.2199987  99.7485006  88.9895017  21.2619987  99.1375006  89.8905017
  20.3549987  99.4005006  88.4275017  22.4959987  99.5185006  88.1515017
  23.3239987  99.9715006  88.6965017  22.6909987  98.4495006  88.1355017
  22.4829987 100.0605006  86.7045017  22.2459987 101.1195006  86.7735017
  23.5039987 100.0015006  86.3315017  21.5369987  99.3745006  85.7045017
  21.5959987  98.2925006  85.8105017  20.5009987  99.6365006  85.9025017
  21.8999987  99.7265006  84.2595017  21.7909987 100.7935006  84.0715017
  22.9399987  99.4875006  84.0455017  21.0169987  98.9675006  83.2735017
  19.9679987  99.0635006  83.5405017  21.1159987  99.4275006  82.2925017
  21.3799987  97.4835006  83.1605017  20.7899987  97.0005006  82.3875017
  21.1999987  96.9505006  84.0885017  22.4279987  97.3565006  82.9045017
  88.6519987   7.6685006  80.4665017  88.9169987   7.3145006  79.4755017
  88.2069987   8.6535006  80.3585017  87.8879987   7.0045006  80.8615017
  89.8679987   7.7105006  81.3825017  90.6029987   8.3505006  80.8975017
  90.2879987   6.7085006  81.3805017  89.6589987   8.1795006  82.7935017
  89.5639987   9.2645006  82.8195017  90.5369987   7.9395006  83.3895017
  88.4559987   7.5605006  83.4475017  88.5339987   6.4755006  83.4605017
  87.5369987   7.7905006  82.9105017  88.3409987   8.0495006  84.8575017
  88.0939987   9.1085006  84.8505017  89.3179987   7.9665006  85.3305017
  87.2939987   7.2955006  85.7125017  87.3729987   6.2355006  85.4785017
  86.3049987   7.6065006  85.3815017  87.4039987   7.4895006  87.2315017
  86.4039987   7.2525006  87.5885017  87.5179987   8.5675006  87.3395017
  88.3669987   6.8285006  88.0535017  89.3449987   7.3045006  88.0095017
  88.5199987   5.7915006  87.7605017  87.8479987   6.8745006  89.4925017
  86.9129987   6.3265006  89.5865017  87.6309987   7.8985006  89.7955017
  88.8689987   6.2845006  90.4305017  88.6479987   6.6435006  91.4335017
  89.8459987   6.6905006  90.1695017  88.9419987   4.7695006  90.4255017
  89.3889987   4.4125006  89.5005017  87.9489987   4.3255006  90.4715017
  89.7679987   4.2615006  91.5785017  89.5909987   3.1905006  91.6475017
  89.3439987   4.6985006  92.4815017  91.2939987   4.5505006  91.5565017
  91.4719987   5.5965006  91.3135017  91.8009987   3.9705006  90.7905017
  91.9499987   4.2605006  92.9255017  91.5579987   3.2905006  93.2145017
  91.4939987   4.9935006  93.5865017  93.3229987   4.2765006  93.1285017
  93.7409987   5.2245006  92.8155017  93.7969987   3.4835006  92.5625017
  93.7219987   5.7195006  93.3005017  93.4189987   6.6665006  92.5745017
  94.5299987   5.7335006  94.2735017  94.7179987   7.0345006  94.7515017
  94.6959987   7.5775006  93.8185017  95.7179987   7.0735006  95.1585017
  93.7109987   7.6205006  95.7255017  94.0589987   8.6005006  96.0055017
  93.5769987   6.7475006  96.9615017  94.5429987   6.5515006  97.4075017
  93.1249987   5.8035006  96.6845017  92.7579987   7.4335006  97.8545017
  91.4299987   6.8955006  98.4635017  91.2009987   8.1405006  99.4115017
  90.5009987   9.3025006  99.0125017  90.8749987   9.7195006  98.0865017
  90.6079987  10.0785006  99.7645017  88.9869987   9.0305006  98.9245017
  88.8079987   8.1935006  98.2625017  88.4699987   9.8965006  98.5365017
  88.3009987   8.6845006 100.2155017  88.5239987   7.2845006 100.6795017
  88.2959987   6.6105006  99.8655017  87.8539987   7.0965006 101.5055017
  89.5459987   7.1845006 101.0115017  88.7299987   9.6765006 101.2375017
  88.6029987  10.6665006 100.8285017  89.7549987   9.4885006 101.5005017
  88.0929987   9.5475006 102.1005017  86.8459987   8.8435006 100.0505017
  86.6299987   9.8605006  99.7585017  86.3569987   8.6245006 100.9875017
  86.4929987   8.1615006  99.2905017  90.3309987   6.8505006  97.4555017
  91.7129987   5.6995006  99.2845017  92.4619987   7.7845006  95.0545017
  91.9109987   8.9755006  95.1725017  92.2729987   9.8945006  95.8745017
  90.7909987   9.0905006  94.1515017  91.2289987   8.7165006  93.2325017
  90.0409987   8.3595006  94.4425017  90.1599987  10.4905006  93.9635017
  89.1009987  10.3875006  93.7535017  90.2289987  11.0625006  94.8835017
  90.8189987  11.2545006  92.8315017  90.8469987  12.3215006  93.0385017
  91.8539987  10.9405006  92.7215017  90.0929987  10.9965006  91.5245017
  90.0609987   9.9235006  91.3425017  89.0589987  11.3255006  91.5885017
  90.7389987  11.6565006  90.3425017  90.0389987  11.6885006  89.5105017
  90.9589987  12.6925006  90.5935017  91.9799987  11.0045006  89.9095017
  92.8299987  11.4015006  90.4615017  91.9589987   9.9365006  90.1065017
  92.1919987  11.2105006  88.4915017  91.3909987  10.8355006  87.8655017
  92.3209987  12.2595006  88.2285017  93.4929987  10.4775006  88.2145017
  94.0369987  11.3365006  87.8525017  94.1509987   9.3085006  88.2515017
  94.9719987   8.8855006  87.6915017  93.6529987   8.4765006  89.2375017
  94.2489987   8.1845006  90.1005017  92.6159987   8.3795006  89.5385017
  93.9459987   7.4955006  88.0985017  94.9639987   7.7425006  87.8005017
  94.0039987   6.5345006  88.6065017  93.0439987   7.3495006  86.8165017
  92.0429987   7.6485006  87.1275017  93.3859987   8.1105006  86.1205017
  92.9679987   6.0205006  86.1085017  94.0449987   5.8675006  86.0885017
  92.5979987   5.4665006  86.9695017  92.3549987   5.4715006  84.8725017
  92.5079987   4.4015006  84.7415017  91.2849987   5.6325006  84.7775017
  93.0579987   6.1575006  83.8015017  92.6839987   5.7955006  82.8455017
  92.8089987   7.2165006  83.8415017  94.5829987   6.0165006  83.8125017
  95.0269987   6.5245006  84.6645017  94.8489987   4.9675006  83.9215017
  95.1929987   6.5375006  82.5485017  96.2629987   6.3515006  82.5315017
  95.0469987   7.6065006  82.4385017  94.7599987   6.0535006  81.6775017
   9.6419987  97.4755006  82.6075017   9.3449987  97.8265006  81.6235017
   8.9259987  96.7215006  82.9205017  10.6089987  96.9895006  82.5075017
   9.7069987  98.6205006  83.6055017   8.7269987  99.0935006  83.6325017
  10.3919987  99.3625006  83.2045017  10.1209987  98.2355006  85.0325017
  10.4989987  99.1215006  85.5425017  10.9589987  97.5445006  84.9695017
   9.0279987  97.5945006  85.8805017   8.6519987  96.6925006  85.4015017
   8.1699987  98.2565006  85.9925017   9.5699987  97.2235006  87.2725017
   9.9089987  98.1165006  87.7925017  10.4449987  96.5855006  87.1595017
   8.5299987  96.5065006  88.1425017   8.1349987  95.6305006  87.6315017
   7.6779987  97.1525006  88.3415017   9.1549987  96.0795006  89.4625017
   8.3499987  96.0655006  90.1945017   9.8239987  96.8855006  89.7615017
   9.9129987  94.7435006  89.5175017  10.7649987  94.6715006  88.8425017
   9.3029987  93.8615006  89.3325017  10.4109987  94.7175006  90.9615017
   9.5589987  94.8295006  91.6295017  11.0449987  95.5865006  91.1305017
  11.1589987  93.4885006  91.3205017  11.8859987  93.2935006  90.5355017
  10.4649987  92.6485006  91.3095017  11.8499987  93.5435006  92.6625017
  12.4459987  92.6335006  92.6685017  11.0399987  93.3785006  93.3715017
  12.7119987  94.6775006  93.1485017  12.0339987  95.4095006  93.5805017
  13.1289987  95.1395006  92.2555017  13.8709987  94.3735006  94.1375017
  14.4239987  95.3025006  94.2675017  14.5529987  93.6785006  93.6555017
  13.5149987  93.8415006  95.5195017  12.7539987  93.0715006  95.4475017
  13.0939987  94.6455006  96.1175017  14.7559987  93.2665006  96.2655017
  15.5429987  94.0085006  96.3195017  15.1359987  92.3935006  95.7485017
  15.4699987  94.5395006  96.8765017  15.7159987  95.5475006  96.2515017
  15.8019987  94.3685006  98.0375017  16.3019987  95.1895006  99.1365017
  17.0489987  95.8165006  98.6735017  16.7679987  94.5955006  99.9085017
  15.1679987  96.0515006  99.7145017  15.6339987  96.6105006 100.5095017
  13.7559987  95.4615006 100.2155017  13.1529987  96.2925006 100.5555017
  13.9809987  94.8275006 101.0635017  13.0649987  94.7205006  99.2095017
  11.4959987  94.6095006  99.1735017  11.1359987  96.0725006  98.6815017
   9.8069987  96.3795006  98.2995017   9.2319987  95.5025006  98.0325017
   9.8079987  97.0245006  97.4255017   9.0939987  97.1955006  99.4065017
   9.2239987  96.7415006 100.3805017   8.0519987  97.1295006  99.1285017
   9.3849987  98.6905006  99.6005017  10.7459987  99.0175006 100.0925017
  10.9479987  98.4215006 100.9725017  10.7639987 100.0655006 100.3515017
  11.4589987  98.8265006  99.3045017   9.0969987  99.4685006  98.3465017
   8.1109987  99.2035006  97.9975017   9.8489987  99.2405006  97.6115017
   9.1299987 100.5175006  98.6025017   8.5229987  99.0965006 100.6975017
   7.4949987  98.8935006 100.4365017   8.6489987 100.1535006 100.8755017
   8.7899987  98.5465006 101.5885017  11.1449987  93.5775006  98.1855017
  10.9789987  94.3995006 100.5545017  15.0379987  96.9115006  98.6385017
  14.4059987  97.9715006  98.7375017  13.9419987  98.4765006  99.7565017
  14.4469987  98.5635006  97.3315017  15.2729987  99.2665006  97.2995017
  14.6949987  97.7805006  96.6185017  13.1109987  99.2305006  96.9775017
  12.3099987  98.6535006  97.4265017  13.0699987 100.2115006  97.4395017
  12.8549987  99.3545006  95.4635017  12.0579987 100.0755006  95.2975017
  13.7459987  99.7775006  95.0075017  12.5219987  98.0245006  94.7525017
  13.3649987  97.3475006  94.8795017  11.6729987  97.5465006  95.2355017
  12.2289987  98.1555006  93.2465017  11.9219987  97.1845006  92.8635017
  11.3699987  98.8135006  93.1275017  13.3779987  98.6945006  92.3975017
  13.7579987  99.6255006  92.8155017  14.2169987  98.0045006  92.3725017
  12.9019987  98.9405006  90.9595017  12.3579987  98.1055006  90.5325017
  12.2469987  99.8065006  90.8785017  14.1219987  99.2085006  90.2135017
  14.5879987 100.1565006  89.9915017  14.6759987  98.2175006  89.8105017
  15.6019987  98.1635006  89.2565017  14.0779987  96.9405006  90.0765017
  14.7969987  96.1295006  90.1755017  13.4129987  96.8635006  90.9295017
  13.1479987  96.6815006  88.5755017  12.4789987  95.8435006  88.7675017
  12.5119987  97.5575006  88.4645017  14.1049987  96.3775006  86.9235017
  14.6199987  97.3185006  86.7325017  14.8759987  95.6555006  87.1785017
  13.4349987  95.9575006  85.7325017  12.7509987  96.7565006  85.4545017
  14.1779987  95.9035006  84.9385017  12.7179987  94.6915006  85.8055017
  13.3759987  93.8985006  86.1565017  11.9009987  94.7375006  86.5205017
  12.1959987  94.2945006  84.4515017  11.6309987  95.1495006  84.0845017
  13.0699987  94.2115006  83.8085017  11.3379987  93.0295006  84.2745017
  11.6909987  92.1485006  84.8055017  10.3059987  93.1705006  84.5885017
  11.3609987  92.7675006  82.8085017  10.7079987  91.9375006  82.5545017
  12.3559987  92.5175006  82.4565017  11.0229987  93.6365006  82.2515017
  99.2769987   9.3125006  77.7695017  99.7659987   9.3055006  76.8005017
  99.4129987   8.3315006  78.2155017  99.7949987  10.0335006  78.3955017
  98.1399987   9.5795006  77.6715017  97.4819987   8.8805006  77.1585017
  97.8649987  10.5705006  77.3205017  97.9139987   9.4745006  79.1555017
  98.2409987  10.3675006  79.6885017  98.4719987   8.6455006  79.5865017
  96.5309987   9.2625006  79.4005017  96.4559987   8.1975006  79.1925017
  96.0909987   9.7685006  78.5425017  95.7439987   9.5615006  80.5955017
  95.5639987   8.6525006  81.1645017  94.7649987   9.9355006  80.2995017
  96.3919987  10.5425006  81.4635017  96.4359987  11.5325006  81.0135017
  97.4179987  10.2725006  81.7045017  95.5819987  10.6085006  82.7365017
  95.4409987   9.6305006  83.1925017  94.5849987  11.0165006  82.5755017
  96.3429987  11.5075006  83.7025017  95.7969987  12.4495006  83.7275017
  97.2979987  11.7215006  83.2255017  96.5939987  11.0245006  85.1515017
  97.1899987  10.1155006  85.0945017  95.6319987  10.7305006  85.5695017
  97.2849987  12.0345006  86.1125017  96.6459987  12.9125006  86.1855017
  98.2099987  12.3685006  85.6425017  97.6059987  11.4805006  87.5495017
  98.2029987  10.5845006  87.3955017  96.6589987  11.1445006  87.9685017
  98.3069987  12.3485006  88.5475017  98.0479987  13.3765006  88.3045017
  99.3719987  12.2485006  88.3475017  98.0579987  12.0775006  90.0535017
  97.2549987  12.7425006  90.3675017  98.9409987  12.3835006  90.6075017
  97.6719987  10.6245006  90.4735017  98.3669987   9.8565006  90.1505017
  96.6869987  10.3225006  90.1295017  97.6579987  10.6785006  91.9875017
  96.9949987  11.4615006  92.3325017  98.6539987  10.8725006  92.3675017
  97.3279987   9.3005006  92.5045017  96.9119987   8.3935006  91.8035017
  97.5079987   9.2725006  93.7965017  97.6039987   8.0615006  94.6485017
  97.9469987   7.4065006  93.8625017  96.5499987   7.8935006  94.8135017
  98.4709987   7.7965006  96.0365017  98.1939987   6.8095006  96.3685017
  97.8769987   8.8335006  96.9575017  98.3709987   8.7375006  97.9155017
  96.8359987   8.5585006  97.0745017  97.9859987  10.1635006  96.4745017
  98.9539987  11.2375006  97.0995017  98.4259987  11.3325006  98.6265017
  98.9999987  12.4195006  99.3785017  98.7579987  13.3515006  98.8835017
 100.0789987  12.3115006  99.3205017  98.6749987  12.4955006 100.9155017
  99.0499987  13.4485006 101.2685017  99.2249987  11.7035006 101.4035017
  97.2519987  12.3945006 101.4325017  97.3369987  11.9935006 102.8775017
  97.9749987  11.1235006 102.9575017  96.3409987  11.7465006 103.2135017
  97.7169987  12.8255006 103.4505017  96.4889987  13.6765006 101.3655017
  96.5909987  14.0845006 100.3715017  96.8719987  14.3525006 102.1095017
  95.4529987  13.4465006 101.5665017  96.4829987  11.3595006 100.6715017
  96.4819987  11.6175006  99.6225017  95.4679987  11.3305006 101.0385017
  96.9449987  10.3925006 100.8105017 100.3319987  10.6695006  97.1235017
  98.7339987  12.5225006  96.4125017  99.9549987   7.9065006  96.0575017
 100.3739987   8.6175006  95.1155017  99.7349987   9.4065006  94.4695017
 101.7899987   8.4635006  94.4875017 101.7999987   9.5405006  94.3525017
 102.1969987   8.2845006  95.4795017 102.6209987   7.7375006  93.4065017
 103.6039987   8.1435006  93.6215017 102.6189987   6.7285006  93.8055017
 102.4229987   7.6985006  91.9405017 103.4039987   7.8285006  91.4915017
 102.1179987   6.6805006  91.7115017 101.2929987   8.7875006  91.2195017
 100.4489987   8.7775006  91.9075017 101.7479987   9.7705006  91.3115017
 100.7079987   8.6085006  89.6695017 100.4039987   9.6295006  89.4475017
 101.6379987   8.4445006  89.1285017  99.5769987   7.5675006  89.0955017
  99.9109987   6.5935006  89.4515017  98.6709987   7.8015006  89.6475017
  99.2469987   7.4755006  87.6675017  98.3929987   6.8095006  87.6255017
  98.8759987   8.4665006  87.4095017 100.2369987   7.1005006  86.7205017
  99.8299987   6.1485006  86.4135017 101.3419987   7.4815006  86.1555017
 101.9119987   6.9265006  85.4245017 101.9049987   8.7525006  86.4905017
 101.3259987   9.2605006  87.2605017 102.9279987   8.7265006  86.8475017
 101.8359987   9.5685006  85.2375017 102.3059987  10.5425006  85.3665017
 102.3699987   9.0795006  84.4245017 100.3719987   9.7565006  84.8365017
  99.8899987   8.7855006  84.7215017  99.8259987  10.2755006  85.6195017
 100.2509987  10.5325006  83.5365017 100.9409987  10.1165006  82.8055017
  99.2529987  10.4025006  83.1215017 100.5249987  12.0095006  83.7235017
 100.0269987  12.3555006  84.6275017 101.5869987  12.1725006  83.8885017
 100.0379987  12.8715006  82.5605017  98.9969987  12.6225006  82.3605017
 100.0429987  13.9115006  82.8815017 100.8189987  12.7645006  81.2605017
 101.7769987  13.2585006  81.4025017 101.0459987  11.7085006  81.1335017
 100.1689987  13.2795006  79.9885017 100.7899987  13.0655006  79.1245017
 100.0129987  14.3525006  80.0185017  99.2029987  12.8105006  79.8255017
  29.9969987 105.0595006  77.1565017  30.7489987 105.5795006  76.5715017
  29.2289987 104.7105006  76.4725017  30.4679987 104.1845006  77.5965017
  29.4579987 105.8875006  78.1405017  28.8569987 106.7435006  77.8385017
  30.0979987 106.2335006  78.9475017  28.5399987 104.7825006  78.6375017
  28.3919987 104.4065006  77.6255017  27.7329987 105.4905006  78.8175017
  28.3809987 103.4615006  79.7715017  28.6379987 102.6015006  79.1575017
  27.3049987 103.4095006  79.9285017  29.0889987 103.3335006  81.1055017
  30.0619987 102.9165006  80.8595017  28.5389987 102.5445006  81.6155017
  29.4579987 105.5895006  82.9335017  28.6449987 105.8145006  83.6205017
  29.7629987 106.5405006  82.5005017  30.6929987 104.9605006  83.7575017
  31.7299987 105.2095006  83.5375017  30.6959987 103.9305006  84.1105017
  30.2309987 105.7835006  84.7615017  29.1439987 105.8415006  84.8015017
  30.5869987 106.8085006  84.6735017  30.7149987 105.2225006  85.9725017
  31.7939987 105.3035006  86.0835017  30.4769987 104.1655006  86.0835017
  30.0539987 105.9865006  87.0505017  30.7029987 106.8575006  87.1145017
  30.2819987 105.3715006  87.9205017  28.5829987 106.4215006  87.1115017
  27.9639987 105.6445006  86.6675017  28.4349987 107.3115006  86.5015017
  28.0769987 106.6905006  88.5245017  28.7399987 107.3595006  89.0685017
  28.0289987 105.7715006  89.1055017  26.6869987 107.2855006  88.4455017
  26.0939987 106.6505006  87.7895017  26.7439987 108.2555006  87.9605017
  25.9309987 107.4325006  89.7715017  24.9579987 107.8665006  89.5675017
  26.4749987 108.1515006  90.3785017  25.7449987 106.1205006  90.6015017
  26.7029987 105.6515006  90.7885017  25.1139987 105.4215006  90.0655017
  25.2479987 106.4195006  91.9735017  24.4709987 107.3045006  92.0395017
  25.5399987 105.5375006  92.9345017  25.1649987 105.9175006  94.2885017
  24.1829987 106.3535006  94.1985017  25.8499987 106.6585006  94.6725017
  25.1219987 104.6955006  95.1925017  24.3619987 103.9975006  94.8835017
  24.8799987 105.1445006  96.6685017  24.3919987 104.3185006  97.1685017
  24.1759987 105.9665006  96.6015017  26.0559987 105.5445006  97.3775017
  26.0499987 105.8665006  98.9495017  25.3749987 104.5255006  99.4535017
  26.1429987 103.5185006 100.0945017  25.5749987 102.9955006 100.8565017
  26.9379987 104.0585006 100.5845017  26.7979987 102.5155006  99.1135017
  27.4119987 103.0485006  98.4025017  25.7709987 101.8675006  98.4055017
  25.7749987 100.9275006  98.8045017  24.8479987 102.3425006  98.4895017
  25.9929987 101.7805006  97.4305017  27.6799987 101.5485006  99.8585017
  27.4229987 105.9645006  99.4755017  25.0759987 106.9465006  99.2465017
  26.3819987 104.0335006  95.0485017  26.3009987 102.7095006  94.9325017
  25.2959987 102.0885006  94.8035017  27.3959987 100.3245006  99.9245017
  28.6769987 102.1135006 100.3505017  27.5709987 101.9875006  95.0715017
  28.2889987 102.7775006  95.2685017  27.4819987 101.4285006  95.9995017
  28.0169987 101.0825006  93.9245017  29.0869987 100.9195006  93.9885017
  27.5579987 100.1035006  94.0205017  27.6859987 101.6755006  92.5705017
  26.6069987 101.7985006  92.5215017  28.1069987 102.6785006  92.5585017
  28.1769987 100.9345006  91.3545017  29.2199987 100.6735006  91.5275017
  27.6389987  99.9935006  91.2675017  28.0839987 101.6675006  90.0505017
  28.9629987 102.3075006  90.1015017  28.3289987 100.8715006  89.3505017
  26.9119987 102.4625006  89.4925017  26.0989987 102.6675006  90.1875017
  27.1399987 103.4035006  89.0005017  26.4559987 101.5055006  88.4835017
  27.0399987 101.5805006  87.5735017  26.5759987 100.4835006  88.8415017
  25.0499987 101.7425006  88.2235017  24.3789987 101.3275006  88.9605017
  24.5059987 102.4015006  87.2215017  23.4289987 102.4845006  87.1825017
  25.1829987 103.0515006  86.1365017  26.2279987 103.0825006  86.4395017
  25.1349987 102.3915006  85.2775017  24.7609987 104.4705006  85.7145017
  23.7019987 104.3935006  85.4695017  24.8189987 105.0595006  86.6285017
  25.4859987 105.2035006  84.6025017  26.5389987 104.9535006  84.7365017
  25.1739987 104.7185006  83.6815017  25.3489987 106.6525006  84.4605017
  25.5529987 107.1875006  85.3855017  26.0139987 107.0765006  83.7105017
  23.9179987 106.8785006  84.0405017  23.2639987 106.4015006  84.7675017
  23.6939987 107.9405006  84.0915017  23.5579987 106.3305006  82.6505017
  23.7329987 105.2585006  82.5735017  22.5069987 106.4825006  82.4125017
  24.3819987 107.0215006  81.6155017  24.3259987 108.0995006  81.7425017
  25.4249987 106.7585006  81.7775017  23.9969987 106.6535006  80.1655017
  24.6799987 107.1125006  79.4575017  22.9959987 106.9875006  79.9145017
  24.0339987 105.5785006  80.0125017  81.9639987   7.2925006  79.4225017
  82.7299987   6.5255006  79.3655017  82.4619987   8.2495006  79.5485017
  81.4459987   7.3145006  78.4675017  80.9739987   7.0165006  80.5885017
  81.5819987   6.9555006  81.4895017  80.5869987   6.0165006  80.4135017
  79.8319987   7.9835006  80.8225017  78.9729987   7.8405006  80.1675017
  80.1159987   9.0295006  80.7225017  79.4119987   7.7335006  82.2605017
  79.2039987   6.6665006  82.2975017  78.4489987   8.2325006  82.3625017
  80.2959987   8.0985006  83.4445017  80.6839987   9.0935006  83.2425017
  81.1469987   7.4215006  83.3935017  79.7229987   8.0715006  84.8385017
  78.6419987   7.9545006  84.7935017  79.9049987   9.0225006  85.3345017
  80.3079987   6.9635006  85.6625017  81.3249987   6.7915006  85.3155017
  79.7529987   6.0535006  85.4395017  80.3219987   7.1875006  87.1685017
  81.1069987   7.9045006  87.4045017  80.6039987   6.2565006  87.6555017
  78.9929987   7.6815006  87.7535017  78.2209987   6.9375006  87.5705017
  78.6789987   8.5815006  87.2255017  79.0669987   7.9775006  89.2585017
  78.1319987   8.4695006  89.5185017  79.8509987   8.7225006  89.3915017
  79.3219987   6.8065006  90.2045017  80.1579987   6.2265006  89.8195017
  78.4609987   6.1405006  90.1915017  79.6379987   7.2055006  91.6695017
  80.0859987   8.1955006  91.6415017  80.4169987   6.5295006  92.0175017
  78.4789987   7.1785006  92.6755017  77.6079987   7.7035006  92.2865017
  78.7259987   7.6565006  93.6195017  78.0749987   5.7265006  92.9425017
  78.9579987   5.2165006  93.3145017  77.8499987   5.2975006  91.9695017
  76.8909987   5.4455006  93.8885017  76.0059987   5.9725006  93.5545017
  77.1279987   5.7675006  94.8955017  77.3839987   5.2605006  95.3085017
  77.6749987   6.1605006  96.0845017  77.3209987   3.9885006  95.6845017
  77.6259987   3.9255006  97.1035017  76.7499987   3.3285006  97.2975017
  77.5859987   4.8225006  97.7035017  78.8429987   3.1555006  97.3895017
  78.5949987   2.3035006  96.7785017  79.1849987   2.6955006  98.8615017
  78.5129987   1.8945006  99.1385017  78.9929987   3.5435006  99.5105017
  80.5289987   2.2815006  98.9695017  81.4779987   2.2575006 100.1635017
  81.6799987   3.8025006 100.2705017  82.0879987   4.5875006  99.1775017
  81.9019987   4.2315006  98.1695017  83.1469987   4.7675006  99.2765017
  81.3869987   5.8885006  99.4175017  81.5889987   6.1895006 100.4345017
  79.8849987   5.7665006  99.2495017  79.7119987   6.2565006  98.3705017
  79.5499987   4.7805006  99.2405017  79.3919987   6.2615006  99.9705017
  82.1289987   6.6475006  98.4575017  80.6069987   1.7535006 101.2335017
  82.7299987   1.5785006  99.8395017  79.8929987   3.8415006  96.6155017
  80.4929987   3.4945006  95.3885017  80.1179987   2.8005006  94.5015017
  81.4559987   6.7585006  97.4055017  83.2139987   7.2255006  98.8035017
  81.7489987   4.1145006  95.1085017  81.6289987   5.1885006  95.2075017
  82.4849987   3.8275006  95.8555017  82.2109987   3.7125006  93.6875017
  82.3629987   2.6415006  93.6155017  81.4679987   3.9615006  92.9355017
  83.5009987   4.4135006  93.3805017  83.3589987   5.4845006  93.4965017
  84.2299987   4.1205006  94.1315017  84.0739987   4.1095006  92.0035017
  85.0979987   4.4735006  91.9475017  84.1219987   3.0385006  91.8245017
  83.2689987   4.7625006  90.8795017  82.2559987   4.3665006  90.8345017
  83.1689987   5.8315006  91.0545017  83.9579987   4.5505006  89.5275017
  84.9399987   5.0215006  89.5365017  84.1259987   3.4935006  89.3385017
  83.1239987   5.1325006  88.3665017  82.2389987   4.5255006  88.2165017
  82.7719987   6.1245006  88.6475017  83.9309987   5.2485006  87.0875017
  84.8969987   5.7225006  87.1755017  83.5709987   4.8115006  85.8665017
  84.1919987   4.9165006  84.9885017  82.2619987   4.1265006  85.6115017
  81.5419987   4.4555006  86.3595017  81.8429987   4.3955006  84.6485017
  82.3799987   2.6845006  85.6995017  83.2419987   2.3065006  85.1515017
  82.5059987   2.3555006  86.7295017  81.1349987   2.0845006  85.1425017
  81.3849987   1.0425006  85.3435017  80.4619987   2.3935006  85.9375017
  80.4229987   2.1775006  83.8185017  79.7319987   3.0105006  83.9255017
  81.1759987   2.4965006  83.0995017  79.6919987   0.9655006  83.2715017
  80.1639987   0.0155006  83.5135017  78.6549987   0.8695006  83.5815017
  79.7689987   1.1555006  81.7625017  80.8489987   1.0865006  81.6445017
  79.3699987   0.1895006  81.4585017  79.1049987   2.5005006  80.5515017
  79.6799987   2.2925006  79.6525017  78.1069987   2.1115006  80.3615017
  79.0199987   3.8825006  80.7395017  78.5179987   4.3555006  79.9015017
  79.9989987   4.3405006  80.8315017  78.4589987   4.1205006  81.6385017
 101.4099987  89.4195006  78.5885017 100.5859987  89.3005006  77.8915017
 101.7859987  88.4295006  78.8295017 102.2029987  89.9555006  78.0735017
 100.9779987  90.1505006  79.8225017 100.1469987  89.5635006  80.2095017
 100.5489987  91.0755006  79.4455017 102.0179987  90.4685006  81.0335017
 103.0069987  90.8415006  80.7665017 102.1819987  89.6715006  81.7565017
 101.2009987  91.6185006  81.7345017 100.3549987  91.6185006  81.0515017
 101.8349987  92.4495006  81.4285017 100.6619987  91.8815006  83.2145017
  99.5839987  91.7715006  83.2955017 100.8929987  92.8885006  83.5585017
 101.2699987  90.9635006  84.0495017 101.1099987  89.9615006  83.6565017
 100.7869987  90.9895006  85.0235017 102.6759987  91.1885006  84.2135017
 102.8809987  92.1735006  84.6285017 103.2049987  91.1435006  83.2625017
 103.2029987  90.1785006  85.1005017 102.9239987  89.1765006  84.7775017
 102.8159987  90.2905006  86.1115017 104.7039987  90.2905006  85.1285017
 105.0159987  91.1825006  85.6685017 105.1039987  90.3905006  84.1205017
 105.3069987  89.0715006  85.7855017 106.3579987  89.2915006  85.9615017
 105.2829987  88.2635006  85.0545017 104.6469987  88.5955006  87.0835017
 104.1919987  87.6165006  86.9535017 103.8459987  89.2615006  87.3985017
 105.6919987  88.4975006  88.2015017 105.8369987  89.4775006  88.6485017
 106.6499987  88.2165006  87.7685017 105.3219987  87.4695006  89.2865017
 106.1949987  87.3425006  89.9245017 105.1489987  86.5075006  88.8125017
 104.1139987  87.8105006  90.1935017 103.9379987  86.9495006  90.8295017
 103.2549987  87.8945006  89.5325017 104.1879987  89.0885006  91.0725017
 104.3969987  89.9575006  90.4615017 104.9699987  88.9905006  91.8155017
 102.8099987  89.5565006  91.5675017 101.9309987  90.0255006  90.8665017
 102.7849987  89.4195006  92.8625017 101.6309987  89.9245006  93.5115017
 100.7819987  89.4945006  93.0025017 101.5769987  91.0015006  93.4405017
 101.6589987  89.4675006  94.9885017 100.7779987  89.8305006  95.4915017
 102.9339987  90.0625006  95.6585017 103.0249987  91.0895006  95.3305017
 103.7669987  89.4965006  95.2595017 102.9219987  89.9925006  97.0885017
 103.9119987  88.9805006  97.7935017 103.2379987  88.8455006  99.2265017
 102.0049987  88.1555006  99.3795017 102.1089987  87.0795006  99.3205017
 101.3109987  88.4415006  98.5945017 101.3179987  88.5765006 100.7025017
 102.0099987  88.4885006 101.5305017 100.4749987  87.9255006 100.8835017
 100.7679987  90.0065006 100.7685017  99.6579987  90.1795006  99.7765017
 100.0019987  89.8385006  98.8095017  99.4169987  91.2305006  99.7265017
  98.7949987  89.6255006 100.1155017 100.1689987  90.3005006 102.0985017
 100.8749987  90.0155006 102.8635017  99.2449987  89.7585006 102.1945017
  99.9849987  91.3645006 102.1415017 101.8289987  90.9985006 100.4075017
 102.6639987  90.8875006 101.0835017 101.4249987  91.9965006 100.4915017
 102.1539987  90.8255006  99.3915017 103.8479987  87.7085006  97.0515017
 105.2089987  89.6475006  98.0035017 101.6549987  88.0215006  95.0725017
 100.4669987  87.4425006  95.1385017  99.4099987  88.0305006  95.0985017
 100.6129987  85.9115006  95.0925017 101.6679987  85.6675006  95.1645017
 100.1439987  85.4635006  95.9655017  99.9859987  85.3785006  93.7915017
 100.1179987  84.3025006  93.7695017  98.9149987  85.5485006  93.8245017
 100.5699987  85.9825006  92.5065017 100.5809987  87.0665006  92.5815017
 101.6089987  85.6745006  92.4175017  99.8249987  85.5525006  91.2435017
  99.7049987  84.4705006  91.2575017  98.8209987  85.9695006  91.2335017
 100.5249987  85.9355006  89.9625017 101.0699987  86.8715006  90.0665017
 101.2619987  85.1845006  89.6865017  99.5179987  86.0625006  88.8375017
  99.0059987  85.1075006  88.7305017  98.7589987  86.7885006  89.1155017
 100.0939987  86.4565006  87.5335017  99.3899987  86.7285006  86.7555017
 100.8299987  87.2585006  87.5755017 100.7479987  85.2685006  87.2245017
 100.8739987  84.3745006  87.8165017 101.2499987  85.2645006  86.0545017
 101.6209987  84.2605006  86.2025017 101.5939987  85.8825006  84.6195017
 101.4789987  86.9555006  84.7615017 102.6509987  85.7105006  84.4525017
 100.7519987  85.4475006  83.2775017 100.4809987  84.4135006  83.4875017
  99.8369987  86.0275006  83.3795017 101.2359987  85.5545006  81.9095017
 101.1059987  86.5815006  81.5685017 102.3049987  85.3605006  81.8885017
 100.5249987  84.6045006  80.9355017 100.6349987  83.5525006  81.1885017
  99.4559987  84.7835006  80.8345017 101.1979987  84.8895006  79.6285017
 100.8999987  84.0945006  78.9485017 100.7529987  85.7995006  79.2345017
 102.6449987  84.9885006  79.5915017 103.0629987  85.9095006  79.9925017
 103.1809987  84.1765006  80.0795017 102.9349987  84.9335006  78.1215017
 102.7599987  83.9805006  77.6285017 102.3909987  85.6725006  77.5375017
 104.3819987  85.2575006  78.0705017 104.7219987  85.3415006  77.0425017
 104.9849987  84.4945006  78.5515017 104.5879987  86.2025006  78.5655017
  36.2349987 107.7675006  78.6345017  36.2189987 107.6875006  77.5525017
  37.1449987 107.2915006  78.9885017  36.2959987 108.8225006  78.8875017
  35.0749987 107.1655006  79.2175017  35.0729987 106.1385006  78.8565017
  34.2339987 107.6595006  78.7375017  34.8889987 107.1645006  80.7265017
  35.5129987 106.4035006  81.1945017  33.8619987 106.9085006  80.9775017
  35.2089987 108.5165006  81.3335017  34.8419987 109.3115006  80.6885017
  36.2849987 108.6635006  81.4105017  34.5909987 108.6735006  82.6825017
  34.3989987 107.6725006  83.0615017  33.6159987 109.1295006  82.5165017
  35.3429987 109.4675006  83.7435017  35.3499987 110.5115006  83.4355017
  36.3799987 109.1405006  83.7325017  34.8159987 109.3685006  85.1185017
  35.0079987 108.3015006  85.2195017  33.7699987 109.4635006  84.8285017
  35.0179987 110.0145006  86.4005017  34.2379987 109.8695006  87.1465017
  35.2249987 111.0825006  86.3805017  36.2289987 109.2945006  86.8195017
  36.9369987 109.9915006  87.2625017  36.7259987 108.8705006  85.9475017
  35.9279987 108.1945006  87.8045017  36.7709987 107.5085006  87.8535017
  35.0779987 107.6085006  87.4565017  35.6229987 108.7435006  89.1885017
  34.6049987 109.1275006  89.2115017  36.2709987 109.5905006  89.4095017
  35.7659987 107.7025006  90.2865017  35.6949987 108.1835006  91.2595017
  36.7609987 107.2635006  90.2365017  34.7579987 106.6115006  90.1795017
  34.8769987 106.0865006  89.2335017  33.7439987 107.0015006  90.1855017
  34.9059987 105.5935006  91.3035017  35.9529987 105.4515006  91.5505017
  34.5289987 104.6315006  90.9665017  34.1559987 105.9935006  92.5435017
  33.1129987 106.1735006  92.3145017  34.5799987 106.8965006  92.9665017
  34.4009987 104.9285006  93.5755017  33.5839987 104.0785006  93.8745017
  35.5609987 105.0135006  93.9295017  36.0659987 104.1105006  94.9205017
  36.3069987 103.1735006  94.4405017  35.4259987 103.9185006  95.7695017
  37.3179987 104.8145006  95.3415017  38.0519987 104.0625006  95.5805017
  37.2389987 105.8695006  96.4985017  37.5779987 106.8225006  96.1155017
  37.9279987 105.5395006  97.2665017  35.9489987 105.9835006  97.0185017
  35.7199987 105.4655006  98.4745017  35.8509987 106.8705006  99.2265017
  34.8099987 107.7995006  98.9045017  33.8419987 107.3275006  98.7955017
  35.0229987 108.2885006  97.9585017  34.7589987 108.9035006  99.9145017
  34.4769987 108.4025006 100.8325017  34.0649987 109.7115006  99.7325017
  36.0749987 109.5495006 100.1925017  36.7379987 110.0415006  98.9535017
  36.7619987 109.2365006  98.2315017  37.7469987 110.3315006  99.2075017
  36.1969987 110.8995006  98.5835017  35.5739987 110.5955006 100.8665017
  34.8939987 110.2245006 101.6185017  35.0759987 111.2525006 100.1755017
  36.4029987 111.1055006 101.3355017  37.0239987 108.7545006 100.9815017
  36.5759987 108.5065006 101.9325017  37.9209987 109.3325006 101.1445017
  37.2699987 107.8495006 100.4455017  34.3289987 104.9965006  98.5305017
  36.7869987 104.5335006  98.8885017  37.7439987 105.4425006  93.9545017
  39.0299987 105.8685006  94.0375017  39.2799987 105.8135006  95.1165017
  40.1429987 105.7155006  92.8615017  40.9829987 106.4005006  92.9135017
  40.5719987 104.7305006  92.6965017  39.2479987 106.0575006  91.8315017
  38.4819987 105.3045006  91.6825017  38.7209987 106.9885006  92.0135017
  40.0489987 106.1705006  90.6185017  39.4739987 106.6525006  89.8315017
  40.8999987 106.8185006  90.8125017  40.5649987 104.8235006  90.1375017
  41.5939987 104.6785006  90.4615017  39.9949987 103.9975006  90.5565017
  40.5239987 104.7285006  88.6315017  41.0359987 105.6205006  88.2755017
  41.1759987 103.8905006  88.3935017  39.2529987 104.5645006  87.8925017
  38.9069987 103.5475006  88.0705017  38.5119987 105.2225006  88.3385017
  39.2959987 104.8165006  86.4475017  39.9879987 105.6485006  86.3815017
  39.8309987 103.9425006  86.0775017  38.1259987 105.0375006  85.6055017
  37.6549987 106.0005006  85.7305017  37.6009987 104.2295006  84.7295017
  36.7499987 104.6245006  84.1935017  37.9759987 102.8555006  84.3365017
  38.8269987 102.5215006  84.9275017  37.1859987 102.1325006  84.5065017
  38.3269987 102.8335006  83.0495017  39.2729987 103.3725006  83.0065017
  38.5629987 101.7895006  82.8505017  37.4009987 103.3505006  81.9665017
  36.9839987 104.2245006  82.4665017  38.1229987 103.7275006  81.2475017
  36.2629987 102.5995006  81.2135017  36.3809987 101.5955006  81.6145017
  35.3769987 103.0155006  81.6895017  36.0359987 102.5335006  79.6805017
  36.2309987 103.4775006  79.1745017  36.6399987 101.7905006  79.1675017
  34.9459987 102.2945006  79.5565017  34.5719987 101.3325006  79.9025017
  34.2079987 103.0325006  79.8635017  35.0049987 102.2725006  78.0025017
  36.0749987 102.2585006  77.8095017  34.6539987 101.2625006  77.8005017
  34.3189987 103.2415006  77.0185017  34.4719987 102.9215006  75.9925017
  34.7079987 104.2505006  77.1055017  33.2479987 103.2835006  77.1955017
  77.3379987 108.2065006  79.1035017  77.7779987 107.4735006  78.4355017
  77.4719987 109.1865006  78.6545017  76.2699987 108.0105006  79.1525017
  77.9399987 108.1465006  80.4215017  79.0019987 108.2835006  80.2255017
  77.8139987 107.1055006  80.7055017  77.3939987 109.3335006  81.9185017
  77.2089987 110.3285006  81.5135017  78.2479987 109.4335006  82.5855017
  76.3939987 108.9685006  82.6005017  76.6569987 108.3085006  83.4235017
  75.6299987 108.4455006  82.0265017  75.8009987 110.2595006  83.1775017
  74.7949987 110.0405006  83.5255017  75.6929987 110.9605006  82.3515017
  76.5819987 110.9315006  84.3105017  76.0089987 111.7535006  84.7345017
  77.5049987 111.3665006  83.9335017  76.9129987 109.9215006  85.4155017
  77.8659987 109.4415006  85.1995017  76.1669987 109.1275006  85.4215017
  76.9749987 110.5605006  86.7915017  75.9589987 110.8205006  87.0865017
  77.5149987 111.5015006  86.7015017  77.6069987 109.7275006  87.8705017
  77.0449987 108.8045006  87.9945017  77.5409987 110.2525006  88.8225017
  79.0449987 109.3995006  87.5835017  79.6369987 110.2355006  87.2175017
  79.1949987 108.5855006  86.8745017  79.5209987 108.9885006  88.8885017
  80.3909987 108.4025006  88.5995017  78.7509987 108.2695006  89.1625017
  79.8829987 109.8105006  90.0925017  79.8579987 110.8715006  89.8545017
  80.9039987 109.5925006  90.4005017  78.9359987 109.5085006  91.2735017
  77.9309987 109.5945006  90.8635017  79.0479987 110.3285006  91.9775017
  79.0229987 108.2085006  92.0185017  79.9319987 108.4125006  92.5755017
  79.3039987 107.5825006  91.1755017  78.0779987 107.4435006  92.8845017
  77.1489987 107.2575006  92.3605017  77.8609987 107.9995006  93.7895017
  78.0519987 108.1475006  94.0665017  79.1599987 108.3365006  94.2975017
  76.9209987 108.1995006  94.7495017  76.8009987 108.6195006  96.1075017
  77.6329987 109.2985006  96.1895017  76.9959987 107.7515006  96.7205017
  75.5699987 109.2775006  96.5125017  75.5299987 110.2665006  96.0845017
  75.3569987 109.3565006  98.0505017  74.4429987 109.8975006  98.2525017
  76.1819987 109.9045006  98.4825017  75.3229987 108.0925006  98.5975017
  74.4529987 107.8555006  99.8385017  73.2539987 108.8075006  99.7625017
  72.2239987 108.2705006  98.9725017  71.7549987 107.4735006  99.5365017
  72.5809987 107.8695006  98.0325017  71.2239987 109.3475006  98.6835017
  70.2289987 108.9365006  98.5985017  71.2339987 110.1015006  99.4585017
  71.5199987 109.9775006  97.3655017  72.4899987 110.2305006  97.2745017
  71.2869987 109.2095006  96.6265017  70.9559987 110.7935006  97.1995017
  74.0399987 106.5195006  99.4925017  75.0939987 108.2705006 101.0475017
  74.5959987 108.5165006  95.8735017  74.0669987 109.0955006  94.8495017
  74.1309987 110.2895006  94.5945017  73.1869987 108.0215006  94.2355017
  73.8109987 107.1365006  94.1675017  72.4099987 107.7835006  94.9575017
  72.5799987 108.4045006  92.8725017  71.5619987 108.0385006  92.7965017
  72.5199987 109.4825006  92.7605017  73.4169987 107.8055006  91.7285017
  74.4689987 107.8905006  91.9895017  73.1999987 106.7405006  91.6875017
  73.1659987 108.4165006  90.3235017  72.3979987 107.8365006  89.8155017
  72.7769987 109.4285006  90.4075017  74.4259987 108.4395006  89.4325017
  74.2229987 108.9525006  88.4945017  75.2129987 109.0085006  89.9245017
  74.9499987 107.0335006  89.1385017  75.9509987 107.1035006  88.7145017
  75.0459987 106.4635006  90.0585017  74.0439987 106.2595006  88.1745017
  73.0769987 106.1025006  88.6385017  73.8649987 106.8745006  87.2935017
  74.6539987 104.9555006  87.7355017  74.4959987 104.0875006  88.3575017
  75.3809987 104.7815006  86.6045017  75.7759987 103.8045006  86.3635017
  75.7169987 105.8545006  85.5835017  74.9149987 105.8105006  84.8485017
  75.6299987 106.8195006  86.0705017  77.0709987 105.7785006  84.8295017
  77.6359987 106.7035006  84.9375017  77.6969987 104.9915006  85.2455017
  76.8289987 105.4965006  83.3405017  76.5249987 104.4525006  83.2615017
  75.9699987 106.0875006  83.0345017  77.9919987 105.7555006  82.3825017
  78.1519987 106.8275006  82.2865017  78.9129987 105.3465006  82.7945017
  77.7079987 105.0655006  80.8395017  77.0749987 105.7895006  80.3305017
  78.6699987 105.1075006  80.3365017  77.0099987 103.5255006  80.6365017
  77.2109987 102.9165006  81.5165017  75.9279987 103.6245006  80.5785017
  77.4849987 102.7815006  79.4225017  77.3309987 103.3305006  78.4965017
  78.5549987 102.5915006  79.4795017  76.7349987 101.4125006  79.3465017
  77.1169987 100.8085006  78.5295017  75.6699987 101.5415006  79.1845017
  76.8629987 100.8455006  80.2645017  91.4509987 107.5545006  77.2495017
  91.9149987 107.9575006  76.3545017  90.4139987 107.8775006  77.2595017
  91.4569987 106.4715006  77.1655017  92.1879987 108.0145006  78.5155017
  92.1809987 109.1025006  78.4855017  93.2219987 107.7115006  78.3765017
  91.6749987 107.5395006  79.8985017  92.3919987 107.8795006  80.6465017
  91.7319987 106.4525006  79.8985017  90.2609987 107.9525006  80.3285017
  89.6569987 108.1125006  79.4385017  90.3009987 108.9125006  80.8415017
  89.5529987 106.9255006  81.2245017  89.5709987 105.9615006  80.7235017
  88.5059987 107.2145006  81.2925017  90.1249987 106.7615006  82.6365017
  91.1879987 106.5365006  82.5655017  89.6619987 105.8985006  83.1105017
  89.9249987 108.0035006  83.5345017  88.9959987 108.4955006  83.2515017
  90.7219987 108.7175006  83.3285017  89.8969987 107.6905006  85.0565017
  90.8579987 107.2995006  85.3885017  89.1609987 106.9205006  85.2805017
  89.5599987 108.9685006  85.8625017  88.6469987 109.3755006  85.4335017
  90.3459987 109.6905006  85.6445017  89.3939987 108.8415006  87.3935017
  88.8509987 107.9235006  87.6065017  88.7639987 109.6575006  87.7465017
  90.7249987 108.8585006  88.1675017  91.2299987 109.8015006  87.9675017
  91.3769987 108.0785006  87.7785017  90.5899987 108.6945006  89.6945017
  90.3109987 107.6725006  89.9385017  89.7819987 109.3255006  90.0605017
  91.8739987 109.0765006  90.4235017  92.0209987 110.1465006  90.2875017
  92.7139987 108.5895006  89.9365017  91.9269987 108.7775006  91.9365017
  92.9269987 109.0835006  92.2265017  91.9079987 107.6915006  91.9705017
  90.9059987 109.3225006  92.9715017  89.8969987 109.0575006  92.6835017
  90.9759987 110.4015006  93.0385017  89.5619987 108.8715006  93.1145017
  89.2219987 107.7905006  92.7205017  88.8139987 109.8445006  93.6765017
  87.5019987 109.3885006  93.9835017  87.2479987 108.6555006  93.2325017
  86.7929987 110.2025006  93.9375017  87.5079987 108.7385006  95.3865017
  86.4809987 108.6035006  95.6825017  88.2599987 109.5585006  96.4595017
  87.8229987 110.5375006  96.5985017  89.2969987 109.6795006  96.1735017
  88.1629987 108.8065006  97.6385017  88.2999987 109.3885006  99.0845017
  88.5799987 107.9855006  99.7805017  87.5849987 106.9825006  99.9895017
  86.6029987 107.3595006  99.7335017  87.5559987 106.7425006 101.0485017
  87.8689987 105.6295006  99.2705017  87.7559987 105.8115006  98.2095017
  87.1389987 104.8945006  99.5765017  89.2349987 104.9585006  99.4345017
  89.4759987 104.6795006 100.8885017  89.3029987 105.5885006 101.4475017
  90.5049987 104.3725006 101.0025017  88.8219987 103.8815006 101.2055017
  89.2509987 103.6925006  98.6385017  88.9049987 103.9115006  97.6395017
  88.6229987 102.9655006  99.1225017  90.2729987 103.3425006  98.6085017
  90.3159987 105.8555006  98.8975017  90.1189987 106.0665006  97.8575017
  91.2689987 105.3575006  98.9915017  90.3329987 106.7775006  99.4615017
  89.5049987 110.2295006  99.1305017  87.0119987 109.9635006  99.5305017
  88.1319987 107.4315006  95.2555017  87.2799987 106.4265006  95.1085017
  86.1089987 106.4285006  95.4175017  88.0009987 105.2215006  94.4815017
  88.9619987 105.5965006  94.1455017  88.2199987 104.5165006  95.2805017
  87.2069987 104.5345006  93.3285017  87.8429987 103.7855006  92.8695017
  86.3629987 103.9955006  93.7475017  86.7129987 105.5195006  92.2365017
  85.9689987 106.1675006  92.6925017  87.5579987 106.1565006  91.9875017
  86.1589987 104.9135006  90.9405017  86.8159987 104.1275006  90.5725017
  85.1839987 104.4545006  91.0805017  86.0459987 105.9995006  89.8535017
  85.2529987 106.6955006  90.1185017  86.9669987 106.5785006  89.8455017
  85.7939987 105.4535006  88.4325017  86.3529987 104.5325006  88.2745017
  84.7469987 105.2075006  88.2795017  86.2109987 106.4805006  87.3875017
  87.2599987 106.7275006  87.5015017  86.1029987 106.0525006  86.3915017
  85.3629987 107.6935006  87.4755017  85.0519987 108.0515006  88.4455017
  84.9739987 108.3735006  86.4415017  84.3729987 109.2575006  86.5995017
  85.2629987 108.0845006  85.0105017  86.2289987 107.5885006  84.9325017
  84.5389987 107.4095006  84.5685017  85.3219987 109.4155006  84.1675017
  84.3219987 109.8465006  84.1785017  85.9559987 110.1055006  84.7215017
  85.8289987 109.3215006  82.7035017  86.5119987 110.1685006  82.6335017
  86.4509987 108.4305006  82.7165017  84.9389987 109.2965006  81.4805017
  84.9259987 108.2085006  81.4685017  84.0649987 109.6045006  82.0505017
  84.8319987 109.8045006  80.1345017  83.9989987 109.4355006  79.5395017
  84.8449987 110.8815006  79.9915017  86.0769987 109.2065006  79.5965017
  86.1949987 109.5405006  78.5675017  86.9159987 109.6265006  80.1485017
  86.1839987 107.7525006  79.6275017  86.2869987 107.3965006  80.6495017
  85.2519987 107.3295006  79.2595017  87.3889987 107.1855006  78.7425017
  87.3759987 106.0995006  78.7245017  88.3549987 107.4925006  79.1285017
  87.3169987 107.5345006  77.7165017   7.4309987  17.0565006  78.1245017
   7.6409987  16.3835006  77.2995017   6.5209987  17.5995006  77.8855017
   7.2299987  16.4495006  79.0035017   8.5709987  17.9915006  78.3665017
   8.7549987  18.5465006  77.4475017   9.4599987  17.3925006  78.5445017
   8.3619987  18.9815006  79.5205017   7.6929987  19.7855006  79.2125017
   9.3089987  19.4565006  79.7685017   7.7989987  18.3105006  80.7985017
   7.5709987  17.2745006  80.5575017   6.8479987  18.7795006  81.0465017
   8.7219987  18.3375006  82.0395017   9.3169987  19.2465006  82.0035017
   9.4229987  17.5095006  81.9445017   8.0249987  18.2545006  83.3995017
   7.3499987  19.1075006  83.4505017   8.7929987  18.4295006  84.1495017
   7.2699987  17.0025006  83.7465017   7.7519987  16.1005006  83.3745017
   6.2569987  16.9935006  83.3455017   7.2079987  16.9475006  85.2985017
   6.3069987  17.4255006  85.6805017   8.0469987  17.4715006  85.7535017
   7.2279987  15.5055006  85.7345017   8.1629987  15.1105006  85.3435017
   6.4339987  15.0305006  85.1595017   7.0879987  15.1135006  87.2095017
   8.1129987  15.0485006  87.5665017   6.7079987  14.0925006  87.1865017
   6.2699987  15.9185006  88.1545017   6.6889987  16.9225006  88.1875017
   6.3909987  15.5075006  89.1555017   4.8549987  16.0235006  87.8475017
   4.3729987  15.0745006  87.6255017   4.6389987  16.6785006  87.0055017
   4.2789987  16.6095006  89.0545017   3.6749987  17.4345006  88.6815017
   5.1179987  17.0595006  89.5775017   3.4189987  15.8075006  90.0705017
   3.5169987  14.7605006  89.8045017   2.3889987  16.0875006  89.8685017
   3.6669987  15.9625006  91.4705017   3.6069987  17.0055006  91.7525017
   4.6529987  15.5905006  91.7225017   3.3059987  17.4025006  91.9695017
   3.3939987  18.4455006  91.3645017   2.9899987  17.4075006  93.0805017
   2.7189987  18.3205006  94.3075017   1.7209987  17.9225006  94.4105017
   2.6599987  19.3265006  93.9175017   3.3669987  18.3005006  95.5185017
   3.5879987  17.3305006  95.9325017   2.5089987  19.1225006  96.5245017
   1.7209987  18.5485006  96.9935017   2.0709987  19.9955006  96.0575017
   3.4479987  19.4965006  97.4515017   3.5979987  18.6405006  98.7515017
   5.0239987  19.1605006  99.2695017   6.0839987  19.2875006  98.3265017
   6.0979987  20.2635006  97.8595017   5.9469987  18.5655006  97.5265017
   7.4589987  18.9495006  98.9475017   8.2109987  19.0665006  98.1775017
   7.4209987  17.9105006  99.2405017   7.9799987  19.6985006 100.1475017
   6.9649987  19.7265006 101.2295017   6.0289987  20.0765006 100.8165017
   7.3069987  20.4135006 101.9895017   6.8739987  18.7365006 101.6505017
   9.2259987  18.9985006 100.6075017   9.8729987  18.8555006  99.7555017
   8.9559987  18.0605006 101.0575017   9.7059987  19.6375006 101.3345017
   8.2379987  21.0715006  99.7355017   8.9499987  21.0715006  98.9235017
   8.6419987  21.6225006 100.5715017   7.3149987  21.5305006  99.4125017
   2.5409987  19.1005006  99.6685017   3.6779987  17.1975006  98.4465017
   4.5769987  18.6645006  95.0795017   5.4629987  17.7985006  94.8085017
   5.6879987  16.7045006  95.2765017   6.4619987  18.5165006  94.0275017
   7.4329987  18.1515006  94.3445017   6.3629987  18.2315006  92.9835017
   6.3389987  20.0035006  94.1955017   5.4529987  20.4285006  93.7365017
   6.3399987  20.3505006  95.2235017   7.5509987  20.5145006  93.4865017
   7.6799987  21.5595006  93.7585017   8.4049987  19.9855006  93.9015017
   7.5759987  20.3615006  91.9575017   8.4539987  20.8865006  91.5865017
   7.7179987  19.3145006  91.7025017   6.3489987  20.8895006  91.2125017
   5.5529987  20.1485006  91.1715017   5.9309987  21.7545006  91.7225017
   6.7339987  21.2995006  89.7905017   7.3589987  22.1855006  89.8925017
   7.3739987  20.5165006  89.3935017   5.6239987  21.5785006  88.7835017
   6.1679987  21.8015006  87.8735017   5.1719987  20.5985006  88.6385017
   4.5689987  22.5465006  89.0125017   4.6479987  23.6115006  88.8555017
   3.4339987  22.0965006  89.4255017   2.7049987  22.8875006  89.5315017
   2.9369987  20.7925006  89.7655017   3.6959987  20.0255006  89.9065017
   2.2419987  20.6865006  90.5915017   2.3079987  20.5485006  88.6275017
   1.4339987  19.9695006  88.9245017   1.9359987  21.5255006  88.3255017
   3.0129987  19.8465006  87.3795017   3.5959987  20.6575006  86.9435017
   3.7289987  19.1735006  87.8445017   2.1519987  18.9935006  86.0955017
   2.9909987  18.3785006  85.7775017   1.5409987  18.3645006  86.7405017
   1.2309987  19.4695006  84.7385017   0.8689987  18.6025006  84.1885017
   0.3449987  20.0295006  85.0255017   2.1539987  20.3615006  83.7225017
   1.8039987  20.2955006  82.6935017   2.1319987  21.4185006  83.9825017
   3.6449987  19.8665006  83.7755017   4.2439987  20.3375006  84.5515017
   3.7089987  18.7965006  83.9615017   4.2059987  20.1385006  82.5255017
   5.2149987  19.7415006  82.4605017   4.2629987  21.2035006  82.3295017
   3.6209987  19.6875006  81.7285017  17.8239987   1.0365006  78.3825017
  18.3489987   1.3785006  77.4955017  16.9589987   1.6775006  78.5235017
  17.4599987   0.0325006  78.1835017  18.7039987   1.0575006  79.5685017
  18.9999987   2.1005006  79.4705017  19.4989987   0.4715006  79.1155017
  18.5759987   0.7155006  81.0245017  18.0569987  -0.2414994  81.0715017
  17.8909987   1.4505006  81.4425017  19.8519987   0.6555006  81.9295017
  20.4469987   1.5625006  81.8515017  20.5179987  -0.1654994  81.6675017
  19.3949987   0.4935006  83.3805017  18.6709987  -0.3124994  83.4675017
  18.8859987   1.3975006  83.7105017  20.5719987   0.2065006  84.3155017
  21.2979987   1.0115006  84.2145017  21.0719987  -0.6974994  83.9745017
  20.1919987   0.0485006  85.7965017  19.5619987  -0.8274994  85.9355017
  19.6039987   0.9025006  86.1315017  21.4489987  -0.0824994  86.6815017
  22.0119987   0.8455006  86.5915017  22.0759987  -0.8604994  86.2505017
  21.2109987  -0.3894994  88.1685017  20.4979987   0.3305006  88.5655017
  22.1399987  -0.2284994  88.7135017  20.6979987  -1.8264994  88.4455017
  21.2559987  -2.5094994  87.8095017  19.6599987  -1.8864994  88.1205017
  20.7959987  -2.2794994  89.9255017  20.5079987  -3.3264994  89.9865017
  20.0659987  -1.7304994  90.5175017  22.1879987  -2.1224994  90.5625017
  22.4039987  -1.0594994  90.6305017  22.9139987  -2.5364994  89.8655017
  22.3869987  -2.7934994  91.9375017  23.4529987  -2.7644994  92.1575017
  22.1219987  -3.8434994  91.8505017  21.6439987  -2.1884994  93.1285017
  21.8899987  -2.7304994  94.0355017  20.5749987  -2.3054994  92.9725017
  21.9449987  -0.7064994  93.3325017  21.7379987  -0.1494994  92.4275017
  22.9859987  -0.5654994  93.5965017  21.4719987  -0.1304994  94.6405017
  20.6959987  -0.6814994  95.3995017  22.0449987   1.0515006  94.7885017
  21.6739987   1.8425006  95.9255017  22.5939987   2.3095006  96.2435017
  21.3009987   1.2175006  96.7235017  20.6419987   2.9115006  95.5355017
  20.9829987   3.4825006  94.6875017  20.3779987   3.8585006  96.7385017
  19.5929987   4.5585006  96.4875017  21.2879987   4.4125006  96.9325017
  20.0129987   3.0885006  97.8795017  18.4989987   3.1265006  98.3515017
  18.5279987   2.1255006  99.5645017  19.6329987   2.1135006 100.4385017
  19.3429987   1.9505006 101.4685017  20.1369987   3.0755006 100.4085017
  20.6999987   1.0815006  99.9905017  21.3889987   1.1205006 100.8245017
  21.2329987   1.3415006  99.0875017  20.2959987  -0.4504994  99.8345017
  19.1079987  -0.8794994 100.7695017  19.3359987  -0.5724994 101.7805017
  19.0219987  -1.9554994 100.7265017  18.1959987  -0.4284994 100.4075017
  19.6669987  -0.6144994  98.5345017  20.3019987  -0.1634994  97.7875017
  18.6949987  -0.1544994  98.5545017  19.5749987  -1.6754994  98.3515017
  21.5059987  -1.3784994  99.9745017  22.2409987  -1.1194994  99.2275017
  21.1879987  -2.4004994  99.8305017  21.9329987  -1.2684994 100.9615017
  18.1539987   4.4775006  98.8675017  17.6239987   2.5285006  97.3325017
  19.4649987   2.1975006  95.1115017  18.7519987   2.8935006  94.2635017
  19.0269987   4.0085006  93.8545017  17.5739987   2.0895006  93.7405017
  16.9599987   1.8475006  94.6015017  16.9659987   2.7385006  93.1155017
  18.0109987   0.8255006  92.9695017  18.9879987   1.0095006  92.5365017
  18.1439987   0.0095006  93.6725017  17.0529987   0.4095006  91.8735017
  17.4769987  -0.4754994  91.4055017  16.1469987   0.0815006  92.3785017
  16.6769987   1.4215006  90.8205017  15.8559987   1.0845006  90.1905017
  16.3809987   2.3915006  91.2125017  17.9149987   1.6015006  89.9415017
  18.4689987   2.4695006  90.2925017  18.5649987   0.7435006  90.0995017
  17.6519987   1.7405006  88.4655017  18.5769987   1.6775006  87.8955017
  17.0039987   0.9545006  88.0875017  17.0259987   3.0115006  88.2165017
  16.7549987   3.1075006  87.1715017  16.0979987   3.0865006  88.7825017
  17.8999987   4.0745006  88.6245017  17.9759987   4.5025006  89.6125017
  18.6659987   4.5435006  87.7335017  19.3359987   5.3245006  88.0625017
  18.8069987   4.1845006  86.2595017  18.7929987   3.1055006  86.1185017
  18.0239987   4.5835006  85.6245017  20.1839987   4.7195006  85.7795017
  20.1559987   5.8015006  85.6595017  20.9449987   4.5175006  86.5305017
  20.5899987   4.0815006  84.4815017  21.4069987   4.5765006  83.9555017
  20.8549987   3.0295006  84.5325017  19.4109987   4.2295006  83.7445017
  18.6339987   3.7585006  84.3425017  19.1889987   5.2955006  83.7415017
  19.3439987   3.5515006  81.9065017  19.1169987   2.4875006  81.9215017
  18.5279987   4.0215006  81.3635017  20.9479987   3.7835006  80.9765017
  21.4409987   2.8255006  81.1315017  20.6099987   3.7845006  79.9415017
  22.1559987   5.0835006  81.1795017  21.6309987   6.0355006  81.1635017
  22.5449987   4.9765006  82.1895017  23.3199987   5.1335006  80.2135017
  24.0229987   5.9105006  80.4975017  22.9969987   5.3425006  79.1995017
  23.8579987   4.1895006  80.2005017  99.8239987 104.5435006  79.3795017
 100.1339987 104.8615006  78.3885017  98.7419987 104.6235006  79.4295017
 100.0809987 103.4935006  79.4855017 100.4729987 105.3625006  80.4375017
 100.2199987 106.4135006  80.3115017 101.5539987 105.2965006  80.3505017
 100.0349987 104.9085006  81.8015017  98.9809987 104.6365006  81.7555017
 100.0969987 105.7615006  82.4745017 100.8339987 103.7435006  82.4155017
 101.8979987 103.9225006  82.2805017 100.6149987 102.8155006  81.8895017
 100.5549987 103.5575006  83.9075017 100.9499987 104.4085006  84.4575017
 101.1059987 102.6855006  84.2565017  99.0749987 103.3895006  84.2505017
  98.6719987 102.4945006  83.7805017  98.4939987 104.2245006  83.8635017
  98.8779987 103.2975006  85.7615017  99.6239987 102.6385006  86.2015017
  97.9089987 102.8555006  85.9905017  98.9719987 104.6685006  86.4145017
  98.0599987 105.2265006  86.2055017  99.7839987 105.2295006  85.9545017
  99.1909987 104.6115006  87.9145017  99.3899987 105.6015006  88.3185017
 100.0599987 104.0025006  88.1605017  97.9489987 104.0225006  88.6005017
  97.7769987 103.0355006  88.1755017  97.0909987 104.6315006  88.3165017
  98.0169987 103.9325006  90.0995017  97.0409987 104.0365006  90.5685017
  98.6519987 104.6935006  90.5505017  98.5409987 102.6185006  90.4225017
  99.5169987 102.4165006  89.9875017  97.8899987 101.8085006  90.0975017
  98.6279987 102.5925006  91.9305017  98.7099987 101.5355006  92.1785017
  97.6529987 102.9135006  92.2845017  99.7219987 103.3505006  92.7115017
  99.4929987 104.4075006  92.6245017 100.6449987 103.1825006  92.1635017
  99.9589987 103.0095006  94.1725017 100.1569987 101.9515006  94.2875017
  99.0899987 103.2675006  94.7665017 100.6319987 104.0485006  94.9655017
 100.8279987 105.1595006  94.5255017 101.0639987 103.5575006  96.1155017
 101.5319987 104.5705006  96.9945017 101.8909987 105.3025006  96.2865017
 102.3489987 104.2655006  97.6315017 100.3759987 105.1525006  97.8225017
 100.8559987 105.8445006  98.4945017  99.5999987 104.1115006  98.6195017
  99.0409987 104.5495006  99.4345017 100.2729987 103.3645006  99.0225017
  98.7329987 103.5335006  97.6865017  97.4599987 102.7285006  97.9695017
  97.0809987 102.8425006  99.4875017  96.6579987 101.7425006 100.3075017
  97.4279987 101.3025006 100.9285017  96.2369987 100.9325006  99.7185017
  95.4869987 102.2705006 101.1665017  95.8269987 103.0135006 101.8765017
  95.0749987 101.4325006 101.7105017  94.3149987 102.9075006 100.4295017
  94.0229987 102.2145006  99.1255017  94.9419987 102.1395006  98.5605017
  93.3099987 102.8155006  98.5815017  93.5969987 101.2445006  99.3315017
  93.1049987 103.0215006 101.3015017  93.3959987 103.4805006 102.2335017
  92.6909987 102.0415006 101.4575017  92.3929987 103.6495006 100.7855017
  94.7689987 104.3115006 100.1075017  95.0199987 104.8235006 101.0245017
  93.9689987 104.8365006  99.6075017  95.6339987 104.2715006  99.4615017
  96.3329987 102.9515006  97.0685017  97.9349987 101.4465006  97.8645017
  99.5539987 105.9325006  96.9505017  98.6019987 106.6205006  97.5445017
  98.4969987 106.8125006  98.7505017  97.8769987 107.4215006  96.4695017
  97.6649987 108.3855006  96.9195017  98.5899987 107.6155006  95.6725017
  96.5979987 106.7455006  95.9205017  96.1189987 106.2215006  96.7405017
  95.9029987 107.5195006  95.6115017  96.8329987 105.7575006  94.7575017
  97.5119987 106.1865006  94.0255017  97.3219987 104.8645006  95.1375017
  95.5219987 105.3455006  94.0795017  94.7259987 105.2815006  94.8195017
  95.1989987 106.0835006  93.3485017  95.6449987 104.0045006  93.3965017
  96.5649987 104.0045006  92.8155017  95.7789987 103.2565006  94.1755017
  94.5049987 103.5855006  92.5205017  93.5319987 103.5925006  93.0105017
  94.3879987 104.1485006  91.5985017  94.8849987 102.1405006  92.1685017
  95.8049987 102.2605006  91.6085017  95.1659987 101.7205006  93.1335017
  94.0209987 101.2515006  91.5305017  93.8549987 100.1865006  91.5885017
  93.2999987 101.8975006  90.7415017  92.6589987 101.1655006  90.2715017
  93.0289987 103.5215006  90.2055017  91.9569987 103.6985006  90.2675017
  93.4919987 104.2185006  90.8955017  93.5169987 103.8615006  88.6805017
  94.5349987 104.2385006  88.7685017  93.5929987 102.8985006  88.1795017
  92.6739987 104.8365006  87.7955017  91.8269987 104.3545006  87.3075017
  92.2689987 105.6865006  88.3385017  93.6279987 105.3195006  86.7575017
  93.1519987 106.2165006  86.3675017  94.4939987 105.6565006  87.3245017
  94.0929987 104.4365006  85.6075017  94.9119987 104.9435006  85.1005017
  94.5169987 103.5235006  86.0165017  93.0629987 104.1075006  84.5945017
  92.0959987 103.8865006  85.0435017  92.8919987 104.9285006  83.9005017
  93.5349987 102.8455006  83.7715017  94.4649987 102.3835006  84.0945017
  92.7999987 102.0445006  83.7435017  93.6999987 103.3785006  82.4215017
  93.9429987 102.5855006  81.7205017  94.4969987 104.1125006  82.3705017
  92.7879987 103.8565006  82.0765017   9.0889987   8.2685006  82.3655017
   8.1169987   7.8575006  82.6195017   9.5319987   7.6295006  81.6075017
   8.9279987   9.2455006  81.9185017   9.9389987   8.3635006  83.5305017
  10.0799987   7.3805006  83.9775017   9.4639987   8.9795006  84.2895017
  11.2379987   8.9185006  83.1755017  11.7749987   9.2895006  84.0485017
  11.1319987   9.7675006  82.5035017  12.0569987   7.8845006  82.5005017
  12.8209987   8.4215006  81.9425017  11.4169987   7.4115006  81.7575017
  12.7129987   6.8415006  83.3155017  13.4449987   6.3405006  82.6875017
  11.9529987   6.0985006  83.5515017  13.3879987   7.2895006  84.5945017
  12.6449987   7.6395006  85.3085017  14.0429987   8.1355006  84.3975017
  14.1859987   6.1785006  85.2135017  14.7929987   6.5655006  86.0295017
  14.8829987   5.7695006  84.4835017  13.3029987   5.0725006  85.7315017
  12.6109987   4.7485006  84.9555017  12.6889987   5.4335006  86.5545017
  14.0979987   3.9155006  86.1885017  14.7619987   3.5215006  85.4225017
  13.4859987   3.0775006  86.5195017  14.9119987   4.4175006  87.3405017
  15.6269987   5.0645006  86.8375017  15.4629987   3.5245006  87.6355017
  14.3689987   5.1125006  88.5965017  13.5819987   4.4625006  88.9735017
  13.8739987   6.0185006  88.2525017  15.3209987   5.4645006  89.7755017
  16.2049987   5.9565006  89.3765017  15.6669987   4.5355006  90.2255017
  14.6789987   6.3365006  90.8765017  15.2529987   6.2775006  91.7995017
  13.6709987   6.0165006  91.1235017  14.6439987   7.8135006  90.4325017
  14.0019987   7.9075006  89.5625017  15.6459987   8.0905006  90.1155017
  14.1799987   8.8065006  91.5135017  14.7869987   8.7075006  92.4045017
  13.1449987   8.6225006  91.7755017  12.6909987   8.6435006  91.8475017
  11.8029987   8.3985006  91.0495017  12.5339987   8.9195006  93.1375017
  11.2069987   8.7825006  93.6915017  10.4949987   8.8705006  92.8845017
  11.0669987   9.6055006  94.3765017  11.0359987   7.4345006  94.4085017
  10.0489987   7.3725006  94.8375017  12.1009987   7.1325006  95.4925017
  12.1069987   7.9395006  96.2125017  13.0619987   7.1045006  94.9945017
  11.8399987   5.8845006  96.1425017  11.0869987   5.7115006  97.5375017
  11.9349987   6.7055006  98.4565017  11.5799987   6.8405006  99.8355017
  10.5059987   6.7905006  99.9625017  11.8849987   7.8255006 100.1765017
  12.3029987   5.8375006 100.7845017  12.1759987   4.8515006 100.3555017
  11.8369987   5.8545006 101.7595017  13.7779987   5.9895006 101.0295017
  14.2319987   5.0115006 102.0615017  13.5869987   5.0965006 102.9255017
  15.2449987   5.2645006 102.3375017  14.2089987   4.0185006 101.6375017
  14.4419987   5.6855006  99.7265017  13.9609987   6.2655006  98.9535017
  14.3659987   4.6305006  99.5315017  15.4789987   5.9755006  99.8165017
  14.0929987   7.3685006 101.4925017  13.7619987   8.0775006 100.7485017
  15.1599987   7.4615006 101.6315017  13.5889987   7.5585006 102.4295017
   9.7039987   6.2555006  97.4695017  11.2839987   4.3225006  97.9945017
  11.1719987   6.4795006  93.4125017  10.5959987   5.4545006  93.6995017
   9.5109987   5.2905006  94.2805017  11.3059987   4.5365006  92.6285017
  11.5959987   5.1615006  91.7905017  12.2309987   4.1375006  93.0365017
  10.4419987   3.5065006  92.2395017  10.5439987   2.8255006  93.0775017
   9.4749987   3.9845006  92.3575017  10.4749987   2.5525006  90.6905017
  11.2889987   1.8525006  90.8605017   9.5579987   1.9735006  90.7625017
  10.5759987   3.1595006  89.2285017   9.9909987   4.0695006  89.3495017
  11.6169987   3.4705006  89.1895017  10.2219987   2.5575006  87.9665017
   9.4779987   1.7645006  87.9345017  10.0059987   3.2095006  87.1215017
  11.6679987   1.9315006  87.7685017  12.2749987   2.8355006  87.7515017
  11.8389987   1.4655006  88.7355017  12.2239987   0.8345006  86.5085017
  12.0309987   1.6055006  85.7715017  13.2539987   0.9735006  86.8345017
  12.0799987  -0.6534994  85.8545017  12.3469987  -1.3354994  86.6475017
  11.7369987  -1.1824994  84.6985017  11.6159987  -2.0984994  84.1385017
  11.4389987  -0.1164994  84.0355017  10.9059987  -0.4024994  83.1305017
  10.7709987   0.5345006  84.5885017  12.7589987   0.7105006  83.6055017
  12.9429987   1.3285006  84.4835017  13.5219987  -0.0654994  83.6155017
  12.9389987   1.6635006  82.1845017  13.9149987   2.1105006  82.3745017
  13.0999987   0.8855006  81.4435017  11.6349987   3.1425006  81.3875017
  11.0209987   3.2475006  82.2795017  12.3469987   3.9665006  81.4095017
  10.7519987   3.2645006  80.1205017  11.4059987   3.2005006  79.2525017
  10.1049987   2.3935006  80.0695017  10.0539987   4.3385006  80.0105017
   9.2589987   4.2725006  79.2705017   9.5769987   4.6465006  80.9395017
  10.9859987   5.3855006  79.5985017  10.4479987   6.3285006  79.6535017
  11.7329987   5.4245006  80.3885017  11.6089987   5.2985006  78.4255017
  12.3279987   6.1045006  78.3105017  10.9159987   5.3595006  77.5925017
  12.1479987   4.3595006  78.3385017   4.9329987  94.7315006  82.2665017
   4.9089987  93.8845006  81.5875017   5.6309987  94.4965006  83.0645017
   5.3329987  95.5815006  81.7205017   3.5499987  95.0375006  82.8175017
   3.1759987  94.1505006  83.3255017   2.8819987  95.2135006  81.9795017
   3.5089987  96.2125006  83.7725017   2.4899987  96.5965006  83.8115017
   4.1159987  97.0115006  83.3505017   3.9999987  95.9305006  85.2025017
   4.2449987  96.8525006  85.7245017   4.9069987  95.3275006  85.2145017
   2.8929987  95.2015006  85.9845017   2.7299987  94.2425006  85.4995017
   1.9799987  95.7765006  85.8395017   3.1099987  94.9705006  87.4765017
   2.2089987  94.5715006  87.9385017   3.3219987  95.9085006  87.9845017
   4.2609987  94.0055006  87.7055017   5.1819987  94.3785006  87.2605017
   4.0659987  93.0415006  87.2375017   4.4719987  93.8035006  89.2095017
   3.5949987  93.3165006  89.6345017   4.5479987  94.7735006  89.6975017
   5.7149987  92.9765006  89.5355017   6.4309987  93.0495006  88.7195017
   5.4479987  91.9235006  89.6115017   6.3819987  93.4225006  90.8355017
   6.6559987  94.4705006  90.7395017   7.3149987  92.8725006  90.9565017
   5.5179987  93.2205006  92.0745017   4.8609987  92.3595006  91.9685017
   4.8699987  94.0725006  92.2735017   6.4259987  92.9865006  93.2795017
   7.1789987  93.7695006  93.3255017   6.9669987  92.0515006  93.1425017
   5.6639987  92.9175006  94.5885017   4.9189987  92.1255006  94.5425017
   5.1189987  93.8375006  94.7815017   6.5939987  92.6255006  95.7785017
   7.4839987  93.2445006  95.7335017   6.9269987  91.5915006  95.7365017
   5.8849987  92.8565006  97.1235017   4.9739987  92.2735006  97.1765017
   5.6349987  93.9035006  97.2435017   5.7569987  94.3375006  97.4555017
   6.4469987  94.9375006  98.2675017   4.7029987  94.8235006  96.8615017
   4.3499987  96.2035006  97.0685017   5.1719987  96.7345006  96.6155017
   4.2899987  96.4655006  98.1145017   3.0219987  96.5335006  96.3345017
   2.9479987  97.6005006  96.2065017   1.7539987  95.9825006  97.0765017
   0.8739987  96.4755006  96.6865017   1.8549987  96.2405006  98.1255017
   1.6559987  94.5625006  96.9125017   0.7919987  93.6825006  97.9165017
   1.6559987  93.7585006  99.2525017   3.0349987  93.4095006  99.2855017
   3.7259987  94.2135006  99.0555017   3.0929987  92.6845006  98.4895017
   3.4499987  92.6825006 100.6165017   2.8269987  93.0645006 101.4115017
   4.8879987  92.9505006 100.9775017   5.3439987  92.0585006 100.7795017
   5.3039987  93.7475006 100.4515017   4.9949987  93.1305006 101.9585017
   3.1349987  91.1735006 100.6035017  -0.4750013  94.4115006  98.1325017
   0.7379987  92.2855006  97.4475017   3.1889987  95.9835006  95.0165017
   2.2469987  96.2815006  94.1625017   1.5199987  97.2595006  94.2325017
   4.0989987  90.3655006 100.6935017   1.9389987  90.8125006 100.5875017
   2.3059987  95.2745006  93.0075017   3.0579987  95.6275006  92.3095017
   2.6719987  94.3215006  93.3815017   0.9339987  95.1155006  92.3415017
   0.5079987  96.0875006  92.1205017   1.0199987  94.6015006  91.3895017
  -0.0290013  94.3395006  93.2725017  -0.0290013  94.8575006  94.2285017
  -1.0230013  94.4755006  92.8545017   0.2149987  92.8125006  93.4905017
   1.1089987  92.6955006  94.1005017  -0.6030013  92.3875006  94.0665017
   0.3969987  91.9855006  92.1975017  -0.3090013  92.3695006  91.4645017
   1.3879987  92.2205006  91.8145017   0.2539987  90.4375006  92.2915017
  -0.6650013  90.2495006  92.8445017   0.0879987  90.0645006  91.2845017
   1.4069987  89.6355006  92.9305017   1.3009987  89.5835006  94.0075017
   1.4009987  88.6075006  92.5715017   2.7039987  90.2675006  92.5465017
   3.3119987  90.7825006  93.2745017   3.1649987  90.2105006  91.3095017
   4.0999987  90.6885006  91.0535017   2.4969987  89.5115006  90.1565017
   2.9009987  88.5015006  90.1185017   1.4349987  89.4065006  90.3495017
   2.7049987  90.1695006  88.7705017   2.5419987  91.2455006  88.8065017
   3.7259987  90.0295006  88.4205017   1.7659987  89.5585006  87.7945017
   2.0849987  88.5495006  87.5335017   0.7689987  89.4625006  88.2145017
   1.7059987  90.3905006  86.5565017   0.8769987  90.0315006  85.9505017
   1.4569987  91.4125006  86.8385017   2.9959987  90.3955006  85.7275017
   3.7689987  90.9765006  86.2275017   3.4019987  89.3935006  85.6195017
   2.7589987  91.0135006  84.3545017   2.0089987  90.4305006  83.8225017
   2.3349987  92.0085006  84.4795017   3.9999987  91.1245006  83.4755017
   3.8209987  91.8635006  82.6985017   4.7949987  91.5335006  84.0955017
   4.4899987  89.8345006  82.8425017   5.4229987  89.9965006  82.3105017
   3.7749987  89.4345006  82.1315017   4.6669987  89.0725006  83.5965017
 107.9859987  16.0915006  82.8065017 108.9449987  16.5895006  82.7005017
 107.8329987  15.4765006  81.9245017 108.0519987  15.4275006  83.6635017
 106.8369987  17.1145006  82.9815017 106.8959987  17.7645006  82.1105017
 107.1299987  17.7205006  83.8345017 105.4739987  16.6565006  83.1415017
 105.2299987  15.7565006  82.5775017 104.7289987  17.3985006  82.8615017
 105.3369987  16.3755006  84.5975017 106.0779987  15.6115006  84.8225017
 104.3649987  15.9025006  84.7305017 105.4889987  17.5225006  85.6135017
 104.7209987  18.2695006  85.4295017 106.4429987  18.0155006  85.4355017
 105.4129987  17.0855006  87.0725017 105.2049987  17.9555006  87.6915017
 106.3889987  16.7175006  87.3835017 104.3559987  16.0065006  87.3425017
 104.4479987  15.2175006  86.5985017 103.3629987  16.4335006  87.2115017
 104.4629987  15.3965006  88.7425017 104.2869987  16.1635006  89.4955017
 105.4739987  15.0305006  88.9115017 103.4639987  14.2425006  88.9505017
 103.6499987  13.4655006  88.2125017 102.4519987  14.6005006  88.7655017
 103.5369987  13.6355006  90.3575017 102.5979987  13.1565006  90.6245017
 103.7129987  14.4035006  91.1095017 104.6829987  12.6095006  90.4045017
 105.5259987  13.0665006  89.8905017 104.3779987  11.7635006  89.7905017
 105.1669987  12.0985006  91.7655017 105.9349987  11.3465006  91.6015017
 104.3389987  11.5865006  92.2515017 105.6879987  13.1875006  92.7065017
 104.9529987  13.9875006  92.7795017 106.5939987  13.6415006  92.3165017
 105.9589987  12.6665006  94.1165017 105.1069987  12.1155006  94.5005017
 106.1249987  13.5005006  94.7935017 107.1399987  11.8045006  94.1425017
 107.9969987  12.3235006  93.7325017 106.9649987  10.9075006  93.5605017
 108.2759987  12.9885006  93.8425017 108.8289987  13.4075006  92.8065017
 108.7699987  13.2305006  95.0375017 110.1409987  13.5785006  95.2805017
 110.6599987  13.7425006  94.3485017 110.5219987  12.6795006  95.7435017
 110.3119987  14.7685006  96.1905017 111.3289987  15.1245006  96.2085017
 109.8509987  14.5215006  97.5475017 109.8659987  15.4215006  98.1475017
 110.4799987  13.7785006  98.0215017 108.5189987  14.0325006  97.4145017
 107.8449987  13.4985006  98.6795017 106.4629987  14.2695006  98.6785017
 106.4299987  15.5645006  98.0635017 106.3859987  15.5005006  96.9845017
 107.3419987  16.1035006  98.3025017 105.2799987  16.4465006  98.6165017
 104.3609987  15.9575006  98.3185017 105.3249987  17.4175006  98.1455017
 105.1409987  16.7145006 100.1195017 104.8869987  15.4635006 100.8955017
 104.0599987  14.9365006 100.4405017 104.6269987  15.7445006 101.9055017
 105.7879987  14.8685006 100.9055017 106.3709987  17.3685006 100.6505017
 106.6129987  18.2085006 100.0175017 107.1699987  16.6485006 100.6715017
 106.1489987  17.7105006 101.6505017 104.0359987  17.6515006 100.4445017
 104.2029987  18.5885006  99.9345017 104.0149987  17.8185006 101.5105017
 103.0959987  17.2245006 100.1275017 107.6789987  12.0345006  98.5475017
 108.6389987  14.0185006  99.7805017 109.4349987  15.7515006  95.7105017
 109.8189987  15.8735006  94.5575017 111.0909987  15.7225006  94.3535017
 108.4859987  16.8825006  93.9085017 108.0059987  17.2975006  94.7885017
 108.9549987  17.7215006  93.4015017 107.6209987  16.2705006  93.1155017
 108.0819987  15.6805006  92.3305017 106.9259987  15.6075006  93.6205017
 106.8779987  17.4095006  92.4985017 105.9709987  17.0235006  92.0405017
 106.5549987  18.0655006  93.3035017 107.6629987  18.2305006  91.4895017
 106.9849987  18.8925006  90.9535017 108.3879987  18.8735006  91.9835017
 108.3279987  17.4345006  90.5575017 109.1059987  16.8095006  90.9915017
 107.6579987  16.7595006  90.0285017 108.8739987  18.2715006  89.6755017
 108.1209987  19.0035006  89.3875017 109.6749987  18.8285006  90.1535017
 109.3779987  17.6575006  88.5345017 109.8119987  18.5615006  88.1235017
 110.1859987  17.1325006  89.0435017 108.8449987  16.7795006  87.4555017
 108.2909987  17.3735006  86.7445017 108.9289987  15.5315006  87.2275017
 108.4419987  15.1545006  86.3395017 109.5919987  14.5375006  87.9895017
 109.8519987  13.7505006  87.2835017 110.5299987  14.9465006  88.3465017
 108.8519987  13.9135006  89.1355017 109.5019987  13.4005006  89.8435017
 108.2849987  14.6395006  89.7155017 107.8999987  12.9215006  88.5155017
 107.4629987  12.3045006  89.3005017 107.0729987  13.4495006  88.0485017
 108.5449987  12.0605006  87.5315017 108.9799987  12.8145006  86.8795017
 109.3659987  11.6605006  88.1245017 107.9309987  10.9315006  86.6895017
 108.5139987  10.0355006  86.8915017 106.9379987  10.7355006  87.0855017
 107.8649987  11.1095006  85.2265017 107.3179987  10.2505006  84.8405017
 107.2259987  11.9745006  85.0575017 109.1379987  11.2815006  84.4065017
 109.8869987  11.9455006  84.8315017 109.6519987  10.3425006  84.2115017
 108.6459987  11.8525006  83.0865017 109.4619987  11.9385006  82.3755017
 108.2149987  12.8405006  83.2075017 107.8879987  11.2135006  82.6435017
  99.7299987  98.2565006  80.1965017  98.9719987  97.4795006  80.2205017
  99.8419987  98.5775006  79.1645017  99.3539987  99.1025006  80.7655017
 101.0009987  97.7775006  80.7435017 101.3939987  96.9315006  80.1825017
 100.8969987  97.4405006  81.7715017 101.9869987  98.9255006  80.6695017
 102.1369987  99.2005006  79.6255017 102.9519987  98.5745006  81.0305017
 101.5919987 100.1775006  81.4725017 100.6749987 100.5795006  81.0485017
 102.3509987 100.9455006  81.3315017 101.3779987  99.9455006  82.9685017
 100.4449987  99.4005006  83.0895017 101.2209987 100.9235006  83.4215017
 102.4869987  99.2075006  83.7295017 103.4339987  99.3585006  83.2155017
 102.2909987  98.1375006  83.6995017 102.6269987  99.6555006  85.1925017
 102.9569987 100.6925006  85.1985017 103.4309987  99.0785006  85.6475017
 101.3579987  99.5215006  86.0495017 100.7899987  98.6335006  85.7765017
 100.6889987 100.3675006  85.9005017 101.7449987  99.4385006  87.5275017
 102.6939987  99.9515006  87.6665017 101.9249987  98.3945006  87.7815017
 100.7149987 100.0165006  88.4825017  99.7149987  99.6495006  88.2595017
 100.6649987 101.1025006  88.4105017 101.1099987  99.6255006  89.9045017
 102.1369987  99.9275006  90.0965017 101.0849987  98.5435006  90.0235017
 100.2509987 100.2425006  90.9175017  99.3289987  99.6665006  90.9095017
  99.9989987 101.2255006  90.5235017 100.7629987 100.4075006  92.3665017
 101.1639987 101.4095006  92.5065017 101.5769987  99.7205006  92.5825017
  99.6319987 100.1955006  93.4065017  99.1749987  99.2425006  93.1615017
  98.8969987 100.9635006  93.1815017  99.9359987 100.2365006  94.9025017
 100.4229987 101.1675006  95.1645017 100.5849987  99.4145006  95.1785017
  98.8389987  99.7665006  95.7625017  97.7039987  99.6655006  95.3265017
  99.2179987  99.6625006  96.9825017  98.2379987  99.0625006  97.8805017
  97.3349987  98.7035006  97.4105017  97.9899987  99.8765006  98.5465017
  98.9079987  97.9615006  98.6145017  98.3129987  97.7615006  99.4905017
 100.3249987  98.2505006  99.0155017 100.6809987  97.3545006  99.5045017
 100.2349987  99.0365006  99.7545017 101.2349987  98.6485006  97.9655017
 102.5409987  99.5215006  98.1695017 103.6359987  98.4565006  98.5455017
 103.6249987  97.1045006  98.1275017 104.6109987  96.7715006  97.8305017
 102.9899987  97.0065006  97.2525017 103.0079987  96.1475006  99.1895017
 103.2899987  95.1285006  98.9555017 101.9319987  96.2285006  99.1445017
 103.3829987  96.3555006 100.6515017 102.8409987  97.6685006 101.1565017
 103.1359987  98.4505006 100.4705017 103.2729987  97.8555006 102.1285017
 101.7679987  97.5935006 101.2455017 102.9659987  95.2015006 101.4955017
 103.3149987  94.2925006 101.0295017 101.8949987  95.2075006 101.5935017
 103.4309987  95.3245006 102.4635017 104.8859987  96.3955006 100.7605017
 105.2949987  95.4725006 100.3775017 105.1629987  96.5115006 101.7975017
 105.2669987  97.2295006 100.1895017 102.9499987 100.1425006  96.8985017
 102.3929987 100.3875006  99.3715017  99.1499987  96.9125006  97.8805017
  99.8589987  95.5815006  97.5625017 100.2789987  95.0705006  98.5595017
  99.9929987  94.7685006  95.5545017  99.2059987  94.0325006  95.4255017
  99.7999987  95.5425006  94.8165017 101.1869987  94.2445006  95.3895017
 101.9639987  94.9645006  95.6245017 101.3509987  93.3995006  96.0505017
 101.3339987  93.8145006  93.9755017 102.2759987  93.2735006  93.9425017
 100.5529987  93.0705006  93.8395017 101.2629987  94.8035006  92.8315017
 100.2119987  95.0265006  92.6575017 101.7249987  95.7375006  93.1415017
 101.8649987  94.3745006  91.5515017 102.6389987  93.6225006  91.6905017
 101.1219987  93.9265006  90.8945017 102.4599987  95.5895006  90.8555017
 101.6949987  96.1345006  90.3035017 102.8889987  96.2945006  91.5615017
 103.5429987  95.1425006  89.8995017 104.3099987  94.5825006  90.4225017
 103.1259987  94.4675006  89.1535017 104.1299987  96.3405006  89.1925017
 104.5789987  97.0815006  89.8365017 104.1659987  96.5765006  87.8675017
 104.6289987  97.5015006  87.5565017 103.6549987  95.7325006  86.7295017
 103.8789987  94.6885006  86.9405017 102.5769987  95.7975006  86.6295017
 104.3219987  96.1085006  85.3795017 103.8069987  96.9685006  84.9525017
 105.3429987  96.4325006  85.5745017 104.3419987  95.0015006  84.3905017
 104.7259987  95.2805006  83.4095017 104.9009987  94.1215006  84.6965017
 102.9399987  94.6645006  84.2745017 102.5209987  94.0465006  85.0655017
 102.2439987  95.4895006  84.1315017 103.0319987  93.9085006  83.0595017
 103.7449987  93.1395006  83.3505017 102.0599987  93.4225006  83.0475017
 103.4009987  94.3845006  81.6415017 102.5939987  95.0025006  81.2515017
 104.2739987  95.0315006  81.7025017 103.6869987  93.2875006  80.6475017
 104.4929987  93.5405006  79.9635017 104.0089987  92.3845006  81.1615017
 102.6719987  93.0355006  80.0075017 102.8329987  92.1885006  79.3475017
 102.3629987  93.8735006  79.3915017 101.8449987  92.7885006  80.6675017
   1.9279987   9.3305006  81.7275017   1.6769987   9.8695006  80.8195017
   1.2289987   9.6395006  82.4995017   1.7649987   8.2725006  81.5405017
   3.3789987   9.5985006  82.1515017   3.4779987  10.6755006  82.2715017
   4.0029987   9.3275006  81.3045017   3.8849987   8.8975006  83.4285017
   3.8199987   7.8135006  83.3305017   3.2569987   9.1615006  84.2765017
   5.3299987   9.2895006  83.7535017   5.4539987  10.3385006  83.4935017
   5.9949987   8.7345006  83.0935017   5.7749987   9.0885006  85.2105017
   5.5219987   8.1005006  85.5855017   5.2899987   9.8005006  85.8755017
   7.2729987   9.2735006  85.2885017   7.4749987  10.3365006  85.1705017
   7.7069987   8.7835006  84.4195017   7.9639987   8.7665006  86.5475017
   9.0439987   8.8045006  86.4175017   7.7139987   7.7195006  86.7105017
   7.5749987   9.5775006  87.7865017   6.4899987   9.6455006  87.8525017
   7.9369987  10.5985006  87.6845017   8.1209987   8.9775006  89.0775017
   9.1139987   8.5725006  88.8965017   7.4999987   8.1345006  89.3755017
   8.1869987   9.9945006  90.2335017   8.7079987  10.8715006  89.8555017
   8.8279987   9.5675006  91.0045017   6.8389987  10.4125006  90.8675017
   6.3449987   9.5605006  91.3305017   6.1439987  10.7975006  90.1235017
   7.0719987  11.4865006  91.9505017   7.9429987  12.0725006  91.6655017
   7.3379987  10.9755006  92.8735017   5.8859987  12.4085006  92.2275017
   5.6339987  13.0015006  91.3505017   6.0779987  13.1165006  93.0285017
   4.6779987  11.5715006  92.5875017   4.9429987  10.7885006  93.2905017
   4.2949987  11.0785006  91.6975017   3.6509987  12.3615006  93.1405017
   3.3919987  13.1705006  92.4695017   3.9669987  12.7825006  94.0875017
   2.4719987  11.2645006  93.3955017   1.5129987  10.8955006  92.6995017
   2.6269987  10.9615006  94.6515017   1.4949987  10.3995006  95.2955017
   0.9589987   9.8495006  94.5365017   0.8809987  11.2205006  95.6355017
   1.8539987   9.5095006  96.4145017   0.9809987   9.0535006  96.8515017
   2.6519987  10.2375006  97.4915017   2.1469987  11.1545006  97.7635017
   3.6219987  10.4845006  97.0775017   2.7979987   9.3945006  98.6275017
   3.6519987   9.9595006  99.8215017   4.2669987  11.2645006  99.1595017
   5.2219987  12.0795006  99.7915017   4.8399987  12.4715006 100.7255017
   5.4229987  12.9375006  99.1565017   6.5979987  11.3935006  99.9965017
   6.4059987  10.3785006 100.3205017   7.1929987  11.8905006 100.7485017
   7.4879987  11.2745006  98.7715017   6.8539987  10.3555006  97.7825017
   6.5889987   9.4365006  98.2865017   7.5769987  10.1495006  97.0075017
   5.9919987  10.8435006  97.3535017   7.6709987  12.6205006  98.1635017
   7.9649987  13.3105006  98.9395017   6.7509987  12.9235006  97.6965017
   8.4549987  12.5375006  97.4245017   8.8349987  10.7795006  99.1465017
   9.2749987  11.4565006  99.8635017   9.4549987  10.7345006  98.2635017
   8.7489987   9.7925006  99.5785017   2.7129987  10.2455006 100.9225017
   4.7739987   9.0175006 100.0665017   2.6409987   8.4965006  95.8345017
   2.3949987   7.3485006  96.3115017   1.5539987   7.0725006  97.1525017
   3.2599987   6.4055006  95.5145017   4.3059987   6.6915006  95.5605017
   3.2169987   5.3785006  95.8675017   2.7069987   6.5225006  94.1235017
   2.6139987   5.5005006  93.7715017   1.6929987   6.8915006  94.2435017
   3.4299987   7.3405006  93.0815017   2.9769987   8.3205006  93.2065017
   4.4259987   7.4095006  93.5115017   3.5629987   7.0095006  91.5905017
   4.6299987   6.7945006  91.5705017   3.0589987   6.0465006  91.5745017
   3.2019987   7.7765006  90.3175017   2.2799987   8.3355006  90.4655017
   3.9739987   8.5155006  90.1125017   3.0489987   6.8345006  89.0465017
   3.9079987   6.1685006  88.9765017   2.1739987   6.1975006  89.1385017
   2.9319987   7.6355006  87.7695017   3.8219987   8.1945006  87.5035017
   2.6769987   7.0315006  86.8995017   1.8319987   8.5175006  88.0545017
   0.8079987   8.1855006  88.1285017   2.0589987   9.7785006  88.2505017
   1.0979987  10.2125006  88.4895017   3.2279987  10.7945006  88.2495017
   2.9779987  11.4715006  89.0645017   4.1059987  10.2455006  88.5705017
   3.5939987  11.6795006  86.9515017   3.8359987  11.0385006  86.1045017
   2.7319987  12.2695006  86.6475017   4.7359987  12.5895006  87.2275017
   4.4459987  13.3995006  87.8965017   5.5589987  12.0725006  87.7145017
   5.2189987  13.1805006  85.9005017   6.2649987  13.4265006  86.0665017
   5.2099987  12.3545006  85.1915017   4.4859987  14.3875006  85.2835017
   3.4149987  14.1955006  85.2975017   4.6389987  15.2655006  85.9055017
   4.8909987  14.6935006  83.8355017   4.5859987  15.6955006  83.5375017
   5.9709987  14.6565006  83.7085017   4.2769987  13.7205006  82.9085017
   4.2279987  12.7265006  83.3455017   3.2469987  14.0085006  82.7135017
   5.0249987  13.6555006  81.5865017   4.5129987  13.0035006  80.8855017
   6.0329987  13.2725006  81.7095017   5.0989987  14.6385006  81.1305017
   7.8879987 105.0935006  82.3285017   8.0409987 104.2735006  81.6345017
   7.9559987 106.0205006  81.7665017   6.8749987 105.0165006  82.7135017
   8.9049987 105.0585006  83.4555017   9.9189987 105.1255006  83.0645017
   8.8469987 104.1155006  83.9925017   8.6719987 106.1555006  84.3555017
   7.5839987 106.0955006  84.3935017   8.9049987 106.9655006  83.6675017
   9.2109987 106.5305006  85.7545017  10.2489987 106.6065006  85.4385017
   9.0959987 105.5335006  86.1765017   8.9549987 107.5685006  86.8385017
   8.1009987 107.2845006  87.4475017   8.6999987 108.5235006  86.3825017
  10.0549987 107.7345006  87.6585017   9.4839987 108.4025006  88.3015017
  10.5289987 108.3655006  86.9095017  11.2109987 106.9875006  88.5445017
  11.4809987 106.1605006  87.8905017  10.6179987 106.5575006  89.3505017
  12.5929987 107.6585006  89.1785017  12.2619987 108.2885006  90.0035017
  12.9699987 108.3345006  88.4135017  13.6469987 106.8215006  89.6235017
  14.5939987 107.3425006  89.7455017  13.8459987 105.9815006  88.9595017
  13.1939987 106.3065006  90.9435017  12.5059987 105.4725006  90.8265017
  12.6559987 107.0695006  91.5065017  14.4029987 105.8715006  91.7305017
  15.1089987 106.6985006  91.7625017  14.9049987 105.0655006  91.1975017
  14.1189987 105.4275006  93.1615017  15.0759987 105.2705006  93.6525017
  13.6419987 104.4505006  93.1075017  13.2309987 106.3645006  94.0135017
  13.3249987 106.0165006  95.0405017  12.1989987 106.1855006  93.7245017
  13.5019987 107.8885006  93.9985017  13.3459987 108.2915006  93.0025017
  14.5429987 108.0695006  94.2515017  12.6149987 108.6535006  94.9985017
  12.7289987 108.2465006  95.9955017  11.5729987 108.5815006  94.7105017
  11.2379987 108.6615006  94.4775017  10.9029987 108.1985006  93.4075017
  10.5069987 109.1085006  95.4725017   9.1249987 108.8985006  95.3965017
   9.0769987 108.8365006  94.3195017   8.6549987 109.8165006  95.7185017
   8.4619987 107.7165006  96.0115017   7.4119987 107.6255006  95.7875017
   8.6599987 107.8415006  97.5035017   7.8379987 107.4095006  98.0575017
   8.7529987 108.8845006  97.7785017   9.8539987 107.1535006  97.7795017
  10.1749987 106.9655006  99.2925017  11.1279987 105.6995006  99.1775017
  10.7239987 104.4415006  98.6725017  10.0959987 104.4815006  97.7925017
  10.1789987 103.8655006  99.4145017  12.0079987 103.6365006  98.3995017
  12.6029987 104.2285006  97.7155017  11.7539987 102.7025006  97.9205017
  12.9459987 103.2725006  99.5615017  12.1489987 102.8015006 100.7365017
  11.3789987 103.5315006 100.9465017  12.8159987 102.7235006 101.5825017
  11.7339987 101.8305006 100.5115017  13.8679987 102.2195006  99.0855017
  14.2979987 102.5385006  98.1485017  13.3229987 101.2995006  98.9755017
  14.6429987 102.1085006  99.8295017  13.7299987 104.4995006  99.9075017
  14.2769987 104.8295006  99.0365017  14.4219987 104.2655006 100.7025017
  13.0559987 105.2785006 100.2325017  10.9749987 108.1075006  99.7925017
   8.9419987 106.5545006 100.0095017   9.0319987 106.6465006  95.3455017
   8.4109987 105.5605006  95.4545017   7.3519987 105.3085006  96.0015017
   9.2639987 104.5695006  94.7295017  10.2019987 105.0465006  94.4665017
   9.5249987 103.7405006  95.3825017   8.5099987 104.0835006  93.5035017
   7.5929987 103.5685006  93.7685017   8.2189987 104.8925006  92.8405017
   9.4279987 103.1185006  92.7695017   9.9859987 102.4965006  93.4655017
   8.8419987 102.4375006  92.1575017  10.3959987 103.8875006  91.8575017
   9.8769987 104.7325006  91.4085017  11.2219987 104.3065006  92.4265017
  10.9549987 103.0275006  90.7465017  11.9799987 103.3275006  90.5375017
  11.0059987 101.9985006  91.0965017  10.1389987 103.0635006  89.4465017
   9.0829987 102.8895006  89.6485017  10.2019987 104.0305006  88.9545017
  10.6539987 101.9905006  88.4845017  10.4389987 100.9955006  88.8565017
  10.1519987 102.0725006  87.5215017  12.1329987 102.1845006  88.2745017
  12.7879987 101.7905006  89.0365017  12.7099987 102.7875006  87.2255017
  13.7839987 102.8855006  87.1545017  11.9639987 103.3735006  86.0635017
  11.0159987 103.7905006  86.3985017  12.4939987 104.1815006  85.5715017
  11.6669987 102.2625006  85.0445017  11.0669987 101.4665006  85.4835017
  11.0899987 102.6495006  84.2065017  12.9819987 101.6825006  84.5245017
  13.6059987 102.5255006  84.2285017  13.4849987 101.2125006  85.3655017
  12.8949987 100.7135006  83.3925017  13.8649987 100.6275006  82.9085017
  12.6519987  99.7205006  83.7655017  11.8809987 101.1235006  82.4125017
  10.8499987 100.9885006  82.7335017  11.9469987 102.1455006  82.0495017
  12.1359987 100.1955006  81.3305017  13.0249987 100.3125006  80.7135017
  12.0249987  99.1265006  81.4995017  11.0109987 100.6545006  80.5935017
  10.8369987  99.9235006  79.8085017  10.1739987 100.5555006  81.2805017
  10.9859987 102.3205006  79.8825017  10.0209987 102.5325006  79.4315017
  11.7389987 102.4435006  79.1115017  11.1679987 103.0735006  80.6445017
  94.8189987   5.8795006  78.0215017  94.9109987   6.9575006  77.9295017
  93.8409987   5.5965006  77.6415017  95.5659987   5.4275006  77.3745017
  95.0079987   5.4115006  79.5255017  94.2389987   6.0985006  79.8755017
  95.9509987   5.9455006  79.5995017  95.0359987   3.8015006  80.7075017
  94.9649987   3.0885006  79.8865017  94.0199987   3.9445006  81.0705017
  95.8749987   3.1915006  81.8365017  96.0469987   3.8275006  82.7015017
  96.8459987   2.7775006  81.5685017  94.9569987   2.0815006  82.2345017
  94.8989987   1.2905006  81.4905017  93.9369987   2.4285006  82.3925017
  95.4839987   1.5095006  83.5075017  96.4269987   0.9955006  83.3305017
  94.7989987   0.7615006  83.9005017  95.6929987   2.5985006  84.5545017
  94.9239987   3.3535006  84.4015017  96.6429987   3.0845006  84.3375017
  95.6769987   2.1475006  86.0305017  96.5649987   2.5895006  86.4795017
  95.8499987   1.0735006  86.0095017  94.4619987   2.4465006  86.9135017
  94.6169987   2.0645006  87.9205017  93.5759987   1.9425006  86.5305017
  94.2129987   3.8665006  86.9735017  93.7409987   4.1405006  86.0325017
  95.1849987   4.3595006  86.9825017  93.3519987   4.3965006  88.1835017
  92.7379987   3.5995006  88.5975017  92.6619987   5.1785006  87.8705017
  94.2079987   4.9075006  89.2375017  93.6839987   5.6435006  89.8425017
  95.0689987   5.4205006  88.8135017  94.6699987   3.8455006  90.0525017
  95.4169987   3.2315006  89.5525017  93.8909987   3.1655006  90.3855017
  95.3089987   4.4685006  91.2385017  94.6599987   5.2005006  91.7085017
  96.2169987   4.9915006  90.9515017  95.6799987   3.3645006  92.2825017
  96.3009987   2.6045006  91.8255017  94.7839987   2.8945006  92.6695017
  97.0929987   3.3015006  92.4745017  97.8619987   3.8435006  91.7315017
  97.3399987   2.6085006  93.5545017  98.7059987   2.5345006  93.8825017
  99.1569987   2.5135006  92.9015017  98.8609987   1.5795006  94.3625017
  99.2869987   3.6395006  94.6935017 100.3069987   3.3285006  94.8475017
  98.6319987   3.9375006  96.0295017  98.7349987   4.9895006  96.2565017
  99.1539987   3.3665006  96.7875017  97.2729987   3.5725006  95.9895017
  96.3969987   3.9965006  97.2035017  97.4039987   3.9605006  98.4205017
  97.7059987   2.7095006  98.9765017  98.3909987   2.1275006  98.3735017
  96.8049987   2.1125006  99.0815017  98.2429987   2.8865006 100.4095017
  99.1659987   3.4415006 100.3005017  98.4719987   1.9035006 100.7965017
  97.4569987   3.5995006 101.5125017  96.0029987   3.2025006 101.5615017
  95.5839987   3.3035006 100.5695017  95.4969987   3.8735006 102.2395017
  95.9279987   2.1905006 101.9295017  98.1709987   3.1995006 102.7795017
  99.2279987   3.3735006 102.6465017  97.9659987   2.1645006 102.9865017
  97.7899987   3.8225006 103.5755017  97.5269987   5.0755006 101.2885017
  98.5609987   5.3865006 101.2865017  96.9989987   5.5805006 102.0835017
  97.0699987   5.3185006 100.3405017  96.1149987   5.4095006  97.0025017
  95.3029987   3.0245006  97.3505017  99.2659987   4.7855006  93.9565017
 100.1419987   5.4695006  94.3625017 101.0039987   5.1175006  95.2295017
  99.5679987   6.6075006  93.3655017  98.7449987   6.9195006  94.0005017
 100.3519987   7.3475006  93.5095017  99.1389987   6.5185006  91.8375017
  98.4329987   5.7305006  91.6015017  98.7339987   7.4255006  91.4005017
 100.3379987   6.2275006  91.2675017 100.1499987   6.7225006  90.3175017
 100.9269987   6.9235006  91.8605017 101.0769987   5.0895006  91.0665017
 102.1299987   5.3655006  91.0525017 100.9509987   4.4145006  91.9095017
 100.7879987   4.3975006  89.8865017 101.1319987   3.3675006  89.9465017
  99.7109987   4.3485006  89.7385017 101.3829987   5.0345006  88.7385017
 101.3309987   6.1225006  88.7545017 102.4229987   4.7805006  88.5525017
 100.6089987   4.5505006  87.6825017 100.3039987   5.5645006  87.4525017
 101.5069987   4.3605006  87.0965017  99.5749987   3.5825006  87.2855017
  98.6239987   3.9555006  87.6345017  99.5669987   2.4115006  86.6125017
  98.5369987   2.0855006  86.5735017 100.5299987   1.4805006  85.9335017
 101.5139987   1.9355006  86.0295017 100.5719987   0.5465006  86.4835017
 100.2829987   1.1905006  84.4665017 101.1449987   0.6495006  84.0775017
  99.4409987   0.5045006  84.4045017 100.0219987   2.3325006  83.6405017
  99.4209987   2.0255006  82.7845017  99.4229987   3.0525006  84.1905017
 101.4209987   3.0725006  83.0945017 102.1569987   2.6505006  83.7745017
 101.5719987   2.5765006  82.1375017 101.8039987   5.4375006  82.8325017
 101.6159987   5.5135006  81.7635017 100.9019987   5.7975006  83.3185017
 102.5839987   6.0445006  83.0555017 102.7589987   6.0855006  84.1295017
 103.5069987   5.6755006  82.6135017 102.3349987   7.4835006  82.5425017
 101.7799987   7.4515006  81.6085017 101.6829987   7.9815006  83.2565017
 103.5799987   8.3165006  82.3595017 103.3249987   9.3355006  82.0845017
 104.2219987   7.9205006  81.5805017 104.1609987   8.3575006  83.2765017
   2.3769987 100.8705006  79.3085017   2.6369987 100.9375006  78.2565017
   3.2129987 101.2605006  79.8825017   1.5259987 101.5245006  79.4815017
   2.0689987  99.4965006  79.6915017   2.9409987  98.8895006  79.4535017
   1.2709987  99.1545006  79.0375017   1.6889987  99.2735006  81.1345017
   1.1829987  98.3105006  81.1995017   0.9429987 100.0235006  81.3885017
   2.8049987  99.3275006  82.1785017   3.2929987 100.2985006  82.1375017
   3.5749987  98.5925006  81.9475017   2.2969987  99.0975006  83.5965017
   1.8329987  98.1205006  83.7005017   1.5319987  99.8275006  83.8535017
   3.4509987  99.2055006  84.5915017   3.8939987 100.1965006  84.5135017
   4.2299987  98.5015006  84.3085017   3.0389987  98.9465006  86.0485017
   3.9199987  99.0155006  86.6845017   2.6779987  97.9225006  86.1385017
   1.9749987  99.8995006  86.5615017   1.6009987  99.6455006  87.5525017
   1.1009987  99.9695006  85.9165017   2.6579987 101.2385006  86.6175017
   3.0759987 101.4655006  85.6385017   3.5029987 101.1785006  87.3015017
   1.7629987 102.3485006  87.0405017   1.5819987 102.2855006  88.1115017
   0.7899987 102.2445006  86.5605017   2.3559987 103.7205006  86.6875017
   1.7649987 104.0875006  85.8515017   3.3509987 103.5265006  86.2915017
   2.4379987 104.8225006  87.7375017   1.4309987 105.0215006  88.0965017
   2.7669987 105.7315006  87.2375017   3.3819987 104.5445006  88.9285017
   4.3499987 104.9865006  88.6965017   3.5479987 103.4745006  89.0115017
   2.9319987 105.0835006  90.2805017   1.8839987 104.8165006  90.3625017
   2.9729987 106.1635006  90.1685017   3.6609987 104.6955006  91.5905017
   4.7169987 104.9225006  91.5185017   3.5459987 103.6365006  91.7865017
   3.2669987 105.3945006  92.8195017   2.7029987 106.4275006  92.5555017
   3.6099987 104.7155006  93.9275017   3.2229987 104.4815006  95.3445017
   2.6969987 105.4175006  95.4605017   4.0009987 104.4185006  96.0915017
   2.2199987 103.2725006  95.4705017   1.6479987 103.3545006  94.5605017
   1.2619987 103.2265006  96.6945017   0.6399987 102.3415006  96.6955017
   0.6219987 104.0995006  96.7045017   2.1069987 103.2305006  97.8045017
   1.7389987 102.6155006  99.1785017   2.2679987 101.1245006  98.9835017
   2.6839987 100.2915006 100.0655017   2.4829987  99.2455006  99.8755017
   2.1299987 100.5545006 100.9615017   4.1689987 100.5135006 100.4275017
   4.3629987  99.6745006 101.0835017   4.3669987 101.4285006 100.9665017
   5.2269987 100.4365006  99.3315017   5.1249987 101.5495006  98.3595017
   4.1039987 101.6085006  98.0085017   5.7819987 101.3295006  97.5315017
   5.4399987 102.4635006  98.8395017   6.4669987 100.6685006 100.0255017
   6.5069987 100.0145006 100.8825017   6.5179987 101.7025006 100.3165017
   7.2689987 100.4325006  99.3415017   5.2379987  99.0905006  98.6515017
   5.4219987  98.3215006  99.3875017   6.0209987  99.0755006  97.9085017
   4.2839987  98.9195006  98.1745017   2.5439987 103.2715006 100.2215017
   0.2709987 102.5985006  99.3935017   3.0789987 102.2115006  95.1995017
   2.5169987 101.1105006  94.8765017   1.3359987 100.8825006  94.6965017
   3.6719987 100.1835006  94.6795017   4.4419987 100.4195006  95.4065017
   3.3809987  99.1545006  94.8775017   4.1729987 100.3485006  93.2405017
   3.3999987 100.1175006  92.5155017   4.4939987 101.3625006  93.0235017
   5.3359987  99.3865006  93.0525017   6.1109987  99.6255006  93.7755017
   4.9869987  98.3875006  93.3015017   5.9269987  99.3595006  91.6385017
   6.4689987  98.4205006  91.5365017   5.1109987  99.3185006  90.9215017
   6.8709987 100.5065006  91.2505017   6.4049987 101.4755006  91.4145017
   7.7639987 100.4905006  91.8725017   7.2969987 100.3875006  89.7745017
   8.1829987 101.0005006  89.6145017   7.5889987  99.3645006  89.5545017
   6.1999987 100.8105006  88.7825017   6.3769987 100.4085006  87.7915017
   5.2259987 100.4365006  89.0965017   6.1519987 102.3135006  88.7575017
   5.5749987 102.8045006  89.5265017   6.7769987 103.0995006  87.8675017
   6.6769987 104.1725006  87.9505017   7.6379987 102.6525006  86.7255017
   8.4689987 103.3475006  86.6185017   8.0789987 101.6785006  86.9045017
   6.8599987 102.6245006  85.4005017   7.5659987 102.4625006  84.5865017
   6.2069987 101.7545006  85.4135017   6.0349987 103.8615006  85.1145017
   5.3799987 104.0425006  85.9665017   6.6979987 104.7195006  85.0535017
   5.2099987 103.7795006  83.8675017   5.8459987 103.7435006  82.9855017
   4.6119987 102.8705006  83.8485017   4.3099987 104.9585006  83.7955017
   3.5309987 104.9335006  84.5545017   4.8249987 105.9055006  83.9295017
   3.6479987 104.9215006  82.4565017   4.3089987 105.3025006  81.6805017
   3.4049987 103.8995006  82.1705017   2.4169987 105.7115006  82.4475017
   2.8679987 106.6995006  82.5005017   2.1709987 105.5535006  81.3995017
   1.2339987 105.6995006  83.1935017   0.5209987 106.4165006  82.7975017
   1.4079987 105.9545006  84.2335017   0.7659987 104.7195006  83.1675017
 109.5689987   5.9115006  83.0165017 110.5829987   6.0915006  82.6735017
 108.9059987   6.5505006  82.4405017 109.3189987   4.8805006  82.7805017
 109.4349987   6.1795006  84.5065017 109.7139987   7.2105006  84.7185017
 110.1399987   5.5555006  85.0485017 108.0319987   5.9325006  85.0065017
 108.0689987   5.8495006  86.0925017 107.7219987   4.9555006  84.6405017
 106.9709987   6.9545006  84.6155017 106.8779987   7.0595006  83.5365017
 107.1739987   7.9525006  84.9995017 105.6469987   6.4625006  85.1705017
 105.8189987   5.8775006  86.0705017 105.1889987   5.7875006  84.4495017
 104.6819987   7.5785006  85.4895017 103.6979987   7.1235006  85.5905017
 104.6339987   8.2145006  84.6075017 104.9679987   8.4445006  86.7225017
 104.3849987   9.3625006  86.6865017 106.0139987   8.7485006  86.7395017
 104.6379987   7.6825006  88.0235017 105.3809987   6.8965006  88.1515017
 103.6829987   7.1785006  87.8875017 104.5809987   8.5355006  89.2935017
 104.0909987   7.9325006  90.0545017 103.9089987   9.3665006  89.0845017
 105.8909987   9.0765006  89.8455017 105.7159987   9.3565006  90.8825017
 106.1179987  10.0005006  89.3145017 107.0729987   8.1505006  89.7545017
 107.9689987   8.7665006  89.7095017 107.0199987   7.6245006  88.8025017
 107.2429987   7.1365006  90.8805017 106.3239987   6.5905006  91.0785017
 107.5149987   7.6235006  91.8155017 108.3179987   6.2015006  90.5065017
 109.0369987   6.7715006  89.9205017 107.8979987   5.4585006  89.8345017
 109.0549987   5.5125006  91.5865017 109.2379987   6.2835006  92.3285017
 110.0149987   5.2775006  91.1335017 108.5749987   4.3745006  92.2195017
 108.3529987   3.6025006  91.4935017 107.6709987   4.6025006  92.7715017
 109.0529987   4.2845006  93.5955017 109.9599987   3.6715006  94.1245017
 108.2149987   5.0865006  94.2645017 108.3429987   4.9505006  95.6845017
 109.1869987   5.5965006  95.8715017 108.6179987   3.9335006  95.9225017
 107.1699987   5.3885006  96.4905017 107.2379987   6.4635006  96.5275017
 107.1169987   4.8145006  97.9285017 108.0729987   4.8915006  98.4285017
 106.8229987   3.7725006  97.8995017 106.1439987   5.5815006  98.6035017
 105.7549987   5.3655006 100.1115017 105.6239987   6.8385006 100.6575017
 106.2499987   8.0135006 100.1825017 107.3269987   7.9365006 100.2565017
 105.9569987   8.8455006 100.8155017 105.8159987   8.4225006  98.7435017
 106.2119987   7.6385006  98.1115017 106.2759987   9.3595006  98.4635017
 104.3309987   8.5525006  98.3675017 103.5879987   9.4675006  99.2895017
 103.7819987   9.1625006 100.3085017 102.5339987   9.3725006  99.0755017
 103.9049987  10.4835006  99.1055017 104.2849987   9.1815006  97.0345017
 104.9549987   8.6455006  96.3795017 104.5669987  10.2155006  97.1245017
 103.2699987   9.1005006  96.6735017 103.5699987   7.2535006  98.3225017
 104.0379987   6.5915006  97.6095017 102.5519987   7.4495006  98.0205017
 103.5749987   6.7985006  99.3025017 104.3949987   4.8115006 100.0685017
 106.8319987   4.6595006 100.8575017 106.0169987   5.0585006  95.7685017
 105.6869987   5.9975006  94.9865017 106.2629987   7.0095006  94.6175017
 104.3059987   5.8335006  94.7735017 103.9049987   6.1215006  95.7395017
 104.0609987   6.6475006  94.0955017 103.7319987   4.5425006  94.2935017
 104.0349987   3.8125006  95.0365017 102.6569987   4.6505006  94.3995017
 104.0619987   4.0105006  92.9125017 105.0849987   3.6475006  92.9655017
 103.4349987   3.1315006  92.7865017 103.8979987   4.8615006  91.7585017
 103.0319987   5.4945006  91.9415017 104.7529987   5.5295006  91.6865017
 103.7059987   4.1625006  90.4205017 103.2709987   3.1755006  90.5645017
 102.9959987   4.7215006  89.8145017 104.9079987   4.0415006  89.7055017
 105.3969987   4.9755006  89.9795017 105.4139987   3.2565006  90.2605017
 105.0969987   3.7965006  88.2595017 104.6599987   4.5985006  87.6765017
 106.1599987   3.7885006  88.0215017 104.5159987   2.4825006  87.8835017
 104.9049987   1.5705006  88.3105017 103.5689987   2.3755006  87.0885017
 103.0879987   1.4715006  86.7445017 103.0279987   3.5465006  86.5545017
 102.2789987   3.7275006  87.3235017 103.8419987   4.2335006  86.7555017
 102.4489987   3.8545006  85.2865017 103.2669987   4.4465006  84.8765017
 102.5329987   2.8675006  84.8355017 100.8919987   4.5835006  84.8145017
 100.2749987   4.1155006  85.5815017 101.0899987   5.5945006  85.1585017
  99.7839987   4.6585006  82.9575017  98.9839987   3.9235006  82.8975017
  99.3249987   5.6245006  82.7525017 101.6959987   4.1315006  81.0325017
 102.0159987   3.1015006  81.1785017 101.1989987   4.1535006  80.0665017
 103.7179987   5.5545006  80.9765017 103.2409987   6.5065006  81.2025017
 104.1679987   5.2145006  81.9075017 104.6719987   5.7635006  80.1075017
 104.6159987   5.4965006  79.0555017 105.2969987   6.6525006  80.1545017
 105.3459987   4.6615006  80.8665017 106.3579987   4.5065006  80.5035017
 104.8169987   3.7195006  80.7685017 105.4069987   4.8965006  81.9255017
 105.1829987 108.5185006  81.1785017 105.5289987 108.4545006  80.1515017
 105.3339987 109.5395006  81.5155017 104.1139987 108.3265006  81.1785017
 106.0679987 107.3255006  82.2565017 107.1409987 107.5115006  82.2535017
 105.9339987 106.3065006  81.9025017 105.5579987 107.4545006  83.6305017
 104.5689987 107.9115006  83.6545017 106.2009987 108.0985006  84.2275017
 105.4959987 106.0975006  84.2885017 106.4849987 105.6735006  84.4435017
 104.9419987 105.3655006  83.7035017 104.8359987 106.2695006  85.6185017
 103.7709987 106.4755006  85.5465017 105.2669987 107.0875006  86.1935017
 105.0339987 104.9765006  86.3675017 106.0329987 104.5905006  86.1755017
 104.3409987 104.2255006  85.9945017 104.8379987 105.1385006  87.8675017
 103.7819987 104.9765006  88.0765017 105.0399987 106.1805006  88.1115017
 105.6659987 104.2475006  88.7635017 105.4259987 103.2055006  88.5565017
 105.3899987 104.4225006  89.8015017 107.1169987 104.4535006  88.6055017
 107.4449987 105.4105006  89.0055017 107.4259987 104.4395006  87.5615017
 107.8169987 103.3285006  89.3515017 108.6929987 103.0675006  88.7625017
 107.1539987 102.4645006  89.3115017 108.2059987 103.5755006  90.7525017
 108.7279987 104.5295006  90.7545017 108.9509987 102.8225006  91.0055017
 107.1969987 103.6085006  91.7785017 106.6569987 102.6665006  91.8325017
 106.4529987 104.3735006  91.5645017 107.8269987 103.9125006  93.0875017
 108.7509987 103.3465006  93.1975017 107.1899987 103.6195006  93.9175017
 108.1609987 105.3795006  93.2165017 107.2829987 105.9215006  92.8825017
 108.9409987 105.5605006  92.4815017 108.6329987 105.9615006  94.6025017
 109.4899987 105.4125006  94.9715017 107.8349987 105.8925006  95.3325017
 109.7229987 107.1115006  94.9085017 110.9059987 107.3855006  94.6225017
 109.0609987 107.7185006  95.7165017 109.5859987 108.9975006  95.7635017
 109.4819987 109.4795006  94.8035017 110.6209987 109.0415006  96.0705017
 108.7119987 109.6465006  96.7585017 109.0579987 110.6665006  96.7285017
 108.6999987 109.1465006  98.1945017 109.1309987 109.9275006  98.8065017
 109.3639987 108.2905006  98.2055017 107.4229987 108.7855006  98.6815017
 107.2179987 107.2455006  98.9965017 105.8289987 107.2675006  99.6745017
 105.2019987 108.4335006 100.1535017 105.2979987 109.2995006  99.5105017
 105.5889987 108.7275006 101.1255017 103.7299987 108.0875006 100.3945017
 103.1659987 109.0035006 100.5195017 103.6779987 107.5195006 101.3125017
 102.9779987 107.2805006  99.3645017 103.1439987 107.9995006  98.0565017
 102.8769987 109.0375006  98.1965017 102.4759987 107.5455006  97.3395017
 104.1649987 107.8875006  97.7225017 103.4359987 105.8575006  99.2785017
 103.4569987 105.4435006 100.2745017 104.4079987 105.8285006  98.8195017
 102.7199987 105.3235006  98.6705017 101.5959987 107.3645006  99.8785017
 101.5639987 106.9625006 100.8805017 100.9439987 106.7905006  99.2375017
 101.2769987 108.3965006  99.8885017 107.1629987 106.3755006  97.8185017
 108.1849987 106.7675006  99.9815017 107.3449987 109.5545006  96.3265017
 106.9039987 110.0275006  95.2685017 107.3909987 110.5985006  94.3925017
 105.5749987 109.8755006  94.8475017 104.9129987 109.7085006  95.6905017
 105.1869987 110.7515006  94.3335017 105.6249987 108.6855006  93.9275017
 106.5649987 108.1915006  94.1455017 104.8449987 108.0115006  94.2675017
 105.5079987 108.8945006  92.4145017 105.2679987 107.9635006  91.9075017
 104.6909987 109.5775006  92.1965017 106.7929987 109.4795006  91.8485017
 107.1109987 110.3095006  92.4765017 107.5959987 108.7475006  91.8825017
 106.6569987 109.9615006  90.4905017 106.2619987 109.0655006  90.0145017
 105.8099987 110.6315006  90.6245017 107.6059987 110.5905006  89.6105017
 107.1469987 111.3325006  88.9585017 108.4159987 111.0965006  90.1285017
 108.1549987 109.5445006  88.8185017 108.0689987 110.0805006  87.8805017
 109.1809987 109.6815006  89.1575017 107.9219987 108.1755006  88.6405017
 107.8289987 107.3035006  89.2705017 107.7799987 108.0025006  87.3815017
 107.6119987 107.0235006  86.9565017 107.8229987 109.1125006  86.3665017
 106.8619987 109.1985006  85.8625017 108.0269987 110.0865006  86.7975017
 108.7949987 108.8165006  85.4065017 109.8249987 109.1265006  85.5795017
 108.8449987 107.8015006  85.0175017 108.1399987 109.7535006  84.3235017
 107.0539987 109.6795006  84.3825017 108.3849987 110.7915006  84.5285017
 108.5339987 109.4405006  83.0915017 109.4459987 108.9295006  83.3915017
 107.7929987 108.6625006  82.9165017 108.7969987 110.2965006  81.6495017
 107.7719987 110.5105006  81.3525017 109.1939987 111.2295006  82.0395017
 109.6329987 109.8475006  80.2985017 110.6789987 109.6845006  80.5525017
 109.2569987 108.8915006  79.9395017 109.5699987 110.7625006  79.2585017
 110.4939987 111.3325006  79.3125017 109.6529987 110.1475006  78.3655017
 108.4439987 111.6765006  79.0945017 108.5419987 112.2475006  78.1765017
 108.3749987 112.3855006  79.9125017 107.5039987 111.1335006  79.0485017
   5.0069987   0.5345006  78.4185017   5.8089987   0.0865006  77.8405017
   5.1269987   1.6135006  78.3715017   4.0689987   0.2865006  77.9295017
   5.0229987  -0.0284994  80.0625017   5.9929987   0.2105006  80.4945017
   4.9559987  -1.1124994  80.0445017   4.0059987   0.5075006  80.8805017
   3.0889987   0.1235006  80.4345017   4.0329987   1.5695006  80.6455017
   3.9449987   0.3745006  82.1535017   4.6879987   0.9255006  82.7255017
   3.9539987  -0.6404994  82.5465017   2.8789987   0.8615006  82.3465017
   2.3179987   0.4415006  83.1775017   2.2109987   0.8425006  81.4875017
   3.2889987   2.5135006  82.7185017   2.3909987   3.1195006  82.8255017
   3.8629987   2.9605006  81.9095017   4.0609987   2.5795006  83.9465017
   5.0919987   2.2955006  83.7435017   3.6779987   1.8485006  84.6565017
   4.0379987   3.9245006  84.5685017   3.0239987   4.1505006  84.8965017
   4.2879987   4.6725006  83.8175017   4.9819987   4.0595006  85.7385017
   5.9839987   3.7465006  85.4535017   4.6769987   3.3985006  86.5485017
   5.0279987   5.4905006  86.2485017   4.1779987   5.6495006  86.9075017
   4.8919987   6.1685006  85.4065017   6.3109987   5.8405006  86.9655017
   6.2719987   6.8655006  87.3285017   7.1629987   5.7915006  86.2895017
   6.5529987   4.9375006  88.1295017   6.5759987   3.8975006  87.8135017
   5.7379987   5.0195006  88.8465017   7.8209987   5.2915006  88.8105017
   7.8239987   6.1975006  89.4145017   8.7459987   5.3035006  88.2405017
   7.8339987   4.1595006  89.7055017   8.1159987   3.2345006  89.2145017
   6.8589987   3.9925006  90.1545017   8.6919987   4.4195006  90.6585017
   8.4489987   5.3575006  91.1415017   9.6949987   4.4865006  90.2555017
   8.1429987   2.8905006  91.7465017   8.6029987   1.7395006  92.0465017
   7.6769987   3.5755006  92.7115017   7.6659987   2.8975006  93.9405017
   8.3539987   3.4475006  94.5645017   7.9919987   1.8695006  93.8765017
   6.3229987   2.9835006  94.4775017   5.9969987   4.0105006  94.4715017
   6.1719987   2.4005006  95.8775017   6.4529987   3.1755006  96.5785017
   6.8979987   1.5995006  95.9355017   4.9029987   1.9235006  96.1655017
   4.7829987   1.1445006  97.5345017   5.5629987   1.9785006  98.6275017
   5.2559987   1.4985006  99.9495017   6.0849987   1.7255006 100.6065017
   5.1969987   0.4155006  99.8915017   3.9009987   1.9485006 100.5805017
   3.7989987   1.3505006 101.4775017   3.0649987   1.7415006  99.9275017
   3.7369987   3.3785006 101.0215017   4.0919987   4.3475006  99.9185017
   5.0659987   4.0855006  99.5295017   4.1249987   5.3395006 100.3445017
   3.3289987   4.3055006  99.1555017   2.3159987   3.6225006 101.4065017
   2.0069987   2.8445006 102.0885017   1.7089987   3.6315006 100.5195017
   2.2749987   4.5835006 101.8975017   4.5699987   3.6125006 102.2355017
   4.2649987   2.9285006 103.0135017   4.4299987   4.6285006 102.5715017
   5.6109987   3.4525006 101.9945017   3.4799987   1.4635006  98.0325017
   5.2249987  -0.2504994  97.4205017   5.5609987   2.3235006  93.4775017
   5.2249987   3.0805006  92.4775017   5.4309987   4.2735006  92.2935017
   4.5959987   2.1685006  91.5635017   5.0349987   2.1575006  90.5715017
   4.5469987   1.1295006  91.8795017   3.3079987   2.7645006  91.5675017
   2.8139987   2.7375006  92.5325017   3.2849987   3.8015006  91.2475017
   2.5969987   1.9785006  90.6715017   2.8419987   0.9225006  90.7505017
   1.5249987   2.0545006  90.8375017   2.9159987   2.4955006  89.2345017
   2.1059987   3.1085006  88.8435017   3.8119987   3.1095006  89.1885017
   3.1039987   1.2355006  88.2695017   2.4969987   0.3905006  88.5885017
   2.7829987   1.4735006  87.2575017   4.5009987   0.8385006  88.2325017
   5.1179987   1.6365006  87.8215017   4.8889987   0.6305006  89.2255017
   4.6539987  -0.3704994  87.4045017   3.8839987  -1.0754994  87.6945017
   4.4419987  -0.0914994  86.3735017   5.9319987  -0.9634994  87.4575017
   6.4299987  -1.4754994  88.2675017   6.5439987  -0.8754994  86.3835017
   7.4849987  -1.3864994  86.5245017   6.3619987  -0.2964994  85.0145017
   6.4119987  -1.1514994  84.3425017   5.3469987   0.0795006  84.9515017
   7.3249987   0.7625006  84.5075017   7.1869987   1.7655006  84.9085017
   8.3799987   0.5285006  84.6335017   7.0019987   0.7575006  83.0995017
   7.2209987  -0.1494994  82.5355017   6.0039987   1.0675006  82.8005017
   7.8819987   1.7075006  82.7645017   8.0489987   2.3715006  83.6095017
   8.8479987   1.2645006  82.5305017   7.3819987   2.5245006  81.5375017
   8.3799987   2.6585006  81.1235017   6.9689987   1.6505006  81.0405017
   6.7279987   3.5075006  81.2605017   5.7459987   3.1165006  81.5225017
   7.0359987   4.1335006  82.0955017   6.5699987   4.4805006  79.8925017
   7.5949987   4.7435006  79.6425017   6.2559987   3.7625006  79.1385017
   5.6499987   5.7725006  79.7815017   5.6599987   6.1665006  78.7695017
   5.9829987   6.5655006  80.4425017   4.6199987   5.5415006  80.0365017
  42.8039987  91.6225006  65.1805017  42.5419987  90.6045006  65.4605017
  43.7529987  91.8375006  65.6575017  42.9919987  91.6705006  63.6505017
  43.5079987  92.5445006  63.2655017  43.5969987  90.8085006  63.3855017
  41.6329987  91.5665006  62.9595017  41.2089987  90.5815006  63.1585017
  40.7129987  92.6185006  63.5305017  41.0919987  93.6175006  63.3265017
  39.7609987  92.5355006  63.0125017  40.5029987  92.4175006  65.0005017
  39.3209987  92.0725006  65.5105017  38.4899987  91.8625006  64.8535017
  39.0409987  91.9505006  66.9835017  38.0829987  92.4155006  67.2005017
  38.9509987  90.9185006  67.3225017  40.1759987  92.6695006  67.7725017
  40.1659987  93.7385006  67.5725017  41.4739987  92.0715006  67.2605017
  41.2149987  91.0155006  67.1885017  41.7389987  92.5405006  65.8175017
  42.6539987  92.2305006  68.2005017  43.4149987  91.5225006  67.8865017
  43.0769987  93.2135006  68.0365017  42.4239987  92.0455006  69.6895017
  42.2559987  90.9915006  69.9015017  43.3149987  92.3305006  70.2375017
  41.1899987  92.8435006  70.1405017  40.0499987  92.4025006  69.2495017
  40.0669987  91.3145006  69.3235017  38.7419987  92.8535006  69.8995017
  38.4289987  93.8215006  69.5165017  37.9249987  92.1655006  69.7125017
  39.0979987  92.9345006  71.3955017  38.9599987  93.9515006  71.7495017
  38.4639987  92.3075006  72.0105017  40.5969987  92.5055006  71.5225017
  40.5849987  91.4165006  71.5685017  41.3859987  94.3615006  70.0495017
  40.5279987  94.9045006  70.4285017  41.5519987  94.6985006  69.0345017
  42.2459987  94.6735006  70.6335017  42.1449987  94.0175006  65.7555017
  41.4559987  94.6395006  66.3165017  42.1479987  94.3875006  64.7385017
  43.1419987  94.1735006  66.1515017  41.3119987  92.9965006  72.8015017
  41.4289987  94.0785006  72.7565017  42.7359987  92.3625006  72.9125017
  43.3969987  92.7045006  72.1275017  42.6849987  91.2785006  72.8565017
  43.2099987  92.6205006  73.8515017  40.4869987  92.6585006  74.0675017
  39.5989987  93.2805006  74.1045017  40.1309987  91.6305006  73.9995017
  41.2379987  92.8485006  75.3915017  42.0899987  92.1825006  75.4535017
  41.6329987  93.8625006  75.4485017  40.3159987  92.6055006  76.5745017
  39.9059987  91.5975006  76.5485017  41.0579987  92.6505006  75.7775017
  41.0119987  92.8005006  77.9075017  40.2919987  92.6455006  78.7095017
  41.5389987  94.2245006  78.0205017  40.7429987  94.9595006  77.9835017
  42.2349987  94.4455006  77.2145017  42.0689987  94.3665006  78.9585017
  40.0379987  92.5165006  78.9985017  39.1609987  93.1505006  78.9205017
  40.4819987  92.6815006  79.9755017  39.7019987  91.4825006  78.9605017
  41.7399987  91.8315006  61.5775017  40.8959987  91.7125006  61.1655017
   9.5299987  81.8425006  65.2185017   9.9399987  82.8345006  65.3955017
   8.5689987  81.8135006  65.7185017   9.3089987  81.6755006  63.7105017
   8.8709987  80.7185006  63.4455017   8.6259987  82.4405006  63.3535017
  10.6329987  81.8125006  62.9935017  11.0609987  82.7755006  63.2705017
  11.5729987  80.6995006  63.4635017  11.2399987  79.7215006  63.1225017
  12.5259987  80.8895006  62.9785017  11.7579987  80.7115006  64.9605017
  12.9679987  80.7655006  65.4925017  13.8829987  80.8295006  64.9225017
  13.1219987  80.7355006  66.9445017  13.9399987  80.0695006  67.2065017
  13.5169987  81.7455006  67.0555017  11.9629987  80.5305006  67.8915017
  11.8709987  79.4545006  67.7665017  10.7539987  81.2075006  67.3095017
  10.9549987  82.2785006  67.2885017  10.4789987  80.7935006  65.8255017
   9.5489987  81.0905006  68.2765017   8.7319987  81.7125006  67.9245017
   9.1689987  80.0765006  68.2845017   9.8789987  81.5095006  69.7415017
  10.1509987  82.5635006  69.7275017   8.9769987  81.4325006  70.3385017
  11.0179987  80.7225006  70.3355017  12.1819987  80.8515006  69.3735017
  12.4509987  81.9085006  69.3805017  13.2949987  80.1315006  70.0765017
  13.2569987  79.0675006  69.8595017  14.2709987  80.4805006  69.7555017
  13.0519987  80.3985006  71.5365017  13.0909987  79.4355006  72.0355017
  13.8079987  81.0165006  72.0045017  11.6679987  81.0255006  71.6855017
  11.8369987  82.1015006  71.6535017  10.5649987  79.3565006  70.4795017
  11.3089987  78.7305006  70.9595017  10.3269987  78.8955006  69.5295017
   9.6679987  79.3115006  71.0885017   9.7829987  79.4355006  65.6705017
  10.3259987  78.6525006  66.1885017   9.7149987  79.1395006  64.6315017
   8.7719987  79.4595006  66.0595017  10.9869987  80.7265006  73.0275017
  10.7349987  79.6695006  73.1035017   9.6729987  81.5335006  73.0795017
   8.9569987  81.1945006  72.3425017   9.8569987  82.5905006  72.9035017
   9.1909987  81.4415006  74.0455017  11.9209987  81.1115006  74.2335017
  12.8939987  80.6405006  74.1385017  12.1069987  82.1855006  74.2435017
  11.3279987  80.6815006  75.5975017  10.2729987  80.9295006  75.5795017
  11.3889987  79.5945006  75.6235017  11.9729987  81.2565006  76.8795017
  11.2279987  81.6135006  77.5885017  11.4289987  80.6705006  76.1395017
  12.9099987  80.3695006  77.6005017  13.5499987  79.8765006  76.8695017
  12.1849987  79.3175006  78.3545017  11.6119987  78.6685006  77.7025017
  11.4979987  79.7585006  79.0735017  12.8799987  78.6915006  78.9075017
  13.8539987  79.8475006  76.6485017  13.3529987  79.3205006  75.8425017
  14.5459987  79.1555006  77.1195017  14.4409987  80.6485006  76.2045017
  10.4609987  81.7255006  61.5965017  11.2919987  81.8625006  61.1655017
  29.8109987  61.6255006  65.1955017  30.3879987  60.7165006  65.3505017
  30.3419987  62.4185006  65.7095017  29.7939987  61.9295006  63.7135017
  29.3339987  62.8685006  63.4205017  30.8259987  61.9695006  63.3765017
  29.0709987  60.7905006  62.9955017  29.5359987  59.8385006  63.2535017
  27.5959987  60.7565006  63.4285017  26.9249987  61.5515006  63.1095017
  27.2709987  59.8535006  62.9195017  27.5149987  60.5515006  64.9185017
  26.9119987  59.4565006  65.3835017  26.2219987  58.8345006  64.8325017
  27.1969987  59.0295006  66.7965017  26.3119987  58.4965006  67.1335017
  28.0119987  58.3075006  66.8475017  27.4909987  60.2225006  67.7405017
  26.6739987  60.9375006  67.6795017  28.6899987  60.8045006  67.1565017
  29.3339987  59.9465006  66.9615017  28.4189987  61.4415006  65.7955017
  29.4999987  61.6325006  68.1495017  30.4519987  61.8965006  67.6985017
  28.9909987  62.5695006  68.3405017  29.7789987  60.9585006  69.4715017
  30.2529987  59.9915006  69.3145017  30.4369987  61.5205006  70.1245017
  28.4229987  60.7395006  70.0895017  27.7879987  59.7545006  69.1545017
  28.5189987  58.9605006  68.9955017  26.7469987  59.1855006  70.0305017
  25.8759987  59.8285006  69.9385017  26.4639987  58.2185006  69.6295017
  27.1999987  59.0925006  71.4425017  26.4379987  59.4945006  72.1025017
  27.4449987  58.1085006  71.8215017  28.4439987  60.0015006  71.4315017
  29.2839987  59.3155006  71.3295017  27.5159987  62.0085006  70.2195017
  26.5829987  61.7905006  70.7265017  27.2629987  62.4375006  69.2595017
  28.0179987  62.7815006  70.7925017  27.7179987  62.8155006  65.9805017
  26.7849987  62.7115006  66.5225017  27.4819987  63.2735006  65.0285017
  28.3469987  63.5135006  66.5205017  28.6629987  60.7735006  72.7365017
  27.8919987  61.5375006  72.8285017  30.0329987  61.4785006  72.7495017
  30.0949987  62.2635006  72.0075017  30.8359987  60.7725006  72.5555017
  30.2289987  61.9425006  73.7085017  28.5859987  59.7735006  73.9105017
  27.6919987  59.1695006  73.7975017  29.4259987  59.0845006  73.8255017
  28.5619987  60.3735006  75.3245017  29.3499987  61.1105006  75.4245017
  27.6219987  60.9075006  75.4595017  28.7059987  59.3075006  76.4375017
  29.4729987  58.5615006  76.2395017  28.7929987  60.0485006  75.6435017
  29.0249987  59.9795006  77.7865017  29.2749987  59.2235006  78.5295017
  27.7649987  60.7075006  78.2615017  26.9369987  60.0275006  78.4265017
  27.4469987  61.4485006  77.5325017  27.9499987  61.2275006  79.1975017
  29.5319987  59.0005006  78.8675017  28.8159987  58.2045006  79.0475017
  29.7059987  59.5105006  79.8105017  30.4699987  58.5395006  78.5655017
  29.0959987  61.0255006  61.6095017  28.6929987  60.2985006  61.1575017
  66.9219987  34.5355006  65.3285017  67.8659987  34.9705006  65.6505017
  66.1439987  35.0355006  65.8935017  66.7299987  34.8515006  63.8275017
  65.7599987  34.4665006  63.5275017  66.7259987  35.9145006  63.6045017
  67.7959987  34.1685006  62.9955017  68.6789987  34.6615006  63.4045017
  67.8899987  32.7055006  63.2705017  67.0509987  32.3045006  62.7065017
  68.7889987  32.2725006  62.8405017  67.7929987  32.3265006  64.7085017
  68.4369987  31.2765006  65.0385017  68.9369987  30.6285006  64.3345017
  68.5319987  30.8715006  66.4925017  68.5219987  29.7865006  66.5585017
  69.5649987  31.1675006  66.6765017  67.6569987  31.4475006  67.5225017
  66.7669987  30.8565006  67.3205017  67.3899987  32.8815006  67.1855017
  68.3419987  33.4065006  67.2655017  66.9399987  33.0415006  65.7125017
  66.4559987  33.4125006  68.2755017  66.3539987  34.4825006  68.1215017
  65.4729987  32.9915006  68.1035017  66.8389987  33.1765006  69.7445017
  67.7649987  33.7345006  69.8715017  66.1229987  33.6095006  70.4335017
  67.1009987  31.7325006  70.0405017  68.0289987  31.2985006  68.9975017
  68.7779987  32.0865006  68.9115017  68.6929987  30.1755006  69.6425017
  68.2479987  29.2465006  69.2955017  69.7419987  30.1395006  69.3685017
  68.4999987  30.3525006  71.1435017  67.9439987  29.5225006  71.5685017
  69.4729987  30.3445006  71.6195017  67.8349987  31.5695006  71.3825017
  68.5769987  32.3475006  71.5615017  65.9479987  30.7505006  69.9605017
  66.2459987  29.7505006  70.2535017  65.5319987  30.6795006  68.9645017
  65.1419987  31.0505006  70.6215017  65.5789987  32.3235006  65.5525017
  65.6149987  31.3175006  65.9555017  65.2929987  32.2385006  64.5125017
  64.7839987  32.8615006  66.0555017  67.1649987  31.2945006  72.7095017
  66.3789987  30.5445006  72.6375017  66.5199987  32.6105006  73.0435017
  65.7269987  32.8635006  72.3515017  67.2479987  33.4175006  73.0255017
  66.0759987  32.5925006  74.0315017  68.1579987  30.8685006  73.8485017
  68.6819987  29.9665006  73.5495017  68.9219987  31.6395006  73.9515017
  67.5269987  30.6005006  75.2075017  66.8269987  31.3885006  75.4575017
  66.9479987  29.6795006  75.1545017  68.5719987  30.4735006  76.3165017
  69.0459987  31.4395006  76.4775017  67.8329987  30.6275006  75.5305017
  67.8529987  30.0745006  77.6015017  68.5549987  30.1875006  78.4265017
  67.3949987  28.6655006  77.5825017  68.2199987  27.9675006  77.4955017
  66.7199987  28.4885006  76.7485017  66.8589987  28.4225006  78.4955017
  68.7369987  30.1345006  78.7725017  69.6089987  29.5015006  78.6425017
  68.2219987  29.8105006  79.6715017  69.0879987  31.1495006  78.9425017
  67.7039987  34.3735006  61.6025017  68.4339987  33.9535006  61.1715017
  35.3399987  62.1655006  78.8865017  35.1169987  61.5985006  79.7855017
  36.0209987  62.9665006  79.1605017  35.8669987  61.5065006  78.2015017
  34.1149987  62.6955006  78.2725017  33.6139987  63.3085006  79.0205017
  33.4599987  61.8485006  78.0835017  34.2989987  63.5115006  76.9965017
  35.1749987  64.1575006  77.0515017  33.4489987  64.1705006  76.8285017
  34.4349987  62.5815006  75.7945017  33.6329987  61.8465006  75.7965017
  35.3629987  62.0145006  75.8425017  34.3829987  63.3545006  74.4835017
  35.1739987  64.0995006  74.4885017  33.4439987  63.9055006  74.4605017
  34.5049987  62.5075006  73.2075017  34.3589987  63.1525006  72.3425017
  33.6929987  61.7835006  73.1875017  35.8529987  61.7655006  73.0695017
  35.7719987  61.0475006  72.2555017  36.0219987  61.1825006  73.9735017
  37.0729987  62.6855006  72.8195017  37.9549987  62.0765006  73.0115017
  37.0489987  63.4405006  73.6025017  37.2229987  63.3865006  71.4335017
  37.8829987  64.2385006  71.5845017  36.2459987  63.7995006  71.1855017
  37.7389987  62.5435006  70.2415017  37.0799987  61.6825006  70.1585017
  38.7159987  62.1535006  70.5255017  37.8539987  63.2595006  68.8675017
  38.3569987  62.5915006  68.1715017  38.4989987  64.1305006  68.9705017
  36.5099987  63.6915006  68.2415017  36.7309987  63.9655006  67.2125017
  36.2299987  64.6135006  68.7475017  35.3109987  62.7195006  68.2865017
  34.4249987  63.2095006  67.8875017  35.0689987  62.4365006  69.3075017
  35.5629987  61.4425006  67.4565017  36.3679987  60.8905006  67.9295017
  35.9309987  61.7655006  66.4865017  34.3679987  60.5045006  67.2385017
  33.5389987  61.0435006  66.7975017  34.0439987  60.0805006  68.1815017
  33.3339987  61.3975006  66.6605017  32.3799987  61.6905006  67.3105017
  33.6599987  61.8745006  65.4685017  32.8369987  62.9105006  64.9225017
  32.0379987  62.9925006  65.6445017  32.4319987  62.5535006  63.9865017
  33.5139987  64.2355006  64.7435017  32.7469987  64.8845006  64.3545017
  34.7059987  64.1735006  63.7495017  35.0139987  65.1805006  63.5035017
  34.3489987  63.6905006  62.8485017  35.7909987  63.4435006  64.3065017
  37.1419987  63.4205006  63.4675017  36.4479987  63.0575006  62.0885017
  36.3269987  61.7205006  61.7225017  36.0639987  61.0485006  62.5295017
  37.2469987  61.3375006  61.2905017  35.2639987  61.6525006  60.5605017
  34.7419987  62.4825006  61.0205017  34.5669987  60.8395006  60.4195017
  35.6519987  62.1365006  59.1295017  36.3869987  63.3185006  59.1495017
  35.8589987  64.0425006  59.7545017  36.4649987  63.6795006  58.1345017
  37.3729987  63.1115006  59.5375017  36.5739987  61.6895006  58.1745017
  36.4399987  60.6275006  58.0395017  37.5689987  61.9215006  58.5115017
  36.3609987  62.2095006  57.2515017  34.6459987  61.9005006  58.1545017
  34.4299987  60.8435006  58.1155017  35.0009987  62.2335006  57.1905017
  33.7519987  62.4475006  58.4185017  37.7529987  64.7565006  63.3845017
  37.9629987  62.2575006  63.8655017  34.0179987  64.7765006  66.0135017
  33.1309987  65.4125006  66.7745017  31.9259987  65.3765006  66.6215017
  33.8079987  66.4155006  67.6955017  34.8499987  66.3065006  67.4135017
  33.4929987  67.3785006  67.3015017  33.6219987  66.3525006  69.1585017
  32.5679987  66.2355006  69.3835017  34.1139987  65.4725006  69.5605017
  34.1479987  67.6075006  69.8595017  35.1659987  67.8905006  69.6025017
  33.5369987  68.4915006  69.6935017  34.0679987  67.2365006  71.3115017
  34.0359987  68.1375006  71.9205017  33.1559987  66.6865006  71.5335017
  35.2789987  66.3925006  71.7575017  34.8649987  65.5565006  72.3185017
  35.6829987  65.9705006  70.8395017  36.3809987  66.9955006  72.5225017
  37.2059987  66.3245006  72.7555017  36.8249987  67.8935006  72.1025017
  35.7269987  67.3295006  73.6815017  36.5599987  67.2535006  74.3705017
  35.5789987  68.3925006  73.4955017  34.1469987  66.6225006  74.4415017
  33.8289987  65.6465006  74.1055017  33.2059987  67.3725006  75.6035017
  32.2929987  66.9035006  75.9415017  33.6359987  69.2825006  76.5685017
  34.1739987  69.7795006  75.7625017  32.6539987  69.7415006  76.6055017
  34.4849987  69.5985006  78.0725017  35.5209987  69.2615006  78.0765017
  34.5079987  70.6535006  78.3405017  33.5419987  68.6815006  79.3335017
  32.7459987  69.3815006  79.5865017  33.0759987  67.8875006  78.7565017
  34.1219987  68.1065006  80.6055017  35.1109987  67.6765006  80.4625017
  34.2209987  68.8395006  81.4045017  33.1979987  67.0855006  81.0115017
  32.7969987  67.3105006  81.9975017  32.3409987  67.0445006  80.3445017
  33.8889987  65.6835006  81.0815017  33.7959987  65.1615006  80.1305017
  34.9569987  65.7935006  81.2625017  33.1529987  64.5795006  82.4545017
  33.5879987  63.6085006  82.2305017  33.6909987  64.9515006  83.3235017
  31.5119987  64.3835006  82.8695017  31.4089987  63.7565006  83.7505017
  30.9449987  63.9175006  82.0705017  31.0479987  65.3405006  83.0885017
  85.8479987  57.1965006  79.0465017  85.5449987  56.5715006  79.8805017
  86.9019987  57.0115006  78.8585017  85.2949987  56.8685006  78.1705017
  85.5949987  58.6445006  79.3325017  86.1369987  58.8175006  80.2605017
  84.5389987  58.6625006  79.5875017  85.9229987  59.7915006  78.3255017
  85.6189987  60.6475006  78.9285017  85.1189987  59.6255006  77.6115017
  87.2049987  60.1485006  77.5445017  87.0869987  59.5035006  76.6765017
  87.9599987  59.6755006  78.1705017  87.7119987  61.4975006  77.0795017
  87.7289987  62.1215006  77.9695017  86.9139987  61.8865006  76.4495017
  89.0149987  61.6375006  76.3665017  89.8109987  61.7955006  77.0925017
  88.9929987  62.5265006  75.7405017  89.3479987  60.4375006  75.5145017
  88.6299987  60.3435006  74.7025017  89.2619987  59.5245006  76.1025017
  90.7489987  60.5315006  74.9365017  91.4629987  60.7565006  75.7275017
  90.8059987  61.3585006  74.2315017  91.1669987  59.2385006  74.2325017
  90.3029987  58.5945006  74.0835017  91.8599987  58.6765006  74.8575017
  91.8249987  59.5245006  72.8805017  92.5069987  60.3605006  73.0175017
  91.0499987  59.8725006  72.1985017  92.5419987  58.3795006  72.2615017
  93.0989987  57.8145006  73.0055017  93.2709987  58.7055006  71.5215017
  91.5509987  57.4545006  71.6085017  90.5659987  57.8835006  71.4425017
  91.3889987  56.5245006  72.1495017  92.2099987  57.1355006  70.2855017
  93.1059987  56.5495006  70.4825017  92.5449987  58.0535006  69.8105017
  91.2549987  56.2735006  69.2005017  90.5839987  57.0725006  68.9025017
  90.7179987  55.6645006  69.9225017  91.6019987  55.3525006  67.9005017
  92.2979987  54.5675006  68.1675017  92.0429987  55.9565006  67.1165017
  90.4109987  54.8515006  67.5165017  90.0929987  53.6925006  67.6615017
  89.9339987  55.8355006  66.9385017  88.8049987  55.6625006  66.1735017
  87.9679987  55.5485006  66.8455017  88.8599987  54.7975006  65.5285017
  88.6569987  56.9565006  65.3505017  87.6299987  56.9815006  65.0265017
  89.5849987  56.9705006  64.1375017  89.3939987  56.1355006  63.4775017
  90.6169987  56.9265006  64.4635017  89.3309987  58.1855006  63.4795017
  89.5099987  58.3875006  61.9385017  88.2199987  57.7495006  61.2715017
  87.1839987  57.0395006  61.9195017  86.9929987  57.3945006  62.9235017
  87.4469987  55.9895006  62.0085017  85.8849987  57.0635006  61.0615017
  85.1109987  56.6485006  61.6955017  86.0099987  56.4225006  60.2005017
  85.3239987  58.3765006  60.5275017  86.2189987  58.9945006  59.4725017
  87.2269987  59.0445006  59.8615017  85.8569987  59.9915006  59.2705017
  86.1629987  58.3995006  58.5735017  84.0419987  58.0355006  59.8355017
  83.4449987  57.4285006  60.4995017  84.2639987  57.5155006  58.9205017
  83.5319987  58.9645006  59.6235017  85.1479987  59.3525006  61.6475017
  84.4849987  58.9295006  62.3875017  84.7219987  60.2655006  61.2585017
  86.1079987  59.5645006  62.0955017  89.5019987  59.8535006  61.7265017
  90.6709987  57.6385006  61.4185017  88.9309987  58.1375006  66.1575017
  87.9409987  58.3905006  66.9695017  86.9519987  57.6825006  67.1165017
  88.0739987  59.7775006  67.5895017  89.1079987  60.0885006  67.4765017
  87.4859987  60.4885006  67.0155017  87.6339987  59.7595006  69.0705017
  87.5369987  60.7725006  69.4445017  86.6539987  59.3045006  69.1785017
  88.6569987  59.0035006  69.9285017  88.8059987  58.0075006  69.5185017
  89.6139987  59.5115006  69.8465017  88.2769987  58.9095006  71.4205017
  89.1269987  58.4805006  71.9475017  88.1489987  59.9135006  71.8175017
  87.0329987  58.0815006  71.7575017  86.1619987  58.4845006  71.2445017
  87.1619987  57.0675006  71.3835017  86.7509987  58.0155006  73.2615017
  87.6709987  57.8075006  73.8065017  86.3819987  58.9665006  73.6355017
  85.7109987  56.9225006  73.5805017  85.4439987  57.0575006  74.6225017
  84.8249987  57.1785006  73.0005017  86.0779987  55.4805006  73.2925017
  85.7059987  55.1325006  72.3405017  86.7859987  54.6115006  74.0255017
  86.9509987  53.6095006  73.6555017  87.4089987  54.8795006  75.3575017
  87.1919987  55.8995006  75.6715017  87.0359987  54.2335006  76.1445017
  88.9279987  54.7245006  75.2505017  89.2089987  53.7245006  74.9235017
  89.3399987  55.4115006  74.5135017  89.5469987  55.0065006  76.5865017
  89.0179987  54.5105006  77.4005017  90.5799987  54.6775006  76.6515017
  89.4819987  56.4935006  76.7875017  90.1519987  57.0115006  76.1055017
  88.4849987  56.8825006  76.5885017  89.8399987  56.7865006  78.1385017
  90.9109987  56.5955006  78.1135017  89.7319987  57.8675006  78.1505017
  89.2389987  56.1405006  79.5425017  88.1689987  56.2755006  79.3925017
  89.4349987  55.0815006  79.3825017  89.6079987  56.5175006  81.1525017
  88.8339987  56.0465006  81.7535017  90.5189987  55.9575006  81.3515017
  89.8169987  58.0345006  81.6425017  90.1309987  58.0645006  82.6815017
  88.9049987  58.6155006  81.5625017  90.5799987  58.5345006  81.0515017
  71.5859987  46.3145006  77.6245017  70.9559987  45.7995006  78.3425017
  71.3179987  47.3675006  77.6435017  72.6139987  46.2305006  77.9665017
  71.4329987  45.7615006  76.3015017  70.3899987  45.8365006  76.0005017
  71.6659987  44.7005006  76.3335017  72.3109987  46.4625006  75.2575017
  73.3659987  46.4805006  75.5285017  72.0209987  47.5005006  75.1055017
  72.1449987  45.7215006  73.9485017  71.1799987  45.9595006  73.5055017
  72.1449987  44.6445006  74.1095017  73.2279987  46.0795006  72.9645017
  73.3539987  45.2965006  72.2215017  74.1849987  46.1725006  73.4765017
  72.9089987  47.3895006  72.2525017  72.0369987  47.8805006  72.6815017
  72.6829987  47.2335006  71.1995017  74.1119987  48.3075006  72.3755017
  74.4639987  48.3275006  73.4055017  73.8289987  49.3305006  72.1305017
  75.2599987  47.8655006  71.4565017  75.3419987  46.7795006  71.4445017
  76.2129987  48.2385006  71.8285017  75.0429987  48.3735006  70.0215017
  74.7499987  49.4155006  70.1275017  74.1609987  47.8455006  69.6605017
  76.1369987  48.2665006  69.0005017  77.0659987  48.6825006  69.3845017
  75.8939987  48.8385006  68.1055017  76.3339987  46.8345006  68.6285017
  76.7009987  46.4245006  69.5665017  77.1979987  46.9005006  67.9695017
  75.3519987  45.8825006  68.0545017  74.7919987  46.4385006  67.3065017
  74.6499987  45.6585006  68.8555017  75.8619987  44.5475006  67.4555017
  74.9899987  44.0115006  67.0855017  76.2709987  43.9445006  68.2615017
  76.8899987  44.6235006  66.3155017  77.8829987  44.7475006  66.7355017
  76.6819987  45.5165006  65.7315017  76.8879987  43.4045006  65.3675017
  75.8979987  43.2415006  64.9615017  77.1969987  42.5125006  65.8995017
  76.3449987  43.8715006  63.9985017  75.4339987  44.6785006  63.8285017
  77.0449987  43.3945006  63.0575017  76.4379987  43.5945006  61.7815017
  77.2649987  43.3815006  61.1215017  76.1959987  44.6455006  61.7175017
  75.2289987  42.7295006  61.4125017  75.7789987  41.9125006  60.9755017
  74.4289987  43.1875006  60.5875017  74.1239987  42.3485006  59.9775017
  75.0289987  43.8565006  59.9825017  73.3339987  43.8435006  61.0815017
  73.3479987  45.3075006  61.2945017  72.1799987  45.7685006  60.2705017
  70.9909987  45.0125006  60.3545017  71.2069987  43.9605006  60.2195017
  70.3469987  45.3035006  59.5295017  70.1349987  45.2495006  61.6475017
  70.9339987  45.2375006  62.3775017  69.4069987  44.4985006  61.9175017
  69.4569987  46.5495006  61.8155017  68.3189987  46.7025006  60.9205017
  68.6389987  46.4755006  59.9125017  67.9879987  47.7285006  60.9745017
  67.5249987  46.0485006  61.2475017  68.7649987  46.6625006  63.0435017
  69.4329987  46.3745006  63.8405017  67.8929987  46.0335006  63.0145017
  68.4759987  47.6975006  63.1575017  70.4829987  47.5965006  61.8035017
  71.1909987  47.4095006  62.5975017  70.0119987  48.5565006  61.9565017
  70.9919987  47.5915006  60.8505017  72.8769987  45.6035006  62.6465017
  74.5089987  45.9375006  60.6565017  74.3329987  42.2995006  62.4605017
  73.5259987  41.2865006  62.6645017  73.4399987  40.1845006  62.1685017
  72.6809987  41.7615006  63.7485017  73.1059987  42.6505006  64.2025017
  71.6879987  42.0465006  63.4085017  72.6129987  40.6085006  64.7205017
  72.0069987  39.8125006  64.3015017  73.5999987  40.1845006  64.8745017
  72.0269987  41.0305006  66.0385017  70.9749987  41.2625006  65.8915017
  72.0579987  40.1695006  66.7025017  72.7299987  42.2005006  66.7245017
  73.4529987  41.8335006  67.4505017  73.2899987  42.8105006  66.0195017
  71.7189987  43.0925006  67.4585017  72.2559987  43.9405006  67.8795017
  71.0429987  43.5025006  66.7105017  70.8769987  42.4145006  68.5685017
  69.9719987  43.0065006  68.6925017  70.5589987  41.4405006  68.2085017
  71.5629987  42.2345006  69.9435017  72.3899987  41.5375006  69.8775017
  71.9849987  43.1805006  70.2815017  70.5319987  41.7695006  70.9645017
  69.6309987  42.3605006  70.9015017  70.5549987  40.7695006  71.8915017
  69.6779987  40.6345006  72.5075017  71.6509987  39.8075006  72.1785017
  71.1879987  38.8415006  72.3725017  72.2729987  39.6755006  71.2995017
  72.5509987  40.1715006  73.4005017  73.3909987  39.4795006  73.4445017
  72.9789987  41.1585006  73.2335017  71.8069987  40.1635006  74.7505017
  70.9269987  40.7975006  74.6475017  71.4369987  39.1575006  74.9285017
  72.6339987  40.6325006  75.9725017  72.1149987  40.2785006  76.8605017
  73.5859987  40.1045006  75.9455017  72.8949987  42.1415006  76.0845017
  73.5909987  42.4415006  75.3035017  71.9769987  42.6895006  75.8895017
  73.4899987  42.5725006  77.4415017  73.7759987  43.6205006  77.3795017
  72.7069987  42.5175006  78.1955017  74.6889987  41.7715006  77.9305017
  74.8099987  41.7985006  79.0105017  74.5839987  40.7205006  77.6705017
  75.9399987  42.3145006  77.2685017  76.8049987  41.7105006  77.5255017
  76.1519987  43.3335006  77.5755017  75.8429987  42.3095006  76.1865017
  59.1399987  73.3375006  78.9635017  58.2579987  73.9635006  79.0585017
  59.9449987  73.8125006  79.5165017  58.9249987  72.3885006  79.4465017
  59.5439987  73.1225006  77.4095017  59.6069987  74.1695006  77.1165017
  58.5809987  72.7645006  77.0555017  60.7529987  72.2895006  76.6905017
  61.1159987  71.6855006  77.5215017  61.4879987  73.0795006  76.5485017
  60.7109987  71.4255006  75.4135017  60.7869987  72.0575006  74.5315017
  59.7599987  70.9025006  75.3275017  61.8869987  70.3785006  75.3855017
  61.5789987  69.3955006  75.7335017  62.7139987  70.6835006  76.0245017
  62.3749987  70.2625006  73.9625017  62.2639987  71.2275006  73.4715017
  61.7319987  69.5705006  73.4225017  63.8179987  69.8015006  73.8435017
  63.9339987  68.7855006  74.2155017  64.4769987  70.4235006  74.4475017
  64.2719987  69.8595006  72.3735017  64.1339987  70.8755006  72.0055017
  63.6129987  69.2295006  71.7785017  65.7309987  69.4295006  72.1415017
  65.9059987  68.4395006  72.5565017  66.4129987  70.1015006  72.6605017
  66.0719987  69.4215006  70.6365017  65.2229987  69.0135006  70.0925017
  66.9009987  68.7345006  70.4685017  66.4419987  70.8105006  70.0745017
  67.3239987  71.1995006  70.5785017  65.6469987  71.5315006  70.2565017
  66.7339987  70.7485006  68.5695017  65.8159987  70.4255006  68.0845017
  67.4529987  69.9445006  68.4265017  67.2749987  72.0185006  67.8875017
  67.9239987  72.5145006  68.6075017  66.4429987  72.6945006  67.7125017
  68.0619987  71.8455006  66.5835017  68.8189987  71.0795006  66.7135017
  68.5859987  72.7735006  66.3725017  67.1859987  71.4905006  65.3695017
  66.4009987  72.2255006  65.2405017  66.7319987  70.5165006  65.5035017
  66.6909987  70.1125006  65.5885017  67.4819987  69.3235006  66.0315017
  65.3779987  69.9235006  65.3855017  64.6189987  68.8825006  66.1095017
  64.6779987  69.1995006  67.1395017  65.1429987  67.9445006  65.9975017
  63.1539987  68.7485006  65.6785017  62.8219987  67.9095006  66.2675017
  62.7749987  68.5345006  64.2055017  61.7339987  68.7935006  64.0645017
  62.9029987  67.4815006  63.9885017  63.5709987  69.2905006  63.3875017
  63.1879987  69.3585006  61.9015017  62.3169987  70.7185006  61.7975017
  62.8009987  71.8685006  62.5225017  63.4059987  71.5685006  63.3685017
  61.9509987  72.4095006  62.9275017  63.5519987  72.8945006  61.6375017
  64.3799987  72.4585006  61.0925017  63.9349987  73.6565006  62.3005017
  62.7229987  73.6195006  60.6115017  63.3939987  74.3975006  59.7275017
  64.0509987  75.0575006  60.2775017  62.6689987  74.9805006  59.1795017
  63.9389987  73.7625006  59.0455017  62.1999987  72.6385006  59.8375017
  61.7529987  71.8965006  60.4805017  62.9809987  72.2155006  59.2315017
  61.4439987  73.0895006  59.2105017  61.8529987  74.6005006  61.1675017
  61.1899987  74.1275006  61.8765017  61.2739987  75.0515006  60.3755017
  62.4379987  75.3605006  61.6645017  64.5539987  69.4675006  61.5515017
  62.4849987  68.1975006  61.3395017  62.4929987  69.9245006  66.0875017
  62.4069987  70.0675006  67.3785017  62.7769987  69.2695006  68.2265017
  61.7349987  71.4065006  67.6285017  62.0749987  72.0985006  66.8655017
  60.6609987  71.3125006  67.4875017  62.0659987  71.9045006  69.0455017
  61.5829987  71.2665006  69.7775017  63.1319987  71.8245006  69.2345017
  61.6049987  73.3545006  69.2595017  62.4459987  74.0245006  69.1005017
  60.8759987  73.5955006  68.4895017  60.9729987  73.6215006  70.6315017
  60.5909987  74.6405006  70.6365017  60.1109987  72.9735006  70.7725017
  61.9219987  73.4545006  71.8325017  61.3039987  73.3215006  72.7185017
  62.4469987  72.5125006  71.6845017  62.9509987  74.5515006  72.0935017
  62.6439987  75.4765006  71.6075017  63.0299987  74.7735006  73.1545017
  64.3179987  74.1455006  71.5795017  64.6939987  73.1725006  71.8745017
  64.4629987  74.2165006  70.5025017  65.0789987  75.2295006  72.2305017
  64.7759987  76.2525006  72.0675017  66.1119987  75.0295006  73.0205017
  66.5789987  75.8935006  73.4725017  66.7679987  73.6845006  73.4065017
  66.0839987  72.8835006  73.1325017  67.6779987  73.5145006  72.8415017
  67.0699987  73.5655006  74.9075017  67.5459987  72.5995006  75.0705017
  67.8219987  74.3175006  75.1395017  65.9029987  73.7195006  75.8575017
  65.4619987  74.7145006  75.8025017  65.0999987  73.0195006  75.6455017
  66.4299987  73.4785006  77.2785017  66.8939987  72.4945006  77.2665017
  67.2349987  74.1925006  77.4405017  65.4269987  73.5725006  78.4425017
  65.9159987  73.3265006  79.3835017  65.0539987  74.5865006  78.5585017
  64.2419987  72.5895006  78.2485017  63.7339987  72.8795006  77.3305017
  64.6729987  71.6085006  78.0575017  63.2029987  72.4535006  79.3535017
  62.6069987  73.3545006  79.4745017  62.4979987  71.6625006  79.1075017
  63.8269987  72.1385006  80.5725017  63.0889987  71.9525006  81.3465017
  64.4669987  72.9425006  80.9195017  64.4389987  71.2465006  80.4785017
  32.0329987  42.1105006  81.6735017  32.2679987  42.3995006  82.6935017
  31.0619987  41.6235006  81.6825017  31.9389987  43.0195006  81.0865017
  33.0309987  41.2565006  81.1365017  33.0579987  40.4545006  81.8725017
  33.9279987  41.8485006  81.2975017  33.0459987  40.6175006  79.6555017
  32.8639987  41.5015006  79.0445017  32.1109987  40.0615006  79.6665017
  34.2029987  39.6835006  78.9315017  34.5949987  38.9015006  79.5775017
  35.0679987  40.2365006  78.5695017  33.4889987  39.0275006  77.7465017
  33.4549987  39.7505006  76.9355017  32.4569987  38.8595006  78.0495017
  34.0599987  37.7615006  77.2355017  34.2199987  37.1015006  78.0855017
  35.0459987  37.9795006  76.8305017  33.2279987  37.0295006  76.1745017
  33.9469987  36.3195006  75.7695017  33.0979987  37.7985006  75.4145017
  31.8679987  36.3055006  76.4115017  31.3679987  37.0715006  77.0025017
  32.1989987  35.5455006  77.1175017  30.8979987  35.7055006  75.4685017
  29.9549987  35.5475006  75.9875017  31.2539987  34.7175006  75.1775017
  30.6649987  36.4965006  74.2825017  30.7959987  37.5275006  74.6035017
  29.6039987  36.3785006  74.0625017  31.4029987  36.2595006  73.1235017
  31.5629987  35.1895006  73.2385017  32.3389987  36.7365006  73.4095017
  31.0959987  36.5725006  71.5285017  31.6369987  37.5045006  71.3865017
  30.0409987  36.8365006  71.5615017  31.3429987  35.5865006  70.2685017
  30.6419987  34.7805006  70.4785017  32.3339987  35.1885006  70.4675017
  31.2359987  35.9215006  68.8245017  31.0739987  36.9945006  68.8195017
  30.2949987  35.4595006  68.5385017  32.3089987  35.5615006  67.7575017
  32.5119987  34.4985006  67.7675017  33.2319987  36.0935006  67.9555017
  31.6629987  36.0275006  66.5145017  30.4689987  36.2495006  66.4465017
  32.5349987  36.0105006  65.5335017  31.8959987  36.1595006  64.2475017
  30.8409987  36.2275006  64.4685017  32.0899987  35.2285006  63.7345017
  32.3399987  37.3585006  63.3975017  31.5889987  37.5245006  62.6425017
  33.5769987  36.9955006  62.7805017  33.4929987  36.3445006  61.9215017
  34.2919987  36.5665006  63.4715017  33.9869987  38.2765006  62.3865017
  34.7389987  38.3795006  61.2185017  35.1759987  39.8515006  61.1705017
  35.3169987  40.8725006  62.0655017  35.9609987  41.6785006  61.7385017
  35.7169987  40.5225006  63.0125017  33.9589987  41.3715006  62.3785017
  34.1689987  42.2995006  62.8955017  33.4079987  40.7205006  63.0425017
  32.9899987  41.7355006  61.2465017  32.6329987  40.5905006  60.3515017
  33.5449987  40.1145006  60.0185017  32.0979987  40.9865006  59.5015017
  31.9969987  39.9075006  60.8935017  31.7829987  42.1565006  61.9595017
  32.0629987  42.8775006  62.7125017  31.3139987  41.2935006  62.3965017
  31.1229987  42.6135006  61.2365017  33.4609987  42.8915006  60.4185017
  33.5969987  43.7525006  61.0555017  32.7209987  43.1125006  59.6645017
  34.3969987  42.6365006  59.9425017  35.9189987  37.6935006  61.2335017
  33.8619987  37.8105006  60.2575017  32.5849987  38.6055006  64.1465017
  31.5289987  39.1135006  64.5875017  30.4409987  38.5585006  64.5395017
  31.8849987  40.4295006  65.3215017  32.9169987  40.7035006  65.1305017
  31.2859987  41.2695006  64.9795017  31.6319987  40.1385006  66.8145017
  30.5739987  40.3005006  66.9905017  31.8039987  39.0785006  66.9725017
  32.4399987  40.9535006  67.8305017  32.4539987  41.9985006  67.5305017
  31.9249987  40.9195006  68.7875017  33.8639987  40.4475006  68.0265017
  34.3649987  40.3885006  67.0625017  34.4479987  41.1375006  68.6305017
  33.9069987  39.0785006  68.6705017  33.2279987  38.9485006  69.5105017
  33.6939987  38.2645006  67.9805017  35.3679987  38.9395006  69.1645017
  36.0289987  39.2975006  68.3765017  35.5229987  39.5945006  70.0165017
  35.7639987  37.5595006  69.5475017  34.8329987  37.0415006  69.7445017
  36.1719987  37.1215006  68.6375017  36.7379987  37.3515006  70.6535017
  37.6959987  36.9495006  70.3605017  36.5609987  37.6175006  71.9495017
  37.4629987  37.3475006  72.4805017  35.4859987  38.1715006  72.8205017
  34.5219987  38.1015006  72.3195017  35.3769987  37.6475006  73.7635017
  35.7779987  39.6495006  73.0915017  36.7809987  39.7335006  73.5075017
  35.8019987  40.1665006  72.1345017  34.7769987  40.3545006  74.0215017
  34.8679987  39.9365006  75.0235017  35.0379987  41.4055006  74.1065017
  33.3219987  40.2255006  73.5505017  33.3549987  40.0825006  72.4725017
  32.9289987  39.3005006  73.9685017  32.3739987  41.3785006  73.8955017
  32.7379987  42.2615006  73.3725017  31.4049987  41.1525006  73.4585017
  32.2109987  41.7385006  75.3625017  32.2319987  40.8655006  76.0115017
  33.0009987  42.3975006  75.7175017  30.8559987  42.4545006  75.5465017
  30.8359987  43.3965006  75.0045017  30.0729987  41.8415006  75.1045017
  30.5199987  42.7005006  76.9845017  29.5249987  43.1245006  77.0805017
  31.2139987  43.3915006  77.4505017  30.5429987  41.7755006  77.5545017
  46.9959987  35.5165006  78.3015017  46.1139987  35.0995006  78.7775017
  47.4649987  36.1955006  79.0075017  47.6899987  34.7005006  78.1195017
  46.6289987  36.2505006  76.9685017  45.8779987  36.9585006  77.3145017
  46.0909987  35.4655006  76.4445017  47.6089987  36.9785006  75.9875017
  48.0469987  36.2415006  75.3145017  48.4349987  37.3835006  76.5695017
  46.9939987  38.1145006  75.1615017  47.7369987  38.6395006  74.5665017
  46.5049987  38.8725006  75.7715017  45.9729987  37.4875006  74.2225017
  45.4499987  38.2645006  73.6705017  45.2169987  36.9695006  74.8115017
  46.6059987  36.4935006  73.2145017  45.8469987  35.7445006  72.9965017
  47.4009987  35.9745006  73.7455017  47.1599987  37.0555006  71.8935017
  47.9719987  37.7545006  72.0855017  46.3919987  37.6185006  71.3645017
  47.6699987  35.9195006  70.9885017  46.8989987  35.1605006  70.8615017
  48.5179987  35.4165006  71.4495017  48.0889987  36.4565006  69.6045017
  48.8829987  37.1895006  69.7275017  47.2519987  36.9895006  69.1555017
  48.5539987  35.3655006  68.6575017  49.2299987  34.6775006  69.1605017
  49.1119987  35.7835006  67.8205017  47.3549987  34.6185006  68.1295017
  47.0209987  35.0255006  67.1775017  46.5009987  34.6815006  68.8015017
  47.7039987  33.2395006  67.9345017  47.9749987  32.7185006  68.8495017
  48.5369987  33.1005006  67.2475017  46.4289987  32.5965006  67.3075017
  46.7529987  31.7985006  66.6415017  45.9289987  33.3315006  66.6825017
  45.3519987  31.9695006  68.3535017  44.6909987  32.7615006  68.6905017
  45.9019987  31.6265006  69.2255017  44.4749987  30.7545006  67.7945017
  45.1149987  29.9655006  67.4215017  43.8329987  31.0915006  66.9895017
  43.6469987  31.3155006  66.8095017  42.5399987  30.8895006  66.8155017
  44.2859987  32.1425006  65.9825017  43.6059987  33.0225006  65.0935017
  42.9449987  33.3535006  65.8795017  43.0899987  32.2985006  64.4795017
  44.0479987  34.1475006  64.3045017  43.2919987  34.6645006  63.7375017
  45.0079987  33.4655006  63.3715017  44.4689987  32.7735006  62.7385017
  45.7139987  32.9075006  63.9735017  45.6729987  34.4155006  62.5995017
  45.0669987  34.8885006  61.2665017  46.1329987  35.9805006  60.8175017
  46.7789987  36.7835006  61.8285017  47.8039987  36.4675006  61.9735017
  46.2709987  36.6225006  62.7745017  46.6969987  38.3145006  61.5765017
  47.2989987  38.4515006  60.6875017  47.2089987  38.7635006  62.4155017
  45.4789987  39.1225006  61.3645017  44.7909987  38.6965006  60.1515017
  45.5039987  38.6785006  59.3385017  44.0149987  39.4165006  59.9385017
  44.3489987  37.7265006  60.3215017  44.6709987  38.8945006  62.5605017
  45.2919987  39.0535006  63.4285017  44.2799987  37.8935006  62.5345017
  43.8629987  39.6115006  62.5465017  45.8299987  40.5455006  61.2345017
  46.3469987  40.8675006  62.1265017  44.9269987  41.1235006  61.1115017
  46.4669987  40.6825006  60.3725017  45.0169987  33.7625006  60.3125017
  43.8619987  35.6065006  61.5695017  44.5279987  35.1345006  65.1915017
  43.6179987  36.0295006  65.5295017  42.4349987  36.0365006  65.2305017
  44.3379987  37.1195006  66.3005017  45.2179987  36.6815006  66.7605017
  44.7069987  37.8775006  65.6145017  43.3839987  37.7345006  67.3485017
  43.9499987  38.4525006  67.9315017  42.6219987  38.3055006  66.8265017
  42.7179987  36.7215006  68.3035017  42.0869987  37.2175006  69.0365017
  42.0679987  36.0495006  67.7495017  43.8049987  35.8785006  69.0215017
  44.2979987  35.2735006  68.2625017  44.5649987  36.5485006  69.4165017
  43.3319987  34.9525006  70.1425017  44.1189987  34.7885006  70.8765017
  42.5039987  35.4065006  70.6835017  42.8819987  33.6375006  69.5955017
  42.1869987  33.8205006  68.7775017  43.7279987  33.1085006  69.1665017
  42.2089987  32.7255006  70.6425017  41.6229987  33.3865006  71.2705017
  41.4959987  32.1235006  70.0815017  43.0109987  31.8665006  71.4195017
  43.7619987  31.2755006  70.9175017  42.9209987  31.7365006  72.7485017
  43.5989987  31.0535006  73.2395017  41.9759987  32.4385006  73.6825017
  41.0049987  32.3745006  73.1955017  41.9029987  31.8415006  74.5845017
  42.2259987  33.8945006  74.0585017  42.1429987  34.4905006  73.1505017
  41.4039987  34.2055006  74.7015017  43.5319987  34.2005006  74.7425017
  44.3499987  33.9555006  74.0655017  43.5999987  35.2695006  74.9275017
  43.7209987  33.4515006  76.0425017  43.7129987  32.3875006  75.8155017
  44.7169987  33.6735006  76.4225017  42.7059987  33.7565006  77.1055017
  42.6859987  34.8165006  77.3505017  41.6939987  33.5035006  76.8035017
  43.0749987  33.0015006  78.3495017  42.3799987  32.1765006  78.4945017
  44.0569987  32.5505006  78.2205017  43.0939987  33.8275006  79.5885017
  43.9579987  34.4595006  79.7785017  42.2229987  34.4595006  79.7505017
  43.0679987  32.7165006  80.5755017  42.9879987  33.1015006  81.5875017
  43.9669987  32.1115006  80.5285017  42.2189987  32.0605006  80.4035017
  40.0209987  74.5235006  78.0425017  39.9869987  73.6115006  78.6305017
  39.0069987  74.7525006  77.7265017  40.3509987  75.3255006  78.6965017
  40.9729987  74.3725006  76.8165017  40.5959987  73.5125006  76.2655017
  41.9259987  74.0685006  77.2405017  41.1769987  75.5485006  75.8415017
  41.3789987  76.4585006  76.4055017  40.2469987  75.7265006  75.3055017
  42.3109987  75.3285006  74.8005017  43.0099987  74.5805006  75.1675017
  42.8899987  76.2405006  74.6625017  41.7629987  74.8655006  73.4475017
  42.5839987  74.6795006  72.7605017  41.1739987  75.6695006  73.0095017
  40.8969987  73.5975006  73.5445017  40.1099987  73.7655006  74.2775017
  41.5059987  72.7845006  73.9335017  40.2729987  73.1695006  72.2265017
  39.8629987  72.1645006  72.3095017  41.0299987  73.1255006  71.4445017
  39.1879987  74.1135006  71.8115017  39.5489987  75.1165006  71.5885017
  38.4059987  74.2315006  72.5595017  38.5829987  73.4975006  70.5375017
  38.4829987  72.4285006  70.7105017  39.3189987  73.6085006  69.7415017
  37.2149987  74.0735006  70.0575017  36.5349987  74.1765006  70.9005017
  36.7369987  73.3845006  69.3615017  37.3819987  75.2545006  69.4595017
  37.5799987  74.9105006  68.4465017  38.3469987  75.5335006  69.8785017
  36.2439987  76.8325006  69.3605017  35.7359987  76.8445006  70.3225017
  35.4919987  76.5595006  68.6235017  36.9609987  78.7305006  68.9055017
  36.8839987  79.2455006  69.8615017  36.1849987  79.1495006  68.2705017
  38.6519987  79.1325006  68.1605017  39.0379987  78.1535006  67.8975017
  39.2079987  79.4665006  69.0325017  38.8899987  79.9925006  67.1425017
  38.4829987  80.9695006  67.3695017  38.4359987  79.6305006  66.2285017
  40.4219987  80.0375006  66.8035017  41.3879987  79.7585006  67.5135017
  40.4129987  80.2785006  65.5735017  41.5739987  80.0455006  64.8215017
  42.3839987  79.9225006  65.5245017  41.8059987  80.8625006  64.1545017
  41.3479987  78.7525006  64.0435017  42.1819987  78.5995006  63.3785017
  40.0319987  78.9075006  63.2165017  40.1229987  79.7385006  62.5305017
  39.2239987  79.1145006  63.9065017  39.7799987  77.6995006  62.5045017
  38.8259987  77.7565006  61.2445017  39.2409987  76.4005006  60.5165017
  40.5989987  76.1415006  60.1325017  41.1299987  77.0805006  60.0445017
  40.5769987  75.7055006  59.1375017  41.4029987  75.1205006  61.0115017
  41.8219987  75.7385006  61.7955017  42.2109987  74.7235006  60.4135017
  40.7879987  73.9435006  61.7045017  40.1669987  73.0395006  60.9215017
  39.4699987  73.5595006  60.2795017  39.6309987  72.3555006  61.5625017
  40.9089987  72.4975006  60.3545017  41.6919987  73.0585006  62.3735017
  42.3439987  73.6455006  63.0015017  42.2479987  72.5035006  61.6395017
  41.0989987  72.3875006  62.9785017  39.8649987  74.5035006  62.6325017
  40.3929987  75.1635006  63.3055017  39.4009987  73.7075006  63.1955017
  39.1069987  75.0565006  62.0975017  37.4239987  77.6925006  61.7235017
  39.1879987  78.9185006  60.4075017  41.2689987  77.6085006  64.9325017
  42.4319987  77.2005006  65.4375017  43.5299987  77.5425006  65.0385017
  42.1579987  76.1605006  66.5105017  41.3389987  76.5205006  67.1255017
  41.8039987  75.2405006  66.0525017  43.4349987  75.9125006  67.3385017
  43.2939987  75.0765006  68.0155017  44.2719987  75.6445006  66.7015017
  43.7789987  77.1595006  68.1495017  44.5049987  77.7635006  67.6115017
  42.8869987  77.7725006  68.2455017  44.2969987  76.8385006  69.5375017
  43.5059987  76.4425006  70.1725017  45.0869987  76.0915006  69.5355017
  44.8259987  78.1085006  70.1715017  45.6139987  78.5535006  69.5675017
  44.0379987  78.8555006  70.2385017  45.3499987  77.8375006  71.5535017
  45.9609987  76.9375006  71.5215017  46.0089987  78.6445006  71.8605017
  44.2759987  77.6725006  72.5925017  43.5009987  76.9915006  72.2595017
  44.6869987  77.2465006  73.5065017  43.7419987  78.9455006  72.8885017
  44.4729987  79.5405006  73.4155017  42.5659987  79.5145006  72.6365017
  42.5419987  80.5205006  73.0305017  41.4019987  79.1305006  72.0035017
  41.0039987  79.8465006  71.2865017  41.3559987  78.1605006  71.5215017
  40.5169987  79.1305006  73.2015017  40.5489987  78.2945006  73.8995017
  40.4529987  80.0305006  73.8095017  39.3779987  79.0315006  72.4105017
  39.5149987  79.6055006  71.4945017  39.2219987  78.0015006  72.1025017
  38.2089987  79.5085006  73.0975017  38.2189987  80.4205006  72.5045017
  37.5759987  78.8035006  72.5615017  37.6169987  79.7795006  74.4365017
  37.7709987  80.8555006  74.4855017  36.5659987  79.6405006  74.1965017
  37.9169987  79.2025006  75.8055017  37.7239987  78.1325006  75.8585017
  38.9589987  79.3365006  76.0925017  37.0309987  79.9105006  76.8435017
  37.2749987  80.9695006  76.8695017  36.0039987  79.8525006  76.4905017
  37.0959987  79.3405006  78.2555017  36.3799987  79.8355006  78.9045017
  38.0779987  79.4665006  78.6985017  36.8659987  78.2785006  78.2585017
  25.3499987  38.5455006  77.5135017  25.0029987  38.3435006  78.5215017
  26.4349987  38.4985006  77.5215017  24.9909987  37.7445006  76.8735017
  24.8989987  39.7945006  77.0595017  25.2579987  40.6415006  77.6425017
  23.8169987  39.8905006  77.0155017  25.4839987  39.8665006  75.6665017
  24.8509987  39.5115006  74.8535017  26.4459987  39.3755006  75.5355017
  25.6779987  41.3105006  75.5315017  26.1899987  41.7325006  76.3935017
  24.7399987  41.8555006  75.4425017  26.5079987  41.5545006  74.3175017
  26.0759987  41.1135006  73.4225017  27.5039987  41.1265006  74.4195017
  26.6259987  43.0485006  74.1185017  27.2349987  43.4925006  74.9035017
  25.6489987  43.5235006  74.1855017  27.2419987  43.3615006  72.7685017
  26.5769987  43.0545006  71.9635017  28.1659987  42.8015006  72.6305017
  27.5369987  44.8725006  72.6375017  28.3889987  45.0935006  73.2795017
  26.6899987  45.4075006  73.0625017  27.8169987  45.4085006  71.2175017
  28.7489987  44.9965006  70.8365017  27.9499987  46.4895006  71.2425017
  26.6709987  45.0595006  70.2475017  25.7719987  45.5465006  70.6185017
  26.4899987  43.9875006  70.3205017  26.9019987  45.4325006  68.7765017
  26.9129987  46.5165006  68.6805017  26.0679987  45.0835006  68.1705017
  28.2169987  44.8815006  68.1965017  28.1969987  43.7955006  68.2395017
  29.0389987  45.1955006  68.8375017  28.5079987  45.3505006  66.7565017
  28.2929987  46.4175006  66.7175017  27.7979987  44.8725006  66.0875017
  29.9349987  45.1325006  66.2135017  30.6279987  44.9185006  67.0205017
  30.2859987  46.0405006  65.7295017  29.9789987  43.9925006  65.1975017
  29.2689987  44.1685006  64.3995017  29.7369987  43.0505006  65.6765017
  29.4449987  42.7215006  65.8295017  29.5749987  42.3795006  66.9885017
  28.9639987  42.0095006  64.8505017  28.6399987  40.6585006  65.1665017
  28.8819987  40.5985006  66.2165017  29.3019987  40.0085006  64.6135017
  27.1819987  40.2755006  64.9375017  26.9769987  39.2485006  65.1895017
  26.8459987  40.5295006  63.4445017  26.1469987  39.7725006  63.1155017
  27.7699987  40.4115006  62.8925017  26.3019987  41.8405006  63.2355017
  25.3459987  42.0765006  61.9935017  26.4309987  42.5575006  60.9335017
  27.5679987  43.3575006  61.1915017  28.5029987  42.8205006  61.0935017
  27.5399987  43.7445006  62.2055017  27.5469987  44.6055006  60.2805017
  27.4099987  44.3275006  59.2435017  28.4889987  45.1255006  60.3795017
  26.4719987  45.6315006  60.5775017  26.8799987  47.0185006  60.2265017
  27.8409987  47.2205006  60.6795017  26.1399987  47.6955006  60.6275017
  26.9129987  47.1125006  59.1515017  25.1849987  45.2155006  59.9025017
  24.9859987  44.1845006  60.1505017  25.2849987  45.3525006  58.8405017
  24.3989987  45.8485006  60.2885017  26.2199987  45.6275006  62.0585017
  25.9189987  44.6365006  62.3655017  25.4339987  46.3315006  62.2865017
  27.1229987  45.9135006  62.5785017  24.7799987  40.8085006  61.4905017
  24.4809987  43.2385006  62.2725017  26.4259987  41.0675006  65.8455017
  25.1259987  40.8925006  65.8185017  24.5089987  39.9725006  65.3375017
  24.5009987  42.0495006  66.5915017  25.3149987  42.5835006  67.0705017
  24.0639987  42.7475006  65.8825017  23.4499987  41.5635006  67.6125017
  22.5579987  41.2075006  67.1095017  23.8179987  40.7275006  68.1995017
  23.0749987  42.7205006  68.5365017  23.9359987  42.9245006  69.1685017
  22.9509987  43.5945006  67.9015017  21.8209987  42.5595006  69.3955017
  20.9639987  42.3035006  68.7745017  21.9199987  41.7575006  70.1225017
  21.5069987  43.8635006  70.1375017  22.2099987  44.6305006  69.8195017
  20.5229987  44.2055006  69.8225017  21.5239987  43.7605006  71.6675017
  20.8969987  42.9385006  72.0105017  22.5209987  43.5675006  72.0545017
  21.0059987  45.0855006  72.2735017  21.5239987  45.8655006  71.7275017
  19.9609987  45.1405006  71.9695017  21.0879987  45.3175006  73.7615017
  20.3909987  44.7735006  74.3815017  21.9559987  46.1275006  74.3835017
  21.8929987  46.1965006  75.4605017  23.0379987  46.9745006  73.7775017
  23.1459987  46.7535006  72.7165017  22.8539987  48.0405006  73.8485017
  24.3759987  46.6355006  74.4825017  24.6739987  45.6215006  74.2205017
  25.1519987  47.2905006  74.0915017  24.3209987  46.7755006  76.0135017
  23.7439987  47.6725006  76.2385017  23.7479987  45.9395006  76.4055017
  25.6719987  46.8505006  76.7335017  26.3839987  46.2105006  76.2165017
  26.0659987  47.8625006  76.6625017  25.5799987  46.4425006  78.2245017
  25.0829987  45.4755006  78.2825017  26.5839987  46.2835006  78.6075017
  24.8159987  47.4235006  79.1365017  25.3489987  48.3725006  79.1475017
  23.8469987  47.6275006  78.6855017  24.5949987  46.9785006  80.5685017
  24.0229987  47.7035006  81.1425017  24.0119987  46.0605006  80.5875017
  25.8659987  46.7375006  81.2255017  25.7139987  46.3345006  82.2225017
  26.4479987  47.6465006  81.3275017  26.4649987  46.0235006  80.6675017
  52.2579987  24.1765006  77.5625017  52.9829987  24.1575006  78.3705017
  52.8049987  24.1425006  76.6245017  51.6639987  23.2685006  77.6295017
  51.4049987  25.3735006  77.6385017  51.8059987  26.3635006  77.4285017
  50.6819987  25.5005006  78.4395017  50.7559987  24.8685006  76.4635017
  49.9219987  25.5395006  76.2585017  50.3129987  23.9175006  76.7535017
  51.5319987  24.6655006  75.2265017  52.3129987  23.9185006  75.3455017
  52.0289987  25.5685006  74.8755017  50.5519987  24.1815006  74.1605017
  49.6909987  24.8395006  74.0825017  50.1619987  23.1975006  74.4155017
  51.2349987  24.1125006  72.8215017  52.0759987  24.7975006  72.7305017
  50.5719987  24.3325006  71.9875017  51.7439987  22.6605006  72.6975017
  50.9249987  21.9465006  72.7665017  52.4329987  22.4115006  73.5035017
  52.4619987  22.4845006  71.3405017  53.4709987  22.5805006  71.7385017
  52.1949987  23.4635006  70.9475017  52.4649987  21.4875006  70.2215017
  51.4899987  21.5925006  69.7515017  52.4619987  20.5155006  70.7125017
  53.5949987  21.5055006  69.1015017  54.5099987  21.1115006  69.5385017
  53.8039987  22.5425006  68.8405017  53.2679987  20.7805006  67.9165017
  54.1179987  20.6285006  67.2545017  52.4909987  21.2405006  67.3095017
  52.7919987  19.4315006  68.3955017  52.0409987  19.4955006  69.1795017
  53.5999987  18.8235006  68.7975017  52.2219987  18.7365006  67.1875017
  52.9249987  18.7755006  66.3575017  51.3089987  19.2075006  66.8355017
  51.9439987  17.2995006  67.4895017  51.1009987  17.2285006  68.1695017
  52.8039987  16.8875006  68.0105017  51.6669987  16.4425006  66.2545017
  52.4809987  16.5245006  65.5465017  50.7519987  16.7625006  65.7705017
  50.2469987  16.5835006  65.8345017  49.3339987  16.9295006  66.5585017
  50.2199987  16.1565006  64.5735017  49.0869987  16.4265006  63.7495017
  48.3269987  15.9085006  64.3095017  49.2689987  15.8915006  62.8285017
  48.6539987  17.8655006  63.4715017  47.5889987  17.9305006  63.3115017
  49.3749987  18.1645006  62.2075017  49.1599987  17.4125006  61.4605017
  50.4409987  18.1765006  62.3855017  48.9659987  19.4495006  61.7775017
  49.7689987  19.9495006  60.5195017  51.1249987  20.4915006  61.1985017
  51.1079987  21.7475006  61.8875017  50.1319987  21.8595006  62.3425017
  51.2839987  22.5875006  61.2275017  52.1969987  21.7425006  62.9775017
  52.2369987  22.7155006  63.4425017  51.9429987  21.0005006  63.7215017
  53.5859987  21.4795006  62.4485017  53.6149987  20.6805006  61.8365017
  53.8419987  22.3705006  61.8735017  54.2539987  21.3455006  63.1875017
  50.0459987  18.7795006  59.6595017  49.0179987  21.0885006  59.9405017
  48.9669987  18.7815006  64.5475017  47.9729987  19.6085006  64.8595017
  46.7909987  19.4445006  64.6225017  48.4829987  20.8815006  65.5425017
  49.5669987  20.8455006  65.4975017  48.1889987  21.7375006  64.9405017
  47.9689987  21.0185006  66.9945017  47.8759987  22.0735006  67.2265017
  46.9659987  20.6085006  67.0565017  48.8709987  20.3505006  68.0425017
  49.1789987  19.3595006  67.7195017  49.7849987  20.9265006  68.1665017
  48.1599987  20.2645006  69.3975017  47.8959987  21.2655006  69.7335017
  47.2259987  19.7145006  69.3175017  49.0339987  19.6055006  70.4805017
  50.0009987  20.1035006  70.5165017  48.5699987  19.7755006  71.4495017
  49.2479987  18.0785006  70.2935017  48.2709987  17.6175006  70.1575017
  49.7989987  17.9075006  69.3725017  49.9929987  17.3675006  71.4575017
  49.4129987  17.5245006  72.3595017  49.9589987  16.2985006  71.2525017
  51.4409987  17.7765006  71.6595017  52.1419987  17.4445006  70.9085017
  51.9269987  18.5135006  72.6635017  52.9819987  18.7425006  72.7025017
  51.1359987  19.0905006  73.7935017  51.6629987  19.9525006  74.1985017
  50.1619987  19.4495006  73.4795017  50.9619987  18.0695006  74.9125017
  50.4889987  17.1565006  74.5525017  51.9269987  17.7705006  75.3185017
  50.1189987  18.6735006  76.0215017  50.3679987  19.7215006  76.1875017
  49.0579987  18.6465006  75.7895017  50.3809987  17.8815006  77.3095017
  50.5039987  16.8345006  77.0395017  51.3349987  18.2025006  77.7235017
  49.3239987  18.0175006  78.3495017  48.3069987  18.1265006  77.9775017
  49.2789987  17.2455006  79.1135017  49.7049987  19.2335006  78.9205017
  50.7299987  19.2135006  79.2855017  49.6539987  20.0535006  78.2065017
  48.8589987  19.5255006  79.9915017  48.5839987  20.5765006  80.0215017
  47.9249987  18.9775006  79.8845017  49.5009987  19.1375006  81.2985017
  48.8109987  19.2815006  82.1245017  50.3859987  19.7295006  81.5065017
  49.7969987  18.0925006  81.2935017  75.9389987  66.5275006  78.3615017
  76.9619987  66.1905006  78.4925017  75.2819987  65.7285006  78.6925017
  75.7829987  67.3755006  79.0225017  75.6709987  66.8925006  76.9585017
  75.8589987  66.0325006  76.3185017  76.3729987  67.6625006  76.6495017
  74.2499987  67.3695006  76.7465017  74.3069987  68.2095006  76.0535017
  73.9309987  67.7865006  77.6995017  73.1569987  66.3675006  76.2535017
  72.9989987  65.6145006  77.0225017  73.5199987  65.8325006  75.3775017
  71.8449987  67.0065006  75.9345017  71.6049987  67.7435006  76.6965017
  71.0659987  66.2485006  75.9865017  71.8039987  67.6555006  74.6125017
  71.7559987  66.9025006  73.8285017  72.7209987  68.2145006  74.4415017
  70.6129987  68.5935006  74.4815017  70.7749987  69.4675006  75.1095017
  69.7239987  68.0995006  74.8715017  70.3499987  69.0445006  73.0485017
  70.2339987  68.1765006  72.4005017  71.2069987  69.5965006  72.6675017
  69.1089987  69.9145006  72.9475017  68.3139987  69.4575006  73.5325017
  68.7649987  69.9145006  71.9145017  69.3139987  71.3605006  73.4115017
  69.5179987  71.2665006  74.4755017  68.3249987  71.8115006  73.3285017
  70.3499987  72.2915006  72.7575017  71.3309987  71.9825006  73.1115017
  70.1909987  73.2955006  73.1455017  70.3829987  72.3405006  71.2385017
  69.4059987  72.6435006  70.8695017  70.5529987  71.3345006  70.8595017
  71.4649987  73.2615006  70.6795017  72.4539987  72.9175006  70.9785017
  71.3719987  74.2795006  71.0485017  71.4139987  73.2785006  69.1655017
  71.9669987  74.1225006  68.7655017  70.3859987  73.3905006  68.8325017
  71.9699987  72.0015006  68.5865017  71.4539987  71.1425006  68.9975017
  73.0259987  71.9135006  68.8115017  71.8449987  72.1175006  67.1645017
  70.9709987  71.7385006  66.4245017  73.1369987  72.4565006  66.9005017
  73.4569987  72.1775006  65.6215017  72.8709987  73.0375006  65.3415017
  72.8689987  71.2835006  65.4765017  74.7949987  72.1205006  64.7735017
  75.2909987  72.9655006  65.2205017  74.9639987  72.1595006  63.0955017
  75.7529987  72.8765006  62.9115017  74.0259987  72.5885006  62.7585017
  75.2369987  70.8875006  62.3935017  74.2039987  69.8855006  61.7625017
  74.6269987  68.8555006  60.8395017  75.5249987  68.0115006  61.4425017
  75.7819987  68.2695006  62.4645017  76.4359987  67.9925006  60.8655017
  74.9179987  66.6305006  61.3765017  73.9279987  66.6345006  61.8075017
  75.7689987  65.7565006  62.1935017  76.2529987  65.1895006  61.4955017
  76.4189987  66.2795006  62.8165017  75.2219987  65.1335006  62.7595017
  74.8159987  66.0965006  59.9445017  73.7789987  68.9265006  62.8615017
  73.2909987  70.7305006  60.9965017  75.3419987  71.0235006  65.3465017
  76.5699987  70.9275006  65.0715017  77.3219987  71.7515006  64.5675017
  75.3469987  65.0025006  59.6635017  74.2349987  66.7045006  59.0715017
  76.8719987  69.5745006  65.5835017  75.9499987  69.0705006  65.8565017
  77.3369987  68.9515006  64.8235017  77.7999987  69.7625006  66.7865017
  78.1219987  68.7785006  67.1095017  78.6949987  70.2745006  66.4485017
  77.1889987  70.5135006  67.9875017  77.9659987  70.7195006  68.7185017
  76.8339987  71.4815006  67.6415017  76.0229987  69.7755006  68.6535017
  75.7189987  70.3775006  69.5085017  75.1809987  69.7775006  67.9655017
  76.2579987  68.3785006  69.1225017  75.3899987  67.9675006  69.6335017
  76.4609987  67.7125006  68.2855017  77.3879987  68.3575006  70.0105017
  77.6649987  67.3045006  70.0015017  78.1559987  68.8815006  69.4475017
  77.4009987  68.8805006  71.4775017  78.3989987  68.7295006  71.8735017
  77.2459987  69.9575006  71.4385017  76.3659987  68.2805006  72.3795017
  75.9889987  67.2955006  72.1475017  75.8789987  68.8765006  73.4695017
  75.1409987  68.3905006  74.0905017  76.2869987  70.2505006  73.9555017
  76.6259987  70.1635006  74.9865017  77.1279987  70.6395006  73.3915017
  75.1179987  71.2755006  73.9125017  75.5579987  72.2725006  73.9105017
  74.6299987  71.1575006  72.9465017  74.0519987  71.1815006  75.0375017
  73.2059987  71.8115006  74.7645017  73.6719987  70.1645006  75.0795017
  74.5619987  71.5935006  76.4225017  75.2179987  70.7955006  76.7645017
  75.1939987  72.4695006  76.2875017  73.4999987  71.8945006  77.4925017
  73.9719987  72.2475006  78.4075017  72.8349987  72.6925006  77.1745017
  72.6959987  70.6515006  77.8315017  72.1409987  70.2925006  76.9665017
  73.3479987  69.8335006  78.1325017  71.7009987  70.9265006  78.9715017
  72.2389987  71.1575006  79.8875017  71.1459987  71.8275006  78.7195017
  70.7309987  69.8225006  79.2305017  70.0059987  70.1155006  79.9835017
  71.2239987  68.9245006  79.5865017  70.1849987  69.5625006  78.3285017
  16.8269987  50.0715006  80.0325017  15.9469987  49.5345006  80.3715017
  16.5869987  50.5335006  79.0795017  17.0219987  50.8685006  80.7445017
  18.0499987  49.1255006  79.9055017  17.7499987  48.3335006  79.2215017
  18.1659987  48.6595006  80.8805017  19.4079987  49.7225006  79.4325017
  19.8029987  50.3755006  80.2115017  19.2229987  50.3605006  78.5705017
  20.4799987  48.6805006  79.0495017  20.0509987  47.9635006  78.3525017
  20.7759987  48.1075006  79.9265017  21.7369987  49.3115006  78.4005017
  22.6019987  48.8745006  78.8925017  21.7259987  50.3645006  78.6785017
  21.9169987  49.1905006  76.8675017  21.0589987  49.6425006  76.3735017
  21.9079987  48.1385006  76.5915017  23.2199987  49.8485006  76.3355017
  23.3069987  49.5705006  75.2865017  24.0489987  49.3635006  76.8485017
  23.3589987  51.3415006  76.4675017  24.3379987  51.6255006  76.0825017
  23.3659987  51.5895006  77.5275017  22.2829987  52.1665006  75.7655017
  22.4659987  53.2005006  76.0505017  21.3389987  51.8855006  76.2315017
  22.1399987  52.0765006  74.2295017  21.3459987  52.7555006  73.9265017
  21.7969987  51.0735006  73.9775017  23.4229987  52.3845006  73.4425017
  24.1869987  51.6825006  73.7685017  23.7759987  53.3715006  73.7345017
  23.3219987  52.3145006  71.9005017  23.0999987  51.2915006  71.6055017
  24.2979987  52.5475006  71.4775017  22.2829987  53.2765006  71.2985017
  22.6889987  54.2865006  71.3245017  21.3879987  53.2925006  71.9145017
  21.8859987  52.9615006  69.8445017  21.0089987  53.5425006  69.5785017
  21.5969987  51.9155006  69.7925017  22.9979987  53.2165006  68.8065017
  23.8949987  52.6715006  69.0705017  23.2339987  54.2725006  68.7585017
  22.5099987  52.7005006  67.4515017  21.9419987  53.4015006  66.6395017
  22.9629987  51.4795006  67.2595017  22.6939987  50.8875006  65.9675017
  23.6229987  50.4315006  65.6585017  22.4229987  51.6535006  65.2555017
  21.5739987  49.8085006  66.0805017  21.7539987  49.1605006  66.9225017
  21.4659987  48.9685006  64.7825017  21.1389987  47.9635006  65.0115017
  22.4459987  48.9185006  64.3245017  20.5379987  49.6085006  63.9045017
  19.9869987  48.8355006  62.6455017  19.8649987  50.0015006  61.5555017
  21.0129987  50.3455006  60.7845017  21.5309987  49.4745006  60.4045017
  21.7259987  50.8815006  61.4045017  20.6509987  51.3335006  59.6275017
  19.9299987  50.8555006  58.9765017  21.5299987  51.5825006  59.0505017
  20.0249987  52.6645006  60.0325017  18.6039987  52.5265006  60.4375017
  18.0759987  51.9865006  59.6645017  18.1879987  53.5185006  60.5375017
  18.5579987  52.0175006  61.3885017  20.7269987  53.1815006  61.2305017
  21.7899987  53.1525006  61.0445017  20.4599987  52.5795006  62.0805017
  20.4049987  54.2025006  61.3785017  20.0259987  53.7005006  58.9585017
  21.0419987  53.8855006  58.6445017  19.5939987  54.6115006  59.3445017
  19.4419987  53.3505006  58.1195017  21.0559987  47.9085006  62.2095017
  18.6369987  48.3185006  62.9235017  20.3569987  50.5415006  66.3505017
  19.3179987  49.8715006  66.7915017  19.2969987  48.6955006  67.1155017
  18.1199987  50.8295006  66.9315017  18.4929987  51.8375006  66.7825017
  17.4189987  50.6485006  66.1205017  17.4399987  50.6655006  68.2945017
  16.3699987  50.8065006  68.1845017  17.5729987  49.6525006  68.6605017
  17.9669987  51.6505006  69.3095017  19.0369987  51.5615006  69.4785017
  17.7929987  52.6795006  69.0045017  17.2229987  51.3985006  70.5855017
  16.2249987  51.0015006  70.4105017  17.7149987  50.6995006  71.2575017
  17.0979987  52.6395006  71.2335017  18.0189987  53.1145006  71.5665017
  16.5439987  53.4015006  70.6885017  16.2669987  52.2115006  72.4665017
  15.5609987  53.0305006  72.5955017  15.6869987  51.3585006  72.1255017
  16.9079987  51.8595006  73.8485017  16.0869987  52.0145006  74.5385017
  17.0499987  50.7815006  73.7785017  18.2109987  52.4955006  74.3815017
  18.9299987  52.7895006  73.6315017  18.5339987  52.7305006  75.6645017
  19.4739987  53.1895006  75.9365017  17.6529987  52.3985006  76.8345017
  16.6329987  52.5585006  76.4875017  17.7409987  51.3375006  77.0405017
  17.8459987  53.1845006  78.1305017  17.1739987  54.0395006  78.0635017
  17.4469987  52.5455006  78.9165017  19.2619987  53.6705006  78.5375017
  19.8509987  52.7535006  78.5065017  19.5769987  54.2625006  77.6825017
  19.5829987  54.4395006  79.8455017  20.6009987  54.1625006  80.1105017
  19.6139987  55.4955006  79.5825017  18.6549987  54.2465006  81.0555017
  18.4689987  55.1575006  81.6205017  17.6759987  53.8335006  80.8275017
  19.2119987  53.5575006  81.7005017  19.3049987  52.5635006  81.2665017
  20.2279987  53.8995006  81.8915017  18.4719987  53.4355006  83.0565017
  19.2809987  52.8735006  83.5155017  18.6609987  54.4785006  83.2995017
  17.1829987  53.0305006  83.6655017  17.1769987  53.2405006  84.7305017
  16.9919987  51.9695006  83.5425017  16.3529987  53.5695006  83.2175017
  38.0439987  82.4365006  78.5455017  37.4419987  83.1635006  79.0825017
  37.4679987  81.5185006  78.4735017  38.1929987  82.8115006  77.5365017
  39.2969987  82.2125006  79.2015017  38.8439987  81.9755006  80.1625017
  39.5469987  83.2695006  79.2345017  40.5459987  81.3895006  79.0275017
  40.3369987  80.3315006  79.1825017  41.2819987  81.6645006  79.7805017
  41.1579987  81.5785006  77.6755017  41.3529987  82.6315006  77.4875017
  40.4869987  81.2495006  76.8835017  42.4669987  80.8165006  77.5735017
  42.1969987  79.7725006  77.4335017  42.9159987  80.8855006  78.5625017
  43.4949987  81.2015006  76.5305017  44.4689987  80.8015006  76.8065017
  43.6069987  82.2835006  76.5035017  43.1309987  80.7145006  75.1815017
  42.0819987  80.8995006  74.9595017  43.2759987  79.6385006  75.0925017
  44.0319987  81.4545006  74.1065017  44.0049987  80.7745006  73.2555017
  45.0319987  81.3745006  74.5275017  43.8109987  82.8475006  73.6295017
  44.2849987  82.9475006  72.6555017  44.3459987  83.5205006  74.2975017
  42.3619987  83.2875006  73.5315017  42.3789987  84.3745006  73.5055017
  41.8919987  83.0115006  74.4755017  41.5099987  82.7435006  72.3625017
  40.4859987  83.0735006  72.5215017  41.4909987  81.6575006  72.4315017
  41.9329987  83.1505006  70.9585017  42.9989987  82.9995006  70.8055017
  41.7479987  84.2095006  70.7895017  41.1439987  82.3555006  69.9445017
  41.1769987  81.2925006  70.1795017  41.5419987  82.4575006  68.9385017
  39.6749987  82.7945006  69.9475017  39.5819987  83.8745006  69.9115017
  39.1859987  82.4675006  70.8615017  38.9609987  82.2065006  68.7955017
  39.0689987  81.1295006  68.7925017  39.3569987  82.5975006  67.8665017
  38.6219987  82.8765006  67.4275017  37.7499987  83.7005006  67.3125017
  39.3249987  82.3585006  66.4175017  39.2849987  82.9155006  65.1075017
  38.3369987  83.4215006  65.0075017  39.3949987  82.2085006  64.2985017
  40.4319987  83.9315006  65.1085017  40.2139987  84.6255006  65.9035017
  40.5499987  84.6855006  63.7735017  40.9489987  85.6685006  63.9815017
  39.5399987  84.7935006  63.3985017  41.3729987  84.0005006  62.8085017
  41.3179987  84.5595006  61.3115017  42.6599987  83.9275006  60.7065017
  43.9039987  84.0815006  61.3875017  43.8899987  84.9235006  62.0675017
  44.6889987  84.2815006  60.6645017  44.3429987  82.7865006  62.1155017
  43.5259987  82.4605006  62.7455017  45.1929987  83.0165006  62.7405017
  44.7449987  81.5685006  61.2945017  45.6059987  81.8915006  60.1185017
  45.1309987  82.6785006  59.5485017  45.6879987  81.0025006  59.5115017
  46.5849987  82.1825006  60.4695017  45.5629987  80.6815006  62.1705017
  45.0329987  80.5345006  63.0995017  46.5229987  81.1375006  62.3335017
  45.6789987  79.7385006  61.6565017  43.5359987  80.8735006  60.7315017
  42.8869987  80.5765006  61.5415017  43.8529987  79.9995006  60.1825017
  43.0099987  81.5455006  60.0685017  40.1149987  84.0245006  60.6355017
  41.4339987  86.0295006  61.3665017  41.6709987  83.2605006  65.4285017
  42.6009987  84.0205006  65.9565017  42.4929987  85.1795006  66.3075017
  43.8549987  83.1785006  66.0905017  43.5809987  82.2415006  66.5645017
  44.2319987  82.9145006  65.1055017  44.9119987  83.9445006  66.8995017
  45.8439987  83.4095006  66.7555017  45.0389987  84.9055006  66.4105017
  44.6789987  84.1505006  68.3995017  43.6289987  84.3605006  68.5885017
  44.9019987  83.2235006  68.9225017  45.5389987  85.2485006  68.9785017
  46.5869987  85.0415006  68.7715017  45.3219987  86.2085006  68.5155017
  45.3639987  85.3795006  70.4965017  44.3279987  85.1765006  70.7605017
  45.9569987  84.6075006  70.9825017  45.7709987  86.7285006  71.0575017
  46.8159987  86.9285006  70.8275017  45.1979987  87.5325006  70.6035017
  45.5589987  86.7805006  72.6445017  46.0859987  87.6735006  72.9605017
  44.4969987  86.9905006  72.7685017  45.9399987  85.5395006  73.5545017
  46.1609987  84.6875006  72.9295017  46.0409987  85.3715006  74.8545017
  46.3269987  84.4385006  75.3175017  45.7639987  86.4995006  75.8455017
  46.3419987  86.3435006  76.7545017  46.0459987  87.4765006  75.4705017
  44.4079987  86.5065006  76.1855017  44.0579987  87.3345006  76.8015017
  43.7059987  86.4275006  75.3575017  44.3719987  85.2375006  76.9855017
  44.6399987  84.3725006  76.3795017  45.0729987  85.2555006  77.8155017
  43.0229987  85.0655006  77.4945017  42.3489987  84.7895006  76.6875017
  42.9839987  84.2515006  78.2155017  42.5469987  86.3305006  78.1495017
  42.9669987  87.1985006  77.6445017  41.4679987  86.4325006  78.0665017
  42.9579987  86.3915006  79.5855017  43.1109987  85.3995006  80.0075017
  43.8989987  86.9225006  79.7135017  41.8479987  87.1295006  80.4305017
  41.9449987  88.2025006  80.5735017  40.8249987  86.9665006  80.0985017
  42.0529987  86.4065006  81.7895017  41.3029987  86.7195006  82.5095017
  43.0259987  86.6195006  82.2195017  41.9719987  85.3295006  81.6745017
  80.7519987  41.3805006  81.3235017  80.5649987  41.1665006  82.3715017
  80.9559987  42.4435006  81.2335017  81.6529987  40.8475006  81.0335017
  79.7389987  41.0295006  80.5795017  78.8059987  41.5595006  80.7625017
  79.4929987  39.9705006  80.5795017  80.2159987  41.3845006  79.4035017
  81.1689987  40.8855006  79.2295017  80.4329987  42.4505006  79.4185017
  79.3209987  41.1115006  78.2885017  78.3499987  41.5005006  78.5885017
  79.2109987  40.0295006  78.2405017  79.6509987  41.6435006  76.9095017
  78.9139987  41.2565006  76.2105017  80.6069987  41.2145006  76.6155017
  79.7149987  43.1305006  76.7715017  80.6059987  43.5805006  77.2055017
  78.8669987  43.6555006  77.2055017  79.7239987  43.3475006  75.2775017
  79.7449987  44.4245006  75.1245017  78.7559987  43.0065006  74.9125017
  80.8929987  42.6635006  74.4045017  80.8239987  41.6045006  74.6515017
  81.8129987  43.0225006  74.8625017  80.9949987  42.8305006  72.8085017
  81.8949987  42.2785006  72.5455017  81.2339987  43.8845006  72.6705017
  79.8329987  42.4295006  71.8275017  78.9219987  42.8595006  72.2375017
  79.7189987  41.3485006  71.8995017  79.9889987  42.8405006  70.2885017
  80.6069987  42.1015006  69.7835017  80.5239987  43.7855006  70.2105017
  78.6209987  42.9535006  69.5175017  78.5779987  43.6995006  68.7275017
  77.7489987  43.1255006  70.1455017  78.5299987  41.6345006  68.9565017
  77.6189987  41.5235006  68.3715017  78.4989987  40.8595006  69.7165017
  79.6829987  41.3855006  68.0585017  80.6159987  41.2405006  68.5935017
  79.8419987  42.2105006  67.3685017  79.3629987  40.1145006  67.2405017
  78.4179987  40.2245006  66.7235017  79.3039987  39.2505006  67.8925017
  80.4089987  39.1185006  66.6735017  81.4299987  38.7865006  67.2295017
  80.0839987  38.7415006  65.4685017  80.9919987  37.8325006  64.7615017
  81.0859987  36.9805006  65.4155017  81.9739987  38.2245006  64.5435017
  80.2679987  37.4425006  63.4875017  80.8799987  36.6645006  63.0625017
  80.0469987  38.5985006  62.4415017  80.9579987  39.1705006  62.3245017
  79.2759987  39.2585006  62.8235017  79.6529987  38.0325006  61.2185017
  78.1809987  37.7155006  60.9525017  77.3129987  38.5545006  61.8345017
  75.9349987  38.8235006  61.7045017  75.3069987  38.7785006  62.5875017
  75.5339987  38.1365006  60.9765017  75.9009987  40.1125006  61.1335017
  74.8349987  40.2695006  61.0685017  76.5429987  40.5455006  59.7705017
  77.3419987  41.1105006  60.0625017  76.8109987  39.7405006  59.1665017
  75.9289987  41.1425006  59.2465017  76.5509987  40.7975006  62.4575017
  77.9769987  38.1255006  59.5595017  77.8459987  36.3315006  61.3305017
  79.0209987  36.8605006  63.8495017  78.8439987  36.0875006  64.8905017
  79.7039987  35.6255006  65.6295017  77.6599987  41.2225006  62.0815017
  76.0219987  40.9855006  63.5985017  77.3419987  35.7865006  64.9745017
  76.9819987  35.6335006  63.9625017  77.1899987  34.8415006  65.4905017
  76.5929987  36.9385006  65.6875017  76.8589987  37.8755006  65.2105017
  75.5239987  36.8195006  65.5415017  76.9059987  37.0315006  67.1825017
  76.6719987  36.1125006  67.7135017  77.9639987  37.2175006  67.3515017
  76.1099987  38.1895006  67.7675017  76.6659987  38.6355006  68.5895017
  75.9669987  38.9795006  67.0345017  74.8189987  37.7745006  68.2645017
  74.3439987  37.3825006  67.3675017  75.0849987  36.9095006  68.8685017
  73.8159987  38.6205006  69.0395017  73.7359987  39.5885006  68.5475017
  72.8329987  38.1615006  68.9755017  74.1669987  38.8325006  70.5315017
  73.4919987  39.6285006  70.8215017  73.7869987  37.9235006  70.9955017
  75.5679987  39.0895006  71.0465017  75.8909987  40.0535006  70.6835017
  76.4349987  38.4025006  71.8295017  77.3639987  38.9315006  71.9875017
  76.3679987  37.1415006  72.4805017  75.6459987  36.5345006  71.9365017
  77.3179987  36.6255006  72.4015017  75.9479987  37.1945006  73.9185017
  74.9659987  37.6545006  73.8115017  75.7689987  36.1355006  74.0935017
  76.6229987  37.7585006  75.0665017  77.4839987  37.1195006  75.2615017
  77.0229987  38.7195006  74.7555017  75.8359987  37.9305006  76.3365017
  75.0519987  38.6415006  76.0875017  75.3389987  36.9765006  76.5055017
  76.5089987  38.3415006  77.5555017  77.3229987  37.6515006  77.7695017
  76.9729987  39.3145006  77.4185017  75.5859987  38.3695006  78.7695017
  74.5719987  38.7055006  78.5595017  75.4879987  37.4135006  79.2815017
  76.2279987  39.3485006  79.7085017  77.2629987  39.0835006  79.9125017
  76.2609987  40.3285006  79.2365017  75.4779987  39.4615006  81.0015017
  75.9069987  40.2365006  81.6295017  75.5019987  38.5355006  81.5665017
  74.4359987  39.7155006  80.8275017  63.3109987  91.7625006  80.0905017
  63.6159987  91.7605006  81.1325017  62.4449987  92.4115006  80.0005017
  64.1159987  92.2065006  79.5115017  62.9879987  90.3105006  79.5885017
  62.2289987  89.9545006  80.2835017  63.8939987  89.7555006  79.8145017
  62.5209987  90.0085006  78.1115017  62.9349987  90.8575006  77.5685017
  61.4499987  90.1895006  78.1825017  62.7639987  88.6155006  77.2245017
  62.1069987  87.9995006  77.8345017  63.7729987  88.4375006  77.5945017
  62.6599987  88.1155006  75.6825017  62.8549987  89.1235006  75.3255017
  61.5789987  88.0295006  75.7795017  63.0989987  87.2255006  74.7515017
  64.0639987  86.7295006  74.8345017  62.9189987  87.3645006  73.6875017
  62.0759987  86.3705006  75.2995017  61.0589987  86.4795006  74.9265017
  61.9959987  86.2935006  76.3825017  62.5749987  85.3065006  74.8425017
  61.9329987  84.5185006  75.2355017  63.5269987  85.2105006  75.3615017
  62.7889987  85.0845006  73.3715017  63.8069987  85.3975006  73.1505017
  62.1359987  85.7825006  72.8485017  62.5599987  83.6605006  72.8185017
  61.5829987  83.3725006  73.2005017  63.2869987  83.0365006  73.3385017
  62.6339987  83.3985006  71.4165017  62.2659987  82.3955006  71.2095017
  63.6689987  83.4165006  71.0785017  61.8659987  84.3315006  70.6405017
  62.4169987  84.8965006  69.8935017  61.3039987  85.0615006  71.2205017
  60.9849987  83.4855006  70.0335017  60.3809987  83.0805006  70.8435017
  61.5749987  82.6575006  69.6505017  59.9549987  84.0145006  68.8415017
  60.6569987  84.4995006  68.1715017  59.4379987  84.8045006  69.3795017
  58.7949987  83.1325006  67.9095017  58.1029987  82.6125006  68.5595017
  59.2919987  82.4055006  67.2785017  58.6639987  83.1885006  66.4675017
  58.4989987  82.2865006  65.6305017  58.7909987  84.4035006  66.3615017
  58.2499987  84.7795006  65.1685017  57.3509987  84.1905006  65.0965017
  58.8879987  84.5475006  64.3275017  57.9119987  86.2495006  65.2025017
  57.2659987  86.5095006  66.0265017  57.1849987  86.4915006  63.8715017
  56.6909987  87.4525006  63.9005017  56.4349987  85.7255006  63.7375017
  58.1199987  86.4195006  62.7955017  57.6279987  87.0335006  61.4125017
  57.8029987  88.6045006  61.6875017  59.1289987  89.0075006  62.0305017
  59.5869987  88.1465006  62.4995017  59.1089987  89.8235006  62.7415017
  59.9519987  89.4375006  60.8165017  60.8419987  89.9585006  61.1335017
  60.2339987  88.5725006  60.2325017  59.1939987  90.4045006  59.9565017
  58.2609987  90.0845006  59.7565017  59.1329987  91.3195006  60.5475017
  59.6659987  90.5895006  59.0875017  58.5489987  86.7365006  60.3085017
  56.1889987  86.7255006  61.2475017  59.1079987  87.0045006  65.4035017
  58.9039987  88.2945006  65.3875017  57.8549987  88.8885006  65.2405017
  60.1799987  88.9765006  65.6095017  60.8669987  88.2355006  66.0055017
  60.5879987  89.2765006  64.6475017  60.0369987  90.1485006  66.5205017
  60.9829987  90.5735006  66.8365017  59.4599987  90.9715006  66.1105017
  59.3099987  89.5595006  67.7515017  59.0599987  90.3935006  68.4025017
  58.3649987  89.1675006  67.3845017  59.9859987  88.5095006  68.5175017
  59.8119987  87.5355006  68.0645017  61.0649987  88.6455006  68.5405017
  59.4369987  88.4715006  70.0235017  59.3259987  89.4985006  70.3645017
  58.4329987  88.0535006  69.9875017  60.2629987  87.6785006  71.0525017
  60.4419987  86.6875006  70.6385017  61.2369987  88.1485006  71.1565017
  59.6419987  87.5415006  72.4285017  60.2979987  87.2925006  73.2545017
  59.0299987  88.3775006  72.7645017  58.7529987  86.4105006  72.0945017
  58.9979987  85.8845006  71.1835017  57.7159987  85.9705006  72.7825017
  57.1619987  85.1245006  72.4025017  57.1919987  86.5125006  74.0735017
  57.1269987  87.5955006  73.9875017  56.1849987  86.1625006  74.2705017
  58.0879987  86.1795006  75.2675017  58.1979987  85.0985006  75.3385017
  59.0829987  86.5735006  75.0705017  57.5869987  86.7265006  76.5955017
  57.1679987  87.7165006  76.4155017  56.7629987  86.1055006  76.9345017
  58.6459987  86.8195006  77.7025017  59.5779987  87.1395006  77.2425017
  58.3559987  87.6145006  78.3875017  58.8629987  85.5675006  78.4705017
  57.9219987  85.4195006  78.9965017  58.9009987  84.7945006  77.7085017
  59.9929987  85.3705006  79.4695017  59.8979987  84.4495006  80.0415017
  60.9719987  85.3305006  78.9955017  59.9729987  86.5065006  80.4045017
  59.9739987  87.4395006  79.8475017  59.0229987  86.4795006  80.9345017
  61.0759987  86.5245006  81.4015017  60.9439987  87.3385006  82.1075017
  62.0449987  86.6555006  80.9315017  61.1059987  85.5975006  81.9675017
  35.9569987  67.3145006  78.7815017  35.5169987  66.8475006  79.6575017
  36.2069987  68.3385006  79.0425017  36.8859987  66.7955006  78.5615017
  34.9239987  67.2605006  77.4885017  34.0019987  67.7555006  77.7885017
  34.6709987  66.2165006  77.3265017  35.5089987  67.9825006  75.9905017
  36.0559987  67.1565006  75.5365017  36.2619987  68.6765006  76.3585017
  34.2209987  69.0845006  74.3195017  33.2519987  68.6035006  74.4315017
  34.6479987  68.6905006  73.3985017  34.0299987  70.4155006  74.1905017
  34.9139987  71.0105006  74.4035017  33.2409987  70.7985006  74.8355017
  33.6679987  70.6065006  72.8595017  32.7619987  70.1225006  72.4995017
  34.4239987  70.4465006  72.0935017  33.4229987  72.0495006  73.0055017
  34.2129987  72.5475006  73.5655017  32.4949987  72.2585006  73.5365017
  33.3489987  72.6255006  71.6555017  34.3199987  72.5925006  71.1635017
  33.0629987  73.6755006  71.6925017  32.3319987  71.8565006  70.8155017
  31.3349987  72.0565006  71.2035017  32.5019987  70.7885006  70.9505017
  32.3709987  72.1875006  69.3285017  32.1529987  73.2435006  69.1885017
  31.5819987  71.6415006  68.8115017  33.7119987  71.8445006  68.6975017
  33.9609987  70.8215006  68.9715017  34.4799987  72.4725006  69.1455017
  33.7829987  71.9645006  67.2055017  33.8359987  72.9925006  66.8565017
  32.9249987  71.5185006  66.7065017  35.0509987  71.1955006  66.7855017
  35.0749987  70.2265006  67.2805017  35.9519987  71.7175006  67.0955017
  35.1059987  70.9665006  65.3485017  34.8389987  71.8125006  64.7235017
  34.5129987  70.1225006  65.0055017  36.6319987  70.6265006  65.1375017
  36.9289987  69.8055006  65.7765017  37.2459987  71.4885006  65.3705017
  36.8229987  69.1965006  65.0415017  37.7049987  68.6125006  65.6095017
  35.8239987  68.7425006  64.3145017  35.4799987  67.4435006  64.5455017
  35.5949987  67.2935006  65.6085017  36.1799987  66.8085006  64.0215017
  33.9919987  67.1305006  64.1055017  33.8799987  66.1605006  64.5605017
  33.8049987  67.0245006  62.6445017  33.0539987  66.2855006  62.3985017
  34.7409987  66.7355006  62.1835017  33.4059987  68.3075006  62.1905017
  33.1539987  68.3245006  60.7145017  32.8809987  69.7675006  60.3825017
  33.2829987  70.6795006  61.3425017  33.4939987  71.6505006  60.9135017
  34.2069987  70.3385006  61.8005017  32.3219987  70.7885006  62.4475017
  32.6949987  71.6095006  63.0465017  32.3059987  69.8945006  63.0545017
  30.8719987  71.1185006  62.1535017  30.2619987  70.0805006  61.2755017
  30.9029987  69.9345006  60.4165017  29.2969987  70.4425006  60.9525017
  30.1359987  69.1705006  61.8435017  30.1319987  71.1235006  63.4425017
  30.6729987  71.7375006  64.1455017  30.0359987  70.1125006  63.7965017
  29.1569987  71.5475006  63.2535017  30.7329987  72.4755006  61.5455017
  31.1469987  73.2105006  62.2185017  29.6869987  72.6845006  61.3805017
  31.2599987  72.5045006  60.6025017  34.5109987  68.2255006  60.5365017
  32.2049987  67.3255006  60.2045017  32.9239987  68.0375006  64.4575017
  32.9389987  68.4405006  65.6315017  33.9209987  68.5535006  66.3225017
  31.5599987  68.9335006  66.0425017  31.6709987  70.0115006  65.9805017
  30.9179987  68.6525006  65.2115017  30.9499987  68.4925006  67.3915017
  31.0629987  67.4215006  67.5165017  31.4819987  68.9485006  68.2205017
  29.4909987  68.8455006  67.4645017  29.2729987  69.9085006  67.5355017
  28.9069987  68.4715006  66.6275017  29.0389987  68.1405006  68.7195017
  27.9679987  67.9565006  68.6585017  29.5099987  67.1645006  68.8045017
  29.3129987  68.9205006  69.9705017  30.3379987  68.7085006  70.2685017
  29.2889987  69.9725006  69.6935017  28.4349987  68.7205006  71.0995017
  27.3749987  68.6495006  70.8615017  28.6609987  67.8795006  71.7485017
  28.6919987  70.0065006  71.8645017  28.8449987  70.8005006  71.1435017
  27.7789987  70.2545006  72.4045017  29.8209987  69.9405006  72.8395017
  30.5989987  70.4255006  72.2695017  30.1439987  69.5145006  74.0955017
  31.1769987  69.7475006  74.3095017  29.4439987  68.8405006  75.1915017
  29.4629987  69.5645006  76.0045017  28.4059987  68.7475006  74.8915017
  29.9389987  67.4965006  75.7345017  29.9869987  66.8745006  74.8415017
  30.9699987  67.7175006  76.0065017  29.2849987  66.7215006  76.8545017
  29.5839987  67.3585006  77.6865017  28.2479987  66.9665006  76.6425017
  29.3809987  65.3235006  77.2605017  28.7919987  65.0075006  78.1195017
  29.2389987  64.5605006  76.4975017  30.7249987  65.3835006  77.6035017
  31.2499987  64.4535006  77.3925017  31.2729987  66.1595006  77.0755017
  30.7879987  65.6155006  79.0285017  30.9199987  66.6145006  79.4395017
  30.1319987  65.0895006  79.7195017  32.0399987  64.9655006  79.0185017
  32.2339987  64.1715006  78.3015017  32.9259987  65.5965006  79.0095017
  31.8999987  64.4325006  80.2515017  32.8069987  63.9185006  80.5545017
  31.0889987  63.7125006  80.2925017  31.6949987  65.2035006  80.9895017
  42.7519987  26.7985006  80.5395017  42.1349987  27.2965006  81.2805017
  43.6889987  26.5265006  81.0165017  42.2489987  25.8785006  80.2545017
  42.9659987  27.6025006  79.4475017  43.5609987  28.5065006  79.5665017
  42.1219987  27.8735006  78.8195017  43.7159987  26.6515006  78.8365017
  44.5149987  26.3605006  79.5175017  44.2029987  27.1185006  77.9825017
  42.9079987  25.2675006  78.3015017  42.1709987  25.6845006  77.6185017
  42.3569987  24.9575006  79.1875017  43.6239987  23.8845006  77.5615017
  42.7609987  23.2245006  77.5175017  44.2339987  23.5355006  78.3935017
  44.4729987  23.7385006  76.1735017  44.4189987  22.7235006  75.7845017
  45.5289987  23.9465006  76.3345017  43.5809987  25.3075006  74.4865017
  42.7129987  25.8145006  74.9035017  43.2179987  24.7355006  73.6335017
  44.7899987  26.5565006  73.9075017  45.7769987  26.1745006  73.6495017
  44.9559987  27.3995006  74.5755017  44.1629987  26.9985006  72.7685017
  43.1619987  27.3505006  73.0085017  44.0339987  26.1725006  72.0705017
  44.9129987  28.0755006  72.1105017  45.0389987  28.8835006  72.8275017
  44.2989987  28.4765006  71.3045017  46.2689987  27.6605006  71.5485017
  46.1369987  26.9445006  70.7405017  46.8659987  27.1555006  72.3055017
  47.0349987  28.8355006  71.0175017  48.0809987  28.5785006  70.8675017
  47.0229987  29.6505006  71.7395017  46.4339987  29.3235006  69.7345017
  45.5719987  29.9765006  69.8625017  46.1339987  28.5605006  69.0215017
  47.5599987  30.1465006  69.1345017  48.5079987  29.7765006  69.5105017
  47.4559987  31.1675006  69.4935017  47.5989987  30.1695006  67.6125017
  46.6499987  30.5045006  67.2145017  47.8089987  29.1795006  67.2255017
  48.7589987  31.0625006  66.9215017  49.7929987  31.3065006  67.5125017
  48.3749987  31.8085006  65.7715017  49.1149987  32.6555006  64.9175017
  50.0019987  33.0965006  65.3405017  48.5599987  33.4205006  64.3935017
  49.4819987  31.5275006  63.9935017  50.1019987  31.8325006  63.1655017
  48.1499987  30.8805006  63.4575017  47.5969987  31.6775006  62.9805017
  47.6029987  30.5595006  64.3315017  48.3179987  29.7685006  62.5805017
  48.4629987  29.9605006  61.0165017  47.3799987  28.9455006  60.4775017
  47.2889987  27.5825006  60.8055017  48.3119987  27.2365006  60.8835017
  46.7949987  27.0375006  60.0115017  46.5479987  27.3145006  62.1155017
  46.2089987  26.2915006  62.1755017  47.1659987  27.5375006  62.9745017
  45.3119987  28.1595006  62.1485017  45.5019987  29.1195006  61.9145017
  44.6589987  27.7345006  61.3845017  44.8559987  28.1285006  63.0445017
  47.9699987  31.3025006  60.6585017  49.8329987  29.5635006  60.6215017
  50.2269987  30.5725006  64.7875017  51.0529987  29.8145006  64.1765017
  51.4459987  29.9515006  63.0325017  51.6279987  28.7575006  65.1715017
  52.3289987  28.1595006  64.5995017  52.2229987  29.2855006  65.9125017
  50.5339987  27.8815006  65.8515017  49.9229987  28.6125006  66.3695017
  49.9369987  27.5295006  65.0165017  50.8399987  26.7075006  66.8095017
  49.8989987  26.2795006  67.1455017  51.3369987  25.9325006  66.2315017
  51.7169987  27.0565006  68.0135017  52.4609987  26.2815006  68.1885017
  52.2699987  27.9825006  67.8745017  50.8749987  27.1795006  69.2305017
  50.2379987  28.0535006  69.1125017  50.2089987  26.3195006  69.2495017
  51.5999987  27.2615006  70.5615017  50.9169987  26.9685006  71.3565017
  52.4209987  26.5505006  70.5855017  52.1539987  28.6625006  70.8595017
  52.6819987  28.9745006  69.9655017  51.2849987  29.3135006  70.9455017
  53.0109987  28.8395006  72.0855017  53.9009987  28.2285006  72.0945017
  52.8159987  29.6555006  73.1415017  53.5319987  29.6745006  73.9505017
  51.6659987  30.5865006  73.3255017  52.0449987  31.5915006  73.5015017
  51.0389987  30.6485006  72.4425017  50.8009987  30.1745006  74.5435017
  51.4279987  30.2495006  75.4315017  50.0269987  30.9315006  74.6535017
  50.1369987  28.7675006  74.4945017  49.6459987  28.6535006  73.5285017
  50.9149987  28.0105006  74.5305017  49.1099987  28.5055006  75.6225017
  48.8119987  27.4605006  75.5645017  49.6139987  28.6255006  76.5805017
  47.8679987  29.4075006  75.5875017  48.2039987  30.4425006  75.6045017
  47.3689987  29.2725006  74.6315017  46.8589987  29.2175006  76.7415017
  45.9139987  29.6835006  76.4675017  46.6499987  28.1555006  76.8555017
  47.3009987  29.7745006  78.1005017  48.3309987  29.4915006  78.3055017
  47.2999987  30.8605006  78.0355017  46.4159987  29.3525006  79.2705017
  46.7259987  29.8465006  80.1865017  46.4599987  28.2835006  79.4475017
  45.3769987  29.6145006  79.0885017  87.8869987  50.5045006  83.2475017
  88.8839987  50.4415006  83.6725017  87.2589987  49.7875006  83.7685017
  87.4989987  51.4975006  83.4605017  87.9059987  50.2405006  81.7855017
  88.3399987  49.2545006  81.6315017  88.5939987  50.9505006  81.3345017
  86.4079987  50.3145006  81.0135017  85.5969987  50.7085006  81.6255017
  86.0599987  49.3555006  80.6335017  86.6299987  51.1895006  79.9025017
  87.3349987  50.6815006  79.2485017  87.1519987  52.0655006  80.2845017
  85.4679987  51.6235006  79.0995017  85.5029987  52.6075006  78.6385017
  84.4839987  51.5355006  79.5575017  85.6009987  50.6515006  78.1035017
  85.2749987  49.7315006  78.5845017  86.6759987  50.5585006  77.9635017
  84.8599987  50.7855006  76.6085017  85.0149987  51.8325006  76.3565017
  83.8039987  50.6855006  76.8545017  85.2189987  49.8095006  75.2315017
  84.7499987  48.8435006  75.4105017  86.2929987  49.6335006  75.2505017
  84.8609987  50.2605006  73.9995017  85.5639987  50.9985006  73.6195017
  83.8869987  50.7485006  74.0145017  84.8119987  49.0485006  73.0295017
  84.1529987  49.4195006  72.2475017  84.2309987  48.3235006  73.5995017
  85.9299987  48.3985006  72.4525017  86.5249987  47.9205006  73.2285017
  86.5879987  49.1175006  71.9675017  85.5179987  47.3415006  71.4485017
  84.7869987  47.6435006  70.7015017  85.1499987  46.4095006  71.8745017
  86.8479987  47.0795006  70.7955017  87.4499987  46.5675006  71.5435017
  87.3209987  48.0445006  70.6325017  86.9109987  46.2905006  69.5375017
  86.1529987  46.6315006  68.8405017  86.6889987  45.2495006  69.7585017
  88.2919987  46.3635006  68.8595017  89.0689987  46.0585006  69.5485017
  88.4969987  47.3745006  68.5295017  88.8699987  45.9895006  67.5195017
  88.7719987  44.8995006  67.2055017  89.7109987  46.6565006  66.7625017
  89.6779987  45.8605006  65.4525017  89.4269987  44.8905006  65.8545017
  90.6539987  45.8105006  64.9925017  88.5979987  46.3155006  64.4225017
  87.7709987  45.6255006  64.4575017  89.1879987  46.3525006  63.0005017
  89.0679987  45.3805006  62.5425017  90.2459987  46.5625006  63.0965017
  88.5589987  47.3455006  62.2225017  89.3999987  48.3145006  61.3215017
  88.2909987  49.0605006  60.4735017  86.9279987  48.6465006  60.4335017
  86.8369987  47.5705006  60.5075017  86.4989987  48.9265006  59.4755017
  86.0549987  49.3485006  61.4885017  86.2909987  49.0815006  62.5105017
  85.0429987  49.0375006  61.2735017  86.0409987  50.8895006  61.4495017
  87.3739987  51.3895006  61.6795017  87.7669987  50.9255006  62.5735017
  87.3089987  52.4575006  61.8225017  87.9829987  51.1755006  60.8135017
  85.5169987  51.4135006  60.1365017  84.5849987  50.9165006  59.9165017
  86.2489987  51.2335006  59.3695017  85.3519987  52.4745006  60.2545017
  85.2809987  51.4025006  62.5905017  84.2759987  51.0085006  62.5545017
  85.2489987  52.4805006  62.5395017  85.7609987  51.0985006  63.5095017
  90.0979987  49.2565006  62.2125017  90.2699987  47.4845006  60.4455017
  88.0769987  47.5385006  64.9325017  86.8159987  47.7385006  64.6415017
  86.0899987  47.0655006  63.9365017  86.3719987  49.0125006  65.3505017
  86.9099987  49.8235006  64.8705017  85.3219987  49.1735006  65.1185017
  86.6079987  48.9875006  66.8885017  86.1309987  48.1115006  67.3135017
  87.6669987  48.8865006  67.1035017  86.0529987  50.2465006  67.5755017
  86.2439987  51.0895006  66.9165017  84.9729987  50.1285006  67.6125017
  86.5639987  50.5615006  69.0005017  86.1749987  51.5345006  69.2945017
  86.1549987  49.8435006  69.7075017  88.0979987  50.5875006  69.1495017
  88.4809987  49.6245006  68.8185017  88.4749987  51.3225006  68.4415017
  88.6689987  50.9135006  70.5545017  88.3629987  51.9205006  70.8335017
  88.2369987  50.2465006  71.2945017  90.2019987  50.8075006  70.6315017
  90.6469987  51.4105006  69.8485017  90.5379987  51.2345006  71.5755017
  90.6759987  49.3785006  70.5535017  90.7919987  48.9685006  69.5615017
  90.9789987  48.5735006  71.5885017  91.3119987  47.5635006  71.3995017
  90.9089987  48.9365006  73.0615017  91.6039987  48.2695006  73.5695017
  91.2979987  49.9395006  73.1965017  89.5409987  48.8225006  73.7525017
  88.8109987  49.4415006  73.2325017  89.1829987  47.7975006  73.6715017
  89.5899987  49.2235006  75.2315017  90.0469987  50.2125006  75.2775017
  88.5649987  49.3465006  75.5685017  90.3169987  48.2985006  76.1675017
  91.3779987  48.3575006  75.9335017  90.2079987  48.6825006  77.1805017
  89.8539987  46.8415006  76.1285017  89.4019987  46.5815006  75.1735017
  90.6639987  46.1325006  76.2765017  88.8189987  46.6625006  77.1895017
  88.9039987  45.7085006  77.7065017  88.8719987  47.4295006  77.9605017
  87.5129987  46.7315006  76.5615017  87.1709987  47.7465006  76.3765017
  87.5159987  46.2395006  75.5915017  86.5099987  46.0135006  77.4765017
  85.5309987  45.9605006  77.0085017  86.3889987  46.5245006  78.4255017
  86.8319987  44.9975006  77.6875017  81.6519987  60.2315006  77.2945017
  81.3569987  59.4245006  77.9585017  81.1029987  60.1125006  76.3645017
  81.3329987  61.1655006  77.7485017  83.1399987  60.2265006  77.0535017
  83.4549987  59.2835006  76.6095017  83.6769987  60.3155006  77.9935017
  83.5249987  61.3815006  76.1125017  83.1179987  62.3055006  76.5235017
  83.0099987  61.2205006  75.1675017  84.9879987  61.5665006  75.8315017
  85.2069987  60.9095006  74.9925017  85.5159987  61.1495006  76.6875017
  85.5469987  62.9625006  75.5205017  86.6199987  62.9685006  75.6955017
  85.1179987  63.6725006  76.2265017  85.2769987  63.4385006  74.1075017
  85.5799987  64.4775006  73.9885017  84.2119987  63.4055006  73.8885017
  86.0369987  62.5635006  73.0805017  85.7579987  61.5375006  73.3125017
  87.0899987  62.6595006  73.3425017  85.8649987  62.8075006  71.5735017
  86.2379987  61.9135006  71.0745017  86.5519987  63.6105006  71.3125017
  84.4749987  63.1405006  71.0375017  84.4929987  63.3385006  69.9675017
  84.0669987  64.0355006  71.5045017  83.5529987  61.9645006  71.3165017
  83.5659987  61.6925006  72.3695017  83.8609987  61.0755006  70.7675017
  82.1459987  62.3475006  70.8965017  82.1689987  62.7285006  69.8775017
  81.7849987  63.1665006  71.5165017  81.1519987  61.1965006  70.9555017
  81.0059987  60.9115006  71.9945017  81.5959987  60.3335006  70.4635017
  79.7909987  61.4975006  70.2905017  79.1659987  61.9895006  71.0335017
  79.2989987  60.5585006  70.0535017  79.8179987  62.3865006  69.0255017
  80.2669987  63.3425006  69.2725017  78.7899987  62.5875006  68.7345017
  80.5489987  61.7825006  67.8345017  80.1379987  60.8105006  67.5905017
  81.6029987  61.6685006  68.0565017  79.9569987  62.0425006  66.4855017
  79.0939987  61.4195006  65.8855017  80.3889987  63.2235006  66.2865017
  79.7149987  64.0105006  65.3255017  79.0949987  64.7215006  65.8455017
  79.0869987  63.3835006  64.7095017  80.7769987  64.7475006  64.4685017
  80.2719987  65.4725006  63.8505017  81.5279987  63.7255006  63.5765017
  80.9319987  63.5525006  62.6905017  81.5989987  62.7995006  64.1285017
  82.8419987  64.1665006  63.2405017  83.0739987  65.1175006  62.0125017
  81.7029987  64.8935006  61.2165017  81.5269987  65.3365006  59.8845017
  81.0959987  64.5285006  59.3065017  82.4449987  65.6565006  59.4085017
  80.5619987  66.5185006  59.9245017  80.9099987  67.2615006  60.6255017
  80.4779987  66.9645006  58.9425017  79.1979987  66.0985006  60.4105017
  78.8599987  65.2785006  59.9345017  79.3359987  65.8595006  61.4655017
  78.5179987  66.8325006  60.3125017  83.0639987  66.5375006  62.4255017
  84.1609987  64.5595006  61.1955017  81.7509987  65.4195006  65.2985017
  81.5299987  66.6745006  65.5685017  80.5039987  67.2915006  65.3185017
  82.7009987  67.2435006  66.3475017  83.4419987  66.4735006  66.5385017
  83.2209987  68.0275006  65.8035017  82.0909987  67.7825006  67.6385017
  82.6389987  68.6695006  67.9355017  81.0739987  68.1085006  67.4445017
  82.1029987  66.7935006  68.7735017  81.3409987  66.0325006  68.6265017
  83.0549987  66.2695006  68.7875017  81.9049987  67.4785006  70.1235017
  82.0369987  66.7265006  70.8985017  82.6939987  68.2115006  70.2735017
  80.5979987  68.1345006  70.3305017  80.4449987  68.6215006  71.2915017
  80.3169987  68.8635006  69.5725017  79.6829987  66.9525006  70.2215017
  78.7289987  67.4645006  70.1035017  79.9509987  66.5725006  69.2395017
  79.5079987  65.7775006  71.1645017  78.9159987  65.0525006  70.6185017
  80.5019987  65.3445006  71.2715017  78.9299987  66.0225006  72.5575017
  78.0789987  66.6865006  72.5765017  79.3259987  65.5255006  73.7055017
  78.8179987  65.7905006  74.6215017  80.4669987  64.5745006  73.8935017
  80.0859987  63.6275006  74.2735017  80.9749987  64.3455006  72.9635017
  81.4849987  65.1275006  74.9095017  82.1899987  64.3495006  75.1985017
  82.0759987  65.9135006  74.4435017  80.7909987  65.6935006  76.1755017
  80.5249987  66.7265006  75.9495017  79.8529987  65.1575006  76.2925017
  81.5649987  65.6505006  77.4835017  80.9579987  65.9805006  78.3235017
  81.9059987  64.6465006  77.7295017  82.7609987  66.5575006  77.3245017
  83.5519987  66.0535006  76.7715017  82.5129987  67.4435006  76.7465017
  83.2949987  66.9415006  78.6155017  83.6619987  67.9655006  78.6655017
  82.5939987  66.8315006  79.4405017  84.4709987  65.9915006  78.8485017
  84.1259987  64.9745006  78.6765017  85.1889987  66.1975006  78.0575017
  85.1119987  66.0565006  80.0505017  85.9769987  65.4005006  80.0615017
  84.4669987  65.7585006  80.8705017  85.4589987  67.0655006  80.2535017
  60.1059987  77.1365006  80.2305017  60.9959987  76.5255006  80.1155017
  59.6779987  77.2875006  79.2435017  59.3889987  76.5685006  80.8165017
  60.4309987  78.4675006  80.9005017  61.1829987  78.9655006  80.2905017
  60.9089987  78.2395006  81.8495017  59.2499987  79.4195006  81.1205017
  58.5829987  79.0485006  81.8985017  58.6469987  79.4935006  80.2175017
  59.7379987  80.8305006  81.4995017  60.5529987  80.7685006  82.2175017
  58.9499987  81.4025006  81.9865017  60.2299987  81.5925006  80.2655017
  61.1319987  81.1345006  79.8675017  60.5009987  82.6095006  80.5445017
  59.1609987  81.6375006  79.1555017  58.1739987  81.6005006  79.6125017
  59.2469987  80.7425006  78.5435017  59.2539987  82.8355006  78.2855017
  60.3109987  82.9165006  78.0395017  59.0309987  83.6735006  78.9445017
  58.4149987  82.9675006  76.9885017  58.5889987  83.9355006  76.5205017
  57.3519987  82.9275006  77.2175017  58.7529987  81.8735006  76.0075017
  58.3019987  80.9455006  76.3515017  59.8299987  81.7115006  76.0215017
  58.3049987  82.1525006  74.5755017  58.4349987  83.2175006  74.3935017
  57.2339987  81.9615006  74.5185017  59.0099987  81.3545006  73.5025017
  58.2729987  80.8815006  72.8575017  59.5839987  80.5455006  73.9495017
  59.8889987  82.1665006  72.6745017  60.5579987  82.8175006  73.2315017
  59.3599987  82.8055006  71.9695017  60.7099987  81.1125006  71.8725017
  60.8579987  80.2815006  72.5605017  61.6909987  81.5475006  71.7065017
  60.1779987  80.5355006  70.5325017  59.2679987  80.0315006  70.8415017
  60.9109987  79.7615006  70.3235017  59.9129987  81.3005006  69.2625017
  60.7989987  81.8395006  68.9525017  59.1079987  82.0105006  69.4105017
  61.2559987  81.8785006  68.0725017  62.3499987  82.4335006  68.2825017
  60.8539987  82.2305006  66.9205017  61.5589987  83.3715006  66.3035017
  62.2329987  83.9595006  66.9075017  60.8969987  84.0345006  65.7655017
  62.3129987  82.5245006  65.3815017  62.9209987  83.0745006  64.6825017
  61.2519987  81.7005006  64.6195017  60.6629987  82.3665006  64.0035017
  60.6039987  81.2485006  65.3605017  61.8589987  80.7095006  63.8305017
  62.0899987  80.8865006  62.2885017  60.6049987  80.8835006  61.7015017
  59.6319987  79.9875006  62.1875017  58.6289987  80.3665006  62.0425017
  59.7619987  79.8625006  63.2585017  59.7809987  78.5695006  61.5925017
  59.0019987  77.9545006  62.0255017  60.7409987  78.1815006  61.9005017
  59.6999987  78.3405006  60.0775017  59.4639987  76.8775006  59.9025017
  60.2049987  76.3375006  60.4755017  59.5749987  76.6455006  58.8535017
  58.4589987  76.6445006  60.2205017  58.5949987  79.1015006  59.4015017
  58.6519987  80.1345006  59.7095017  57.6509987  78.6625006  59.6705017
  58.7539987  79.0235006  58.3355017  61.0059987  78.7505006  59.4535017
  61.1989987  79.7885006  59.6815017  60.9439987  78.6205006  58.3835017
  61.8019987  78.1355006  59.8465017  62.6959987  82.1935006  61.9965017
  62.7739987  79.6835006  61.7445017  63.1349987  81.5785006  66.1145017
  64.2379987  82.1175006  66.4655017  64.5969987  83.2515006  66.1975017
  64.9289987  81.1485006  67.3855017  64.2539987  80.9125006  68.2015017
  65.1129987  80.2085006  66.8715017  66.2289987  81.7655006  67.8825017
  66.9469987  81.0165006  67.5655017  66.3439987  82.6005006  67.1985017
  66.5589987  82.2025006  69.2795017  67.6269987  82.0895006  69.4495017
  66.3499987  83.2665006  69.3625017  65.7499987  81.4425006  70.3995017
  64.6869987  81.6255006  70.2535017  65.8889987  80.3675006  70.3095017
  66.1279987  81.8795006  71.8475017  66.8829987  81.1865006  72.2135017
  66.6189987  82.8475006  71.7665017  64.9859987  81.9895006  72.8865017
  64.1979987  82.2485006  72.1815017  64.8749987  80.9295006  73.0945017
  64.7599987  82.8315006  74.2925017  65.7619987  82.6075006  74.6395017
  64.8169987  83.7975006  73.7935017  63.8899987  82.9315006  75.3355017
  62.9529987  83.1505006  74.8455017  63.8729987  82.8395006  76.5825017
  63.0519987  83.0085006  77.2645017  65.1449987  82.4375006  77.2495017
  66.0239987  82.9995006  76.9385017  65.1779987  82.3965006  78.3325017
  65.2529987  81.0855006  76.7095017  65.3769987  81.0485006  75.6275017
  66.0819987  80.5195006  77.1295017  63.9499987  80.4165006  77.0915017
  63.1079987  81.0215006  76.7565017  63.8529987  79.4575006  76.5905017
  63.8549987  80.2165006  78.5835017  64.0509987  81.1465006  79.1135017
  62.8559987  79.9025006  78.8805017  64.8669987  79.1485006  79.0095017
  64.8619987  78.3345006  78.2865017  65.8739987  79.5555006  78.9915017
  64.5629987  78.5495006  80.4025017  63.4989987  78.3315006  80.4785017
  65.0749987  77.5935006  80.5015017  64.9649987  79.4435006  81.5895017
  65.9769987  79.8175006  81.4525017  64.3219987  80.3205006  81.5845017
  64.8539987  78.7575006  82.9625017  65.0649987  79.4605006  83.7625017
  65.5519987  77.9335006  83.0615017  63.8539987  78.3635006  83.1225017
  68.4739987  81.5375006  77.7685017  68.8419987  82.3485006  77.1475017
  69.0289987  81.5565006  78.7025017  67.4329987  81.7455006  78.0005017
  68.6219987  80.1855006  77.0635017  69.6869987  80.2615006  76.8495017
  68.1069987  80.4655006  76.1485017  68.2859987  78.7445006  77.4345017
  67.2459987  78.5885006  77.1475017  68.3069987  78.7065006  78.5215017
  69.1489987  77.5785006  76.8855017  69.0769987  76.7075006  77.5325017
  70.2049987  77.8415006  76.8505017  68.6839987  77.1925006  75.5045017
  68.8149987  78.0115006  74.8015017  67.6199987  76.9645006  75.5125017
  69.4509987  75.9845006  75.0005017  69.2269987  75.1105006  75.6085017
  70.5229987  76.1495006  75.0885017  69.1079987  75.6885006  73.5515017
  68.1839987  75.1235006  73.6595017  69.8789987  74.9645006  73.2905017
  68.9539987  76.6925006  72.4135017  69.8399987  77.3265006  72.4005017
  68.1159987  77.3455006  72.6495017  68.7429987  76.0795006  71.0045017
  69.5119987  75.3135006  70.9225017  69.0309987  76.8725006  70.3155017
  67.4109987  75.5015006  70.5725017  66.7219987  76.3345006  70.6935017
  67.1689987  74.7875006  71.3595017  67.2009987  74.8505006  69.2325017
  66.4019987  74.1125006  69.2425017  68.0819987  74.3365006  68.8525017
  66.8199987  75.9455006  68.2835017  67.5369987  76.7505006  68.4255017
  65.8599987  76.3305006  68.6215017  66.7109987  75.5955006  66.8085017
  65.9579987  74.8305006  66.6275017  67.6359987  75.2195006  66.3795017
  66.2899987  76.8595006  66.0565017  67.0449987  77.6335006  66.1495017
  65.3769987  77.2565006  66.4925017  66.0379987  76.5765006  64.5705017
  65.3109987  75.7825006  64.4535017  66.9579987  76.2805006  64.0815017
  65.9849987  77.8665006  63.7765017  65.0419987  78.2615006  63.1195017
  67.1679987  78.4095006  63.8335017  67.3329987  79.5815006  63.0395017
  66.5479987  80.2865006  63.2665017  67.2459987  79.2765006  62.0065017
  68.7059987  80.2085006  63.3135017  68.7709987  81.1105006  62.7285017
  69.8009987  79.2125006  62.8665017  70.7459987  79.7275006  62.7635017
  69.5159987  78.8135006  61.9015017  69.9059987  78.1735006  63.8175017
  70.1839987  76.7075006  63.3995017  69.4159987  76.5895006  62.0245017
  68.5939987  75.4545006  61.8575017  67.7909987  75.4225006  62.5825017
  69.1819987  74.5535006  62.0095017  68.0519987  75.3445006  60.4325017
  67.4969987  76.2655006  60.3075017  67.3869987  74.5115006  60.2555017
  69.0229987  75.3175006  59.3485017  69.2459987  76.7915006  59.1915017
  68.2849987  77.2775006  59.0955017  69.8239987  76.9475006  58.2925017
  69.7989987  77.1555006  60.0445017  70.0319987  74.6835006  60.0925017
  69.6089987  73.8145006  60.5725017  70.4259987  75.3775006  60.8135017
  70.8049987  74.3855006  59.3995017  68.8149987  74.5585006  57.9475017
  68.6419987  73.5095006  58.1335017  69.7029987  74.6775006  57.3445017
  67.9669987  74.9835006  57.4295017  71.5319987  76.6055006  62.9095017
  69.7409987  75.7135006  64.3875017  68.9909987  80.4665006  64.6795017
  68.1339987  80.7105006  65.5845017  66.9329987  80.7855006  65.4415017
  68.9229987  80.9945006  66.8735017  69.9369987  80.8985006  66.4985017
  68.7549987  82.0605006  67.0075017  68.7309987  80.2605006  68.1465017
  67.6849987  80.3115006  68.4265017  68.9509987  79.2085006  67.9965017
  69.5699987  80.8025006  69.2735017  70.6179987  80.7585006  68.9895017
  69.3329987  81.8565006  69.3935017  69.3619987  80.1075006  70.6005017
  68.3349987  80.2145006  70.9445017  69.5579987  79.0385006  70.5565017
  70.2589987  80.7175006  71.6135017  71.2989987  80.7045006  71.2935017
  70.0049987  81.7635006  71.7775017  70.1289987  79.9805006  72.9195017
  69.2809987  80.2455006  73.5495017  70.1659987  78.8945006  72.8955017
  71.3069987  80.4555006  73.5065017  71.3689987  81.5335006  73.4185017
  71.3039987  80.2345006  74.5725017  72.6109987  79.7315006  72.8245017
  73.0249987  80.4235006  72.1075017  73.2379987  78.5455006  72.9665017
  74.1199987  78.3355006  72.3775017  72.8419987  77.4375006  73.8875017
  71.9589987  77.8605006  74.3645017  72.4839987  76.6625006  73.2185017
  73.7439987  76.7875006  75.0075017  73.6029987  75.7075006  74.9855017
  74.7859987  76.9625006  74.7455017  73.5109987  77.2595006  76.2935017
  74.3669987  77.9345006  76.2825017  72.6499987  77.8565006  76.0045017
  73.2949987  76.6925006  77.8025017  72.5789987  75.9055006  77.5745017
  74.2559987  76.1995006  77.9385017  72.8769987  77.4385006  79.1805017
  73.4919987  78.3355006  79.1525017  71.8629987  77.7675006  78.9685017
  72.9519987  76.8765006  80.5525017  73.9539987  76.5815006  80.8585017
  72.5859987  77.5485006  81.3265017  72.0919987  75.6705006  80.5325017
  72.2159987  75.1855006  79.5675017  72.5169987  74.9875006  81.2645017
  70.5939987  75.8415006  80.8295017  70.0969987  74.8775006  80.8705017
  70.0949987  76.4325006  80.0695017  70.4389987  76.3345006  81.7855017
  77.0829987  48.8375006  78.4495017  76.9599987  49.1955006  79.4665017
  77.2369987  47.7635006  78.4925017  76.1499987  49.0155006  77.9215017
  78.2629987  49.5435006  77.7445017  79.1479987  49.3635006  78.3525017
  78.0649987  50.6105006  77.8025017  78.5579987  49.1375006  76.2865017
  79.0809987  48.1815006  76.2725017  79.2439987  49.8615006  75.8515017
  77.3199987  49.0475006  75.3955017  76.7359987  49.9595006  75.4915017
  76.6719987  48.2375006  75.7275017  77.6669987  48.8455006  73.9315017
  76.8349987  48.3785006  73.4105017  78.5039987  48.1535006  73.8525017
  78.0239987  50.1505006  73.2235017  78.7309987  50.7215006  73.8215017
  77.1399987  50.7765006  73.1175017  78.6239987  49.8905006  71.8455017
  78.0339987  49.1345006  71.3295017  79.6229987  49.4725006  71.9575017
  78.6979987  51.1485006  70.9815017  78.9299987  52.0265006  71.5825017
  77.7439987  51.3535006  70.4995017  79.7779987  50.9715006  69.9085017
  79.9039987  49.9065006  69.7225017  80.7249987  51.3225006  70.3155017
  79.5089987  51.6665006  68.6245017  80.3339987  51.4395006  67.9525017
  79.5539987  52.7385006  68.8125017  78.1559987  51.3245006  67.9395017
  77.3549987  51.6885006  68.5795017  78.0479987  50.2415006  67.9065017
  77.9449987  51.9025006  66.5195017  78.1799987  52.9635006  66.5505017
  76.8829987  51.8335006  66.2905017  78.7109987  51.2395006  65.4285017
  78.4409987  50.1875006  65.3525017  79.7829987  51.2665006  65.6005017
  78.4069987  51.8975006  64.0985017  78.5239987  52.9725006  64.1905017
  77.3629987  51.7135006  63.8565017  79.2689987  51.3965006  62.9425017
  79.1939987  50.3205006  62.8525017  80.3069987  51.6605006  63.1035017
  80.7349987  51.8255006  62.8925017  81.3089987  52.6435006  63.5935017
  81.1449987  51.3875006  61.7575017  82.4949987  51.5165006  61.4125017
  82.8389987  51.9615006  62.3315017  82.7949987  52.1385006  60.5815017
  83.0549987  50.0915006  61.2645017  84.1129987  50.2855006  61.3175017
  82.7139987  49.3935006  59.9775017  83.5059987  48.7305006  59.6555017
  82.5379987  50.1215006  59.1935017  81.5609987  48.6845006  60.2505017
  80.3049987  48.8535006  59.3475017  79.1729987  48.5855006  60.4505017
  79.4329987  47.4995006  61.3545017  80.2719987  47.7015006  62.0105017
  79.7039987  46.6775006  60.7115017  78.1789987  47.0565006  62.1795017
  77.4959987  46.5705006  61.4985017  77.4579987  48.2285006  62.8165017
  77.6869987  48.1285006  63.8065017  77.7409987  49.1505006  62.4235017
  76.4619987  48.1405006  62.7295017  78.6489987  46.0395006  63.2305017
  80.2099987  50.2515006  58.8685017  80.4399987  47.7945006  58.3445017
  82.7529987  49.3595006  62.4705017  83.0279987  49.5765006  63.7445017
  83.5509987  50.5505006  64.2485017  78.3039987  46.2395006  64.4235017
  79.3929987  45.1085006  62.8625017  82.5609987  48.4575006  64.6055017
  81.6909987  47.9835006  64.1635017  83.3099987  47.6755006  64.7015017
  82.2399987  49.0915006  65.9765017  83.1719987  49.4855006  66.3655017
  81.6029987  49.9515006  65.7955017  81.6029987  48.1875006  67.0265017
  82.2429987  47.3485006  67.2885017  81.4239987  48.7325006  67.9505017
  80.2799987  47.6845006  66.4995017  79.6449987  48.5495006  66.3175017
  80.4339987  47.2115006  65.5325017  79.5309987  46.7255006  67.3995017
  78.5079987  46.5905006  67.0535017  79.9959987  45.7425006  67.3605017
  79.5169987  47.2015006  68.8495017  80.5469987  47.1775006  69.2015017
  79.2139987  48.2445006  68.8595017  78.6639987  46.4545006  69.7895017
  78.2589987  47.1305006  70.5335017  77.8109987  46.0465006  69.2495017
  79.2969987  45.4915006  70.3385017  79.7269987  44.8305006  69.6015017
  79.5079987  45.1985006  71.5975017  80.0619987  44.3055006  71.3445017
  79.3919987  45.4375006  73.0165017  78.8679987  46.3865006  73.1165017
  78.7399987  44.6845006  73.4445017  80.7159987  45.5175006  73.8545017
  80.4369987  46.2275006  74.6315017  80.7209987  44.5375006  74.3275017
  82.0729987  45.8285006  73.3685017  82.9699987  45.7355006  73.9805017
  82.3959987  45.7215006  72.3365017  81.4999987  47.1435006  73.5605017
  80.8559987  47.4925006  72.7565017  80.9389987  47.2855006  74.4825017
  82.5819987  47.8595006  73.6035017  83.2559987  47.5205006  74.3875017
  83.1519987  47.8105006  72.6795017  82.2069987  49.2805006  73.9005017
  82.9689987  49.9335006  73.4785017  81.2849987  49.5085006  73.3685017
  82.0299987  49.6205006  75.2825017  82.5209987  50.5645006  75.5055017
  80.9699987  49.7905006  75.4565017  82.4829987  48.6345006  76.1775017
  82.2449987  48.9055006  77.2015017  83.5569987  48.4965006  76.1195017
  82.0159987  47.6755006  75.9715017  54.9209987  17.5525006  80.1105017
  55.1189987  16.6735006  80.7155017  53.9329987  17.4385006  79.6745017
  54.8899987  18.4115006  80.7755017  55.9029987  17.7195006  79.1115017
  55.9279987  16.8355006  78.4765017  56.8809987  17.7865006  79.5805017
  55.6719987  18.8445006  78.3215017  56.6079987  19.2095006  77.8995017
  55.2859987  19.6515006  78.9405017  54.6669987  18.5805006  77.1785017
  53.7569987  18.1035006  77.5345017  55.0649987  17.9295006  76.4015017
  54.3169987  19.8795006  76.5925017  55.0859987  20.6175006  76.8045017
  53.4009987  20.2555006  77.0445017  54.1319987  19.7825006  75.1075017
  53.2359987  19.2425006  74.8055017  54.9619987  19.3105006  74.5855017
  54.0199987  21.2205006  74.6665017  54.7329987  21.8105006  75.2395017
  53.0319987  21.5865006  74.9415017  54.2429987  21.4545006  73.2145017
  53.3549987  21.0775006  72.7085017  55.0609987  20.7975006  72.9235017
  54.5729987  23.0425006  72.6675017  55.4119987  23.3485006  73.2885017
  53.7119987  23.6095006  73.0185017  54.8879987  23.4475006  71.0665017
  55.2409987  24.4755006  71.0175017  53.9629987  23.4155006  70.4925017
  55.8779987  22.5415006  70.4445017  56.0999987  22.5915006  69.3805017
  55.9749987  21.4945006  70.7245017  56.8579987  23.3095006  71.1445017
  56.9879987  23.0095006  72.1815017  56.6289987  24.3735006  71.1625017
  58.1109987  23.1115006  70.3995017  58.9319987  23.5645006  70.9535017
  58.0729987  23.6205006  69.4405017  58.4559987  21.6305006  70.1675017
  57.7659987  21.2155006  69.4405017  58.2879987  21.0985006  71.0995017
  59.8989987  21.3645006  69.7045017  60.6059987  21.7995006  70.3995017
  60.0659987  21.7935006  68.7235017  60.0739987  21.9745006  68.3395017
  60.0959987  23.1695006  68.1705017  60.0899987  21.0915006  67.3685017
  59.9669987  21.7275006  66.0705017  60.5509987  22.6325006  66.0555017
  58.9369987  21.9735006  65.8565017  60.5119987  20.7295006  65.0585017
  61.5369987  20.4985006  65.3015017  60.4119987  21.1875006  63.6015017
  60.7729987  20.4025006  62.9515017  61.0359987  22.0595006  63.4655017
  59.0499987  21.5345006  63.2965017  58.7729987  21.9525006  61.7945017
  59.2659987  20.6055006  61.0485017  58.4259987  19.4565006  61.1425017
  57.5719987  19.6485006  60.5045017  58.0779987  19.3045006  62.1555017
  59.1549987  18.1765006  60.6745017  60.0119987  17.9985006  61.3055017
  58.4789987  17.3355006  60.7435017  59.6889987  18.2835006  59.2785017
  58.9989987  18.6305006  58.6335017  60.5039987  19.0055006  59.3425017
  60.0379987  17.4045006  58.9375017  57.3069987  22.1325006  61.6185017
  59.6859987  23.0555006  61.4605017  59.7169987  19.5545006  65.2305017
  60.2409987  18.4755006  64.7745017  61.3759987  18.3275006  64.3425017
  59.2219987  17.3735006  64.8805017  58.2589987  17.7775006  65.1755017
  59.0559987  16.8735006  63.9295017  59.7769987  16.4045006  65.9215017
  59.1019987  15.5575006  65.8665017  60.7159987  16.0675006  65.4945017
  59.9779987  16.7815006  67.3635017  60.5449987  16.0285006  67.9045017
  60.5469987  17.7045006  67.4435017  58.6209987  16.9885006  68.0245017
  58.1359987  17.8835006  67.6395017  57.9349987  16.1665006  67.8365017
  58.7969987  17.1475006  69.5245017  59.0159987  16.1825006  69.9775017
  59.6639987  17.7765006  69.7165017  57.5669987  17.7745006  70.2225017
  57.5049987  18.8295006  69.9595017  56.6519987  17.3135006  69.8615017
  57.6179987  17.6335006  71.7635017  56.7099987  18.0215006  72.2115017
  57.6689987  16.5805006  72.0365017  58.8479987  18.3395006  72.3165017
  59.6819987  18.3415006  71.6305017  59.0279987  18.9565006  73.5085017
  59.9989987  19.3985006  73.6765017  58.0569987  19.1315006  74.6675017
  57.1269987  18.6195006  74.4285017  58.4259987  18.6785006  75.5805017
  57.7339987  20.6305006  74.9275017  57.2449987  21.0435006  74.0455017
  57.0049987  20.6875006  75.7335017  58.9559987  21.4935006  75.2895017
  59.7529987  21.3435006  74.5615017  58.7069987  22.5505006  75.2535017
  59.4739987  21.1405006  76.6835017  59.4089987  20.0605006  76.7925017
  60.5339987  21.3875006  76.7225017  58.7509987  21.8295006  77.8515017
  58.8559987  22.9095006  77.7665017  57.6829987  21.6315006  77.8135017
  59.3149987  21.4065006  79.2135017  58.7409987  20.5925006  79.6525017
  60.3379987  21.0435006  79.1275017  59.2999987  22.5785006  80.1745017
  60.0199987  22.4575006  80.9805017  59.5899987  23.4885006  79.6535017
  57.9579987  22.7665006  80.7415017  57.9229987  23.6575006  81.3615017
  57.6579987  21.9275006  81.3605017  57.2149987  22.8795006  79.9575017
  61.7359987  27.5165006  79.3005017  61.6969987  28.3255006  80.0235017
  62.3929987  26.7485006  79.6985017  60.7389987  27.0915006  79.2265017
  62.2259987  28.0125006  77.9365017  63.2099987  28.4595006  78.0635017
  61.5679987  28.8125006  77.6085017  62.3029987  26.9235006  76.8685017
  61.3169987  26.7245006  76.4475017  62.6349987  25.9875006  77.3135017
  63.2719987  27.2945006  75.7355017  64.2109987  27.6585006  76.1475017
  62.8739987  28.1075006  75.1305017  63.5659987  26.0905006  74.8375017
  62.6919987  25.4515006  74.7415017  64.3479987  25.4745006  75.2785017
  64.0089987  26.5455006  73.4335017  64.9229987  27.1255006  73.5505017
  63.2559987  27.2365006  73.0595017  64.2379987  25.4485006  72.4055017
  64.0219987  25.8325006  71.4105017  63.5329987  24.6365006  72.5775017
  65.6399987  24.9025006  72.4335017  65.9959987  24.6385006  73.4285017
  66.3879987  25.5705006  72.0105017  65.5549987  23.6765006  71.6035017
  64.6319987  23.6165006  71.0315017  65.6059987  22.7625006  72.1935017
  66.6889987  23.7225006  70.6875017  66.7159987  22.6595006  70.4595017
  67.4649987  23.8945006  71.4325017  67.0009987  24.5175006  69.4605017
  68.0699987  24.7185006  69.4445017  66.5119987  25.4875006  69.5305017
  66.6069987  23.8375006  68.1055017  67.1989987  22.9535006  67.8815017
  66.7239987  24.5055006  67.2545017  65.1659987  23.4725006  68.2295017
  64.5599987  24.2915006  68.6135017  64.9739987  22.6225006  68.8775017
  64.6909987  23.1545006  66.8615017  65.1769987  22.2865006  66.4275017
  64.8489987  23.9805006  66.1735017  63.2009987  22.8915006  66.9655017
  62.6989987  23.7325006  67.4265017  63.0149987  22.0055006  67.5615017
  62.4219987  24.2185006  67.0485017  62.0149987  24.7485006  68.0675017
  62.3019987  24.7155006  65.8385017  61.6739987  26.0115006  65.7325017
  61.3199987  26.2275006  66.7295017  60.8289987  25.9625006  65.0605017
  62.6929987  27.1025006  65.2715017  62.1699987  28.0425006  65.3275017
  63.1969987  26.8595006  63.8075017  63.9689987  27.5835006  63.5835017
  62.3529987  27.0375006  63.1525017  63.6879987  25.5415006  63.6335017
  65.2219987  25.2265006  63.5085017  65.4869987  25.7545006  62.0265017
  64.5869987  25.3365006  61.0025017  63.5549987  25.5325006  61.2645017
  64.6709987  24.2625006  60.8625017  64.9349987  25.9495006  59.6385017
  64.5129987  26.9465006  59.6265017  64.4669987  25.3645006  58.8605017
  66.3819987  26.1105006  59.2235017  66.3619987  26.5235006  57.7935017
  65.7369987  25.8335006  57.2435017  67.3739987  26.4765006  57.4185017
  65.9979987  27.5375006  57.7265017  67.0399987  27.2305006  60.0005017
  66.8399987  27.0825006  61.0505017  66.6519987  28.1725006  59.6555017
  68.1029987  27.1725006  59.8135017  67.0969987  24.7945006  59.4085017
  67.0209987  24.4905006  60.4415017  68.1359987  24.9155006  59.1425017
  66.6459987  24.0465006  58.7725017  65.9949987  26.0535006  64.4565017
  65.3919987  23.7595006  63.5485017  63.8209987  27.1465006  66.1545017
  63.6489987  27.5915006  67.3765017  62.6029987  27.8905006  67.9135017
  64.9849987  27.8925006  67.9915017  64.8359987  28.5695006  68.8265017
  65.4209987  26.9905006  68.4135017  65.8879987  28.4905006  66.9305017
  65.8569987  27.9465006  65.9925017  65.6549987  29.5225006  66.6865017
  67.2549987  28.4035006  67.4975017  67.8389987  29.0635006  66.8605017
  67.1559987  28.9135006  68.4525017  67.9929987  27.1145006  67.7175017
  67.5819987  26.7295006  68.6495017  67.6489987  26.4445006  66.9335017
  69.5349987  27.0385006  67.7975017  69.8129987  25.9865006  67.7975017
  69.9199987  27.4535006  66.8675017  70.2129987  27.7365006  68.9555017
  71.2519987  27.4115006  68.9715017  70.2289987  28.8045006  68.7565017
  69.5729987  27.4985006  70.3675017  68.5039987  27.6325006  70.2505017
  69.7269987  26.4455006  70.5985017  70.0949987  28.3145006  71.4965017
  69.9249987  29.2985006  71.0855017  70.6219987  28.2515006  72.6885017
  70.9239987  29.0115006  73.3945017  70.8339987  26.9135006  73.1465017
  70.4339987  26.2545006  72.3775017  71.8979987  26.7115006  73.1965017
  70.2009987  26.5525006  74.4445017  70.5409987  25.5625006  74.7445017
  70.5599987  27.2405006  75.2075017  68.6639987  26.5815006  74.4205017
  68.3249987  27.5715006  74.7255017  68.3169987  26.4425006  73.4005017
  68.0229987  25.5305006  75.3235017  66.9379987  25.5585006  75.2575017
  68.3189987  24.5205006  75.0455017  68.4489987  25.7975006  76.7075017
  69.5179987  25.6065006  76.7805017  68.3219987  26.8555006  76.9195017
  67.7879987  25.0095006  77.7175017  66.7789987  25.3665006  77.9165017
  67.6849987  23.9695006  77.4145017  68.5769987  25.0575006  79.0045017
  68.6959987  24.0505006  79.3975017  69.5799987  25.4005006  78.7605017
  67.9889987  25.9785006  80.1105017  68.6559987  26.0275006  80.9665017
  67.0289987  25.6215006  80.4665017  67.8489987  26.9905006  79.7425017
  20.5129987  60.5935006  79.5115017  20.5149987  61.6725006  79.6335017
  19.5589987  60.2205006  79.8725017  20.5669987  60.3815006  78.4475017
  21.5969987  59.9925006  80.2085017  21.5739987  60.1465006  81.2855017
  22.5759987  60.3235006  79.8735017  21.4169987  58.5215006  79.9135017
  20.4719987  58.1905006  80.3445017  22.1959987  57.9735006  80.4405017
  21.4629987  58.1265006  78.4255017  20.4699987  58.2445006  77.9975017
  21.7089987  57.0695006  78.3315017  22.4539987  58.9535006  77.5995017
  23.4389987  58.9345006  78.0595017  22.1399987  59.9965006  77.5915017
  22.5699987  58.4505006  76.1585017  21.7149987  58.8035006  75.5845017
  22.5139987  57.3645006  76.1505017  23.8749987  58.8995006  75.4595017
  23.8259987  58.4655006  74.4625017  24.6719987  58.3715006  75.9815017
  24.2449987  60.4025006  75.3465017  25.1189987  60.4765006  74.7005017
  24.5659987  60.7365006  76.3315017  23.1439987  61.3485006  74.8225017
  23.4899987  62.3725006  74.9415017  22.2709987  61.2465006  75.4665017
  22.7269987  61.1195006  73.3665017  22.3869987  60.0915006  73.2675017
  23.6099987  61.2105006  72.7355017  21.6379987  62.0875006  72.8575017
  22.0489987  63.0945006  72.8855017  20.8109987  62.0785006  73.5655017
  21.0969987  61.8245006  71.4415017  20.5009987  60.9155006  71.4315017
  21.9269987  61.6515006  70.7585017  20.2659987  63.0085006  70.9155017
  20.5609987  63.0785006  69.8695017  20.6879987  63.8785006  71.4105017
  18.7579987  63.0875006  70.9805017  18.4329987  64.1095006  70.8125017
  18.4359987  62.8155006  71.9825017  18.0559987  62.1615006  69.9725017
  18.3909987  61.1395006  70.0995017  18.2719987  62.4745006  68.9585017
  18.3019987  62.5475006  68.5165017  18.4729987  63.6775006  68.0935017
  18.3469987  61.4375006  67.8545017  18.5829987  61.5215006  66.4635017
  17.9329987  62.3175006  66.1335017  18.2249987  60.5845006  66.0615017
  20.0079987  61.7915006  66.0245017  20.1089987  62.8625006  66.0855017
  20.5579987  61.2835006  64.6535017  21.5829987  61.6175006  64.5625017
  19.9649987  61.7735006  63.8915017  20.4799987  59.8655006  64.5085017
  21.4299987  59.2395006  63.3815017  20.9409987  59.9155006  62.0245017
  19.6179987  59.7165006  61.5995017  18.9189987  60.0575006  62.3525017
  19.4499987  58.6495006  61.4845017  19.2949987  60.3205006  60.2395017
  19.3719987  61.4005006  60.2395017  18.2869987  60.0445006  59.9655017
  20.1589987  59.8555006  59.1305017  20.5869987  58.4315006  59.3215017
  21.0009987  58.3255006  60.3145017  21.3459987  58.2105006  58.5855017
  19.7349987  57.7865006  59.1695017  19.4339987  59.9455006  57.8465017
  19.0039987  60.9315006  57.7645017  18.6769987  59.1825006  57.8165017
  20.1549987  59.7885006  57.0565017  21.4169987  60.6675006  59.1315017
  21.1659987  61.7125006  59.0225017  22.0399987  60.3565006  58.3065017
  21.9449987  60.5135006  60.0615017  22.8309987  59.6645006  63.5695017
  21.1409987  57.7945006  63.3095017  20.8239987  61.1445006  67.0515017
  21.8719987  61.9005006  67.1255017  21.8539987  63.0105006  66.6385017
  23.0409987  61.1735006  67.7895017  23.8569987  61.8755006  67.9295017
  22.7679987  60.8325006  68.7855017  23.4379987  60.0145006  66.9085017
  22.5689987  59.4135006  66.6655017  23.8349987  60.3645006  65.9605017
  24.4169987  59.1845006  67.5735017  24.5869987  58.3705006  66.8735017
  25.3159987  59.7955006  67.5515017  24.2429987  58.6475006  68.9455017
  25.2029987  58.2225006  69.2325017  24.0699987  59.4875006  69.6135017
  23.2169987  57.6495006  69.1725017  22.2179987  58.0325006  68.9765017
  23.3469987  56.7915006  68.5155017  23.3019987  57.1705006  70.6265017
  23.1789987  56.0895006  70.6715017  24.2769987  57.3865006  71.0555017
  22.2299987  57.8375006  71.4885017  22.3449987  57.4945006  72.5105017
  22.4249987  58.9085006  71.5015017  20.8219987  57.6095006  70.9925017
  20.6999987  57.4255006  69.9355017  19.7169987  57.6015006  71.7425017
  18.7519987  57.4235006  71.2905017  19.6669987  57.8205006  73.2295017
  18.9469987  57.1295006  73.6665017  20.6169987  57.6115006  73.7075017
  19.2229987  59.2675006  73.5755017  20.0759987  59.9415006  73.5045017
  18.5039987  59.6075006  72.8325017  18.6129987  59.3775006  74.9345017
  18.0509987  58.4525006  75.0675017  19.4459987  59.3295006  75.6305017
  17.7109987  60.5765006  75.2955017  17.0729987  60.8245006  74.4505017
  17.0429987  60.3145006  76.1145017  18.5299987  61.7725006  75.6885017
  19.0489987  61.5795006  76.6255017  19.3069987  61.9695006  74.9545017
  17.6599987  63.0195006  75.8795017  18.3389987  63.8685006  75.9325017
  17.0919987  63.1445006  74.9595017  16.6989987  63.0965006  77.0525017
  16.2109987  62.1345006  77.1855017  17.2939987  63.2535006  77.9495017
  15.6759987  64.1595006  76.9695017  15.0889987  64.2025006  77.8825017
  14.9869987  63.9955006  76.1475017  16.1359987  65.1335006  76.8255017
  40.6429987  33.4145006  81.5605017  40.3849987  33.5965006  82.5995017
  40.7279987  34.3775006  81.0665017  41.6239987  32.9475006  81.5405017
  39.7009987  32.6175006  80.9425017  38.7289987  33.1045006  81.0095017
  39.6159987  31.6875006  81.4985017  40.0109987  32.3305006  79.4995017
  39.2879987  31.5955006  79.1475017  40.9799987  31.8355006  79.4755017
  40.0449987  33.5045006  78.5325017  40.0259987  33.1055006  77.5205017
  41.0009987  34.0155006  78.6375017  38.9299987  34.5005006  78.6765017
  38.9559987  34.9125006  79.6815017  37.9869987  33.9635006  78.5905017
  38.9489987  35.6435006  77.6745017  39.8449987  36.2415006  77.8295017
  38.1059987  36.3035006  77.8665017  38.9009987  35.1775006  76.2315017
  38.1919987  34.3635006  76.0945017  39.8659987  34.7995006  75.8985017
  38.4989987  36.3325006  75.3695017  39.1279987  37.1875006  75.6145017
  37.4809987  36.6215006  75.6225017  38.5849987  36.0595006  73.8895017
  38.0649987  36.8965006  73.4285017  37.9519987  35.1865006  73.7365017
  39.9039987  35.8455006  73.1915017  40.2979987  34.8715006  73.4745017
  40.6219987  36.5815006  73.5505017  39.8009987  35.9455006  71.6735017
  40.8029987  35.8805006  71.2555017  39.4249987  36.9315006  71.4055017
  38.9269987  34.8705006  71.0055017  38.4849987  35.3075006  70.1135017
  38.1009987  34.6545006  71.6805017  39.5919987  33.6255006  70.6745017
  38.9219987  32.7745006  70.5595017  40.3779987  33.3035006  71.3515017
  40.1949987  33.9265006  69.3305017  41.1349987  34.4515006  69.4645017
  39.5299987  34.6035006  68.8015017  40.4369987  32.6455006  68.4245017
  39.5169987  32.0875006  68.3045017  41.1799987  31.9985006  68.8755017
  41.0049987  32.9045006  67.1145017  42.0079987  33.5365006  67.0905017
  40.4099987  32.2115006  66.1595017  40.8019987  32.2565006  64.7805017
  41.4169987  33.1375006  64.8455017  39.9719987  32.4575006  64.1185017
  41.6669987  31.0095006  64.2565017  42.5989987  31.0515006  64.7975017
  41.9289987  31.1675006  62.7465017  42.3499987  30.2405006  62.3825017
  42.6639987  31.9495006  62.6235017  40.7549987  31.5195006  62.0285017
  40.1149987  30.3665006  61.1585017  38.5919987  30.5415006  61.5535017
  38.0779987  31.8175006  61.3375017  38.3919987  32.1995006  60.3745017
  38.3069987  32.5535006  62.0965017  36.5869987  31.5765006  61.3345017
  36.1759987  32.5355006  61.0565017  36.4639987  30.8825006  60.5145017
  35.8299987  31.1385006  62.4495017  36.2459987  30.3415006  62.9025017
  35.8379987  31.9795006  63.1435017  34.8829987  30.9105006  62.1985017
  40.3059987  30.6965006  59.7385017  40.5629987  29.0535006  61.6485017
  41.0639987  29.8165006  64.6635017  41.9009987  28.8255006  64.9135017
  43.1279987  28.8245006  64.8075017  41.0299987  27.6495006  65.2635017
  40.7209987  27.2185006  64.3165017  41.6599987  26.9025006  65.7395017
  39.8129987  28.0105006  66.1625017  39.1489987  28.6535006  65.5955017
  39.2489987  27.1075006  66.3725017  40.1869987  28.7085006  67.4765017
  40.8309987  29.5575006  67.2605017  39.2799987  29.1195006  67.9135017
  40.8539987  27.7925006  68.5075017  40.2929987  26.8655006  68.6075017
  41.8599987  27.5075006  68.2105017  40.9169987  28.4735006  69.8905017
  41.5369987  27.9085006  70.5835017  41.3719987  29.4585006  69.8105017
  39.5029987  28.6315006  70.4815017  39.0479987  29.5085006  70.0245017
  38.8989987  27.7805006  70.1805017  39.4369987  28.7645006  72.0115017
  38.4089987  28.6245006  72.3255017  40.0049987  27.9425006  72.4455017
  39.9889987  30.0555006  72.5315017  41.0429987  30.2035006  72.7135017
  39.1679987  31.1005006  72.7805017  39.6399987  31.9975006  73.1555017
  37.6959987  31.2145006  72.6135017  37.4709987  32.2035006  72.2195017
  37.3219987  30.5045006  71.8845017  36.9369987  31.0395006  73.9285017
  35.8639987  31.0925006  73.7465017  37.1289987  30.0435006  74.3225017
  37.3309987  32.0885006  74.9885017  38.4189987  32.1475006  75.0335017
  36.9869987  33.0675006  74.6665017  36.7829987  31.7905006  76.3905017
  36.8059987  30.7155006  76.5555017  37.4439987  32.2275006  77.1375017
  35.3859987  32.3125006  76.5985017  34.7369987  32.0825006  75.7555017
  34.9009987  31.8855006  77.4715017  35.4589987  33.8185006  76.7315017
  36.4569987  34.1275006  77.0375017  35.2779987  34.2935006  75.7685017
  34.5129987  34.3335006  77.6775017  34.8809987  34.2155006  78.6935017
  34.4149987  35.4055006  77.5205017  33.2309987  33.7375006  77.5675017
  32.5249987  34.2155006  78.2395017  33.2519987  32.6815006  77.8165017
  32.8419987  33.8315006  76.5575017  50.4949987  88.5995006  77.9835017
  50.9929987  88.7165006  78.9415017  49.5259987  89.0855006  78.0525017
  51.0799987  89.1345006  77.2405017  50.3499987  87.1425006  77.6145017
  49.8009987  86.6675006  78.4255017  51.3509987  86.7205006  77.6355017
  49.6749987  86.8165006  76.2995017  49.3879987  85.7665006  76.2495017
  50.3569987  86.9825006  75.4675017  48.4519987  87.6765006  76.0945017
  48.6649987  88.7365006  76.2165017  47.6429987  87.4495006  76.7875017
  47.9749987  87.4365006  74.6655017  47.6269987  88.4275006  74.3855017
  47.0829987  86.8405006  74.8495017  48.7449987  86.8385006  73.5015017
  49.3169987  86.0705006  74.0195017  49.4419987  87.6475006  73.2915017
  48.2239987  86.2785006  72.1985017  47.3239987  86.8665006  72.0295017
  47.8879987  85.2835006  72.4845017  48.9869987  86.1905006  70.9475017
  49.9329987  85.7075006  71.1885017  49.2319987  87.2095006  70.6535017
  48.3369987  85.4665006  69.7645017  47.7259987  86.1825006  69.2185017
  47.6499987  84.7175006  70.1565017  49.2859987  84.8165006  68.8285017
  48.7759987  84.3965006  67.9635017  49.8209987  83.9915006  69.2975017
  50.2799987  85.8635006  68.3845017  50.6289987  86.4215006  69.2505017
  49.7959987  86.5885006  67.7325017  51.4929987  85.2765006  67.6715017
  52.0619987  84.6935006  68.3915017  52.1359987  86.1025006  67.3725017
  51.1809987  84.4275006  66.4355017  50.2949987  83.8245006  66.6265017
  51.9869987  83.7285006  66.2315017  50.9209987  85.2615006  65.1895017
  51.7889987  85.8765006  64.9745017  50.0979987  85.9405006  65.3955017
  50.5689987  84.4275006  63.9425017  49.7249987  83.7805006  64.1455017
  51.4129987  83.8155006  63.6475017  49.2609987  83.7105006  64.0915017
  49.0899987  82.5195006  63.9025017  48.3679987  84.5885006  64.4775017
  47.0089987  84.2105006  64.3725017  46.7599987  83.9055006  65.3775017
  46.8769987  83.3705006  63.7065017  46.1219987  85.4085006  63.9385017
  45.0989987  85.0705006  63.9185017  46.5269987  85.9365006  62.5485017
  45.6939987  86.4715006  62.1115017  46.7529987  85.0785006  61.9275017
  47.6579987  86.7815006  62.6535017  48.4159987  87.1905006  61.3255017
  49.1679987  88.4535006  61.9045017  50.4999987  88.3395006  62.3965017
  50.7939987  87.3155006  62.5855017  50.5969987  88.8665006  63.3415017
  51.4959987  89.0355006  61.4385017  51.5369987  88.4275006  60.5435017
  52.4899987  89.1095006  61.8545017  51.1339987  90.4385006  60.9705017
  51.0519987  91.4205006  62.0985017  50.4089987  91.0125006  62.8655017
  50.6249987  92.3345006  61.7145017  52.0479987  91.6135006  62.4685017
  52.1279987  90.8985006  59.9845017  52.2489987  90.1305006  59.2365017
  53.0539987  91.1045006  60.4895017  51.7409987  91.7995006  59.5315017
  49.8399987  90.4545006  60.2255017  49.9109987  89.7935006  59.3745017
  49.6379987  91.4595006  59.8865017  49.0439987  90.1265006  60.8785017
  49.3789987  86.1345006  60.9595017  47.4329987  87.5715006  60.3025017
  46.2139987  86.4235006  64.9695017  45.5189987  87.5545006  64.8535017
  44.4959987  87.7115006  64.2195017  46.1789987  88.6515006  65.7215017
  46.4919987  88.1705006  66.6425017  47.0929987  88.9765006  65.2295017
  45.2339987  89.8455006  65.9855017  44.7339987  90.1025006  65.0585017
  44.4519987  89.5385006  66.6725017  45.9509987  91.0915006  66.5335017
  46.5469987  91.5895006  65.7735017  45.2339987  91.8285006  66.8865017
  46.8259987  90.6805006  67.6895017  46.3519987  89.8255006  68.1665017
  47.7769987  90.3235006  67.3025017  47.0859987  91.7055006  68.7235017
  47.2409987  92.7145006  68.3455017  46.3059987  91.7815006  69.4785017
  48.3689987  91.2115006  69.3945017  48.7979987  90.4835006  68.7075017
  49.0559987  92.0535006  69.4165017  48.2969987  90.6135006  70.7715017
  47.7649987  91.3035006  71.4165017  47.6859987  89.7145006  70.7135017
  49.6309987  90.2495006  71.3535017  50.1129987  89.3435006  71.0185017
  50.2639987  90.9665006  72.2385017  51.2159987  90.7735006  72.7115017
  49.6139987  92.2345006  72.6755017  50.3779987  92.9965006  72.5315017
  48.8269987  92.4545006  71.9625017  49.0799987  92.3665006  74.0575017
  49.9319987  92.5585006  74.7085017  48.4809987  93.2745006  74.0675017
  48.3019987  91.2805006  74.5935017  47.6559987  90.8825006  73.8115017
  48.9609987  90.4675006  74.8865017  47.4749987  91.6845006  75.7495017
  46.5909987  92.1765006  75.3495017  47.1239987  90.7755006  76.2345017
  48.1079987  92.5305006  76.7285017  49.0849987  92.1835006  77.0585017
  48.2449987  93.5685006  76.4365017  47.2729987  92.4545006  77.7665017
  47.4529987  93.2615006  78.4745017  46.2389987  92.5625006  77.4425017
  47.4359987  90.9135006  78.6185017  46.4229987  90.7605006  78.9825017
  47.5499987  90.2425006  77.7695017  48.5429987  90.4615006  79.8225017
  48.4299987  89.4115006  80.0755017  48.4049987  91.0315006  80.7345017
  49.5659987  90.6135006  79.4895017  27.1909987  29.5245006  78.5165017
  26.1459987  29.4225006  78.7925017  27.6829987  30.1025006  79.2935017
  27.6309987  28.5315006  78.5165017  27.3359987  30.1655006  77.2055017
  27.0179987  31.2015006  77.1055017  26.9489987  29.6415006  76.3355017
  28.7629987  30.1115006  77.2165017  29.2179987  30.0645006  76.2275017
  29.1589987  29.2625006  77.7705017  29.1969987  31.3655006  77.8985017
  28.8999987  31.3635006  78.9455017  28.7379987  32.2485006  77.4565017
  30.6929987  31.4925006  77.8235017  31.1629987  30.6745006  78.3635017
  30.9989987  32.4075006  78.3285017  31.2239987  31.5075006  76.3835017
  30.5849987  30.8915006  75.7535017  32.2109987  31.0515006  76.3545017
  31.2979987  32.8375006  75.8305017  31.4159987  33.5115006  76.6775017
  30.3149987  33.0455006  75.4105017  32.4319987  33.1665006  74.7245017
  31.8699987  32.9095006  73.8275017  33.1009987  32.3295006  74.9145017
  33.2939987  34.4725006  74.4475017  33.9819987  34.4705006  75.2905017
  32.5729987  35.2645006  74.6465017  34.0459987  34.7925006  73.1945017
  34.4389987  33.8215006  72.9015017  34.8959987  35.3675006  73.5615017
  33.4739987  35.4695006  72.0365017  33.2159987  36.4435006  72.4455017
  32.5319987  34.9425006  71.8955017  34.0759987  35.6585006  70.8135017
  34.9999987  36.2195006  70.9305017  33.4329987  36.2625006  70.1755017
  34.3469987  34.3555006  70.1245017  35.0289987  33.8735006  70.8235017
  34.9489987  34.6565006  69.2715017  33.2969987  33.2865006  69.6585017
  33.1509987  33.4175006  68.5915017  32.3579987  33.5495006  70.1395017
  33.5889987  31.8515006  69.9405017  33.7719987  31.7025006  70.9975017
  34.4629987  31.5285006  69.3875017  32.5289987  30.8815006  69.3165017
  31.7969987  30.1865006  69.9875017  32.5529987  30.9085006  67.9655017
  31.7199987  29.9775006  67.2015017  31.1009987  29.4815006  67.9345017
  32.3559987  29.2465006  66.7235017  30.8199987  30.7245006  66.1405017
  30.2419987  29.9575006  65.6535017  31.6399987  31.5255006  65.0795017
  32.0329987  30.8265006  64.3545017  32.4689987  31.9785006  65.6085017
  30.8579987  32.5235006  64.4355017  29.9399987  32.3005006  63.1955017
  30.9929987  31.6915006  62.1465017  31.9639987  32.6645006  61.7855017
  32.8889987  32.2465006  61.4105017  32.2289987  33.2855006  62.6365017
  31.3459987  33.6155006  60.7755017  32.1849987  34.2935006  60.6845017
  30.4689987  34.1835006  61.0485017  31.0799987  33.0845006  59.3525017
  32.3639987  32.6185006  58.8005017  33.0959987  33.4055006  58.9185017
  32.2199987  32.4105006  57.7505017  32.6579987  31.7145006  59.3115017
  30.0119987  32.1815006  59.2765017  29.1599987  32.6155006  59.7765017
  30.3039987  31.2525006  59.7325017  29.7909987  32.0305006  58.2295017
  30.2609987  33.8885006  58.4275017  29.2879987  34.0535006  58.8655017
  30.1529987  33.3555006  57.4945017  30.7459987  34.8365006  58.2475017
  28.9189987  31.3805006  63.5535017  29.4249987  33.5955006  62.7215017
  29.9429987  31.6395006  66.7935017  28.9799987  31.0865006  67.4805017
  28.6969987  29.9115006  67.5535017  28.3459987  32.1535006  68.2475017
  28.0209987  32.9145006  67.5455017  27.4409987  31.7755006  68.7165017
  29.3219987  32.7185006  69.2985017  30.3429987  32.5585006  68.9715017
  29.2009987  33.7935006  69.3875017  29.1219987  32.0505006  70.6805017
  28.0569987  32.0655006  70.8995017  29.3929987  31.0045006  70.5615017
  29.9069987  32.6255006  71.8585017  29.9079987  31.8545006  72.6275017
  30.9409987  32.7395006  71.5425017  29.4609987  33.8675006  72.4585017
  30.2669987  34.5355006  72.7565017  28.8099987  34.4485006  71.8085017
  28.6869987  33.4585006  73.6645017  27.7389987  32.9895006  73.4055017
  29.2169987  32.7515006  74.2965017  28.4459987  34.5975006  74.3875017
  29.3389987  35.2035006  74.4845017  27.7049987  35.2205006  73.8885017
  27.8479987  34.1535006  75.8935017  27.4459987  33.1725006  76.0985017
  27.8709987  35.0685006  76.9545017  27.4439987  34.7615006  77.8985017
  28.4559987  36.5255006  76.9605017  29.0579987  36.8585006  76.1165017
  27.8989987  37.3925006  77.2965017  29.3579987  36.0885006  78.0195017
  28.7889987  35.7015006  78.8635017  29.9689987  35.2625006  77.6615017
  30.2509987  37.1945006  78.4845017  31.0769987  37.4635006  77.8255017
  29.7759987  38.1285006  78.7735017  30.7449987  36.5745006  79.5925017
  30.6019987  35.5365006  79.3005017  31.8069987  36.7805006  79.4745017
  30.3919987  36.7445006  80.9205017  30.1539987  37.7895006  81.1095017
  29.4879987  36.1875006  81.1515017  31.5639987  36.3205006  81.9165017
  32.3959987  36.9215006  81.5545017  31.2419987  36.7805006  82.8485017
  32.1129987  34.8165006  82.2435017  31.2239987  34.2135006  82.4105017
  32.5239987  34.4815006  81.2935017  33.0909987  34.5455006  83.3005017
  33.3859987  33.5005006  83.2935017  32.6939987  34.7655006  84.2855017
  33.9879987  35.1435006  83.1655017  73.0139987  36.7445006  82.1355017
  73.3819987  37.6925006  82.5165017  73.8489987  36.0505006  82.1115017
  72.2879987  36.3615006  82.8475017  72.3859987  36.9085006  80.7395017
  73.1469987  37.3355006  80.0895017  71.6049987  37.6585006  80.8285017
  71.8279987  35.6445006  80.0945017  71.1699987  35.1515006  80.8105017
  72.6579987  34.9605006  79.9265017  71.0769987  35.8375006  78.7635017
  70.0889987  36.2175006  79.0135017  70.9199987  34.8505006  78.3305017
  71.6949987  36.7435006  77.7295017  72.4189987  37.4335006  78.1545017
  70.9469987  37.3565006  77.2285017  72.3809987  35.8825006  76.7215017
  71.7429987  35.6315006  75.8755017  72.7229987  34.9365006  77.1355017
  73.4949987  36.6195006  76.2635017  74.2669987  36.7595006  77.0175017
  73.2419987  37.6145006  75.8995017  74.0589987  35.7905006  75.1125017
  73.7739987  34.7555006  75.2955017  75.1439987  35.8255006  75.1945017
  73.6139987  36.2165006  73.5765017  73.9419987  37.2315006  73.3635017
  72.5279987  36.2245006  73.4925017  74.2009987  35.2535006  72.5145017
  73.8809987  34.2285006  72.6885017  75.2899987  35.2425006  72.5425017
  73.7459987  35.7105006  71.1555017  73.9389987  36.7765006  71.0585017
  72.6669987  35.5905006  71.0705017  74.4169987  35.0005006  70.0075017
  74.4459987  33.9365006  70.2295017  75.4529987  35.3305006  69.9655017
  73.7769987  35.2345006  68.6475017  73.6299987  36.3085006  68.5415017
  72.7849987  34.7905006  68.6505017  74.5389987  34.7415006  67.4225017
  75.5549987  35.1155006  67.3585017  74.0459987  35.0085006  66.4915017
  74.5699987  33.2445006  67.5345017  73.5659987  32.8515006  67.6335017
  75.1489987  32.9425006  68.3995017  75.0359987  32.6235006  66.2255017
  74.9349987  33.1285006  65.1155017  75.6069987  31.4705006  66.5035017
  75.9829987  30.6695006  65.3685017  76.8819987  30.1355006  65.6265017
  76.1889987  31.3135006  64.5255017  74.8409987  29.6745006  65.0415017
  74.6919987  29.0945006  65.9385017  75.0949987  28.7335006  63.8425017
  74.1859987  28.1895006  63.6275017  75.8599987  28.0245006  64.1235017
  75.5389987  29.4675006  62.7085017  74.9089987  29.1615006  61.3075017
  73.5859987  30.0375006  61.4125017  73.4629987  31.3535006  60.9225017
  72.6729987  31.2745006  60.1865017  74.3849987  31.6135006  60.4195017
  73.1349987  32.4335006  61.9085017  72.1209987  32.3135006  62.2595017
  73.8139987  32.3765006  62.7485017  73.1979987  33.7915006  61.3025017
  74.0469987  33.9365006  60.7815017  72.3529987  33.8325006  60.6145017
  73.1129987  34.5185006  61.9915017  75.7679987  29.7215006  60.2495017
  74.4839987  27.7585006  61.1775017  73.6649987  30.4095006  64.7295017
  72.5999987  29.6795006  64.7895017  72.4499987  28.5985006  65.3345017
  71.5139987  30.5455006  64.3585017  71.7829987  31.4535006  63.8285017
  70.6809987  30.1155006  63.8085017  71.1399987  30.8165006  65.7685017
  70.0849987  30.9765006  65.5775017  71.2299987  29.7915006  66.1125017
  71.6039987  31.7815006  66.8735017  72.3699987  31.1785006  67.3545017
  72.1319987  32.5185006  66.2725017  70.7529987  32.5355006  67.9565017
  71.0049987  33.5905006  67.8635017  69.7059987  32.4475006  67.6785017
  70.9099987  32.1325006  69.4175017  70.1489987  32.6665006  69.9835017
  70.6479987  31.0775006  69.4775017  72.1919987  32.3245006  70.0415017
  72.9739987  31.8155006  69.4805017  72.4719987  33.3735006  70.0765017
  72.1589987  31.7775006  71.4755017  72.7259987  32.4515006  72.1075017
  71.1279987  31.8255006  71.8235017  72.6489987  30.3595006  71.6155017
  71.9989987  29.6115006  71.1875017  73.7859987  29.9275006  72.1895017
  74.0559987  28.8825006  72.2465017  74.8029987  30.8625006  72.8085017
  75.6069987  30.9345006  72.0775017  74.3579987  31.8495006  72.8685017
  75.4229987  30.4945006  74.1745017  76.0819987  29.6365006  74.0445017
  76.0579987  31.3185006  74.4955017  74.3979987  30.1905006  75.2735017
  73.5809987  30.9055006  75.1785017  73.9689987  29.2105006  75.0825017
  74.9469987  30.2375006  76.7075017  74.4459987  29.4665006  77.2885017
  76.0009987  29.9675006  76.6875017  74.7909987  31.5635006  77.3785017
  75.0449987  31.5585006  78.4365017  75.3629987  32.3765006  76.9405017
  73.3439987  31.8415006  77.2595017  73.0709987  32.8295006  77.6265017
  72.9899987  31.7935006  76.2315017  72.5159987  30.6875006  78.1635017
  71.4579987  30.9265006  78.0935017  72.6449987  29.7545006  77.6195017
  72.9409987  30.4275006  79.8265017  72.3799987  29.5965006  80.2425017
  72.7339987  31.2985006  80.4385017  73.9979987  30.1965006  79.9285017
  34.6599987  77.3075006  82.6785017  34.0139987  77.5635006  83.5125017
  35.5359987  77.9475006  82.7285017  34.9929987  76.2835006  82.8215017
  33.9099987  77.4735006  81.3015017  33.5999987  78.5055006  81.4585017
  33.0569987  76.8545006  81.5685017  34.2929987  77.2575006  79.7065017
  35.0789987  76.5035006  79.7455017  34.7869987  78.1945006  79.4555017
  33.3989987  76.9385006  78.6805017  32.5359987  77.6005006  78.6645017
  33.0019987  75.9275006  78.7555017  34.1479987  77.0875006  77.3735017
  34.7829987  77.9695006  77.4145017  33.4289987  77.2655006  76.5755017
  35.0179987  75.8595006  77.0125017  34.5689987  74.9775006  77.4655017
  35.9919987  75.9795006  77.4825017  35.2039987  75.6215006  75.5385017
  34.2999987  75.1975006  75.1045017  35.9949987  74.8925006  75.3675017
  35.5319987  76.8515006  74.8505017  36.3249987  77.4425006  75.3065017
  34.6979987  77.5325006  74.6905017  36.0119987  76.3205006  73.5035017
  35.3279987  76.2435006  72.6605017  36.6609987  75.4475006  73.4495017
  36.7289987  77.3955006  73.3785017  37.7299987  77.2745006  73.7875017
  36.2909987  78.2505006  73.8915017  36.8129987  77.7115006  71.7985017
  36.8739987  78.7875006  71.6515017  35.8969987  77.3905006  71.3055017
  37.9789987  77.0795006  71.1255017  37.6899987  76.0525006  71.3335017
  38.7149987  77.3465006  71.8815017  38.7459987  77.1885006  69.5215017
  39.5849987  76.5045006  69.6395017  39.1669987  78.1905006  69.5335017
  37.8779987  76.8325006  67.6405017  36.8599987  77.1025006  67.9015017
  37.9339987  75.7475006  67.6755017  38.1579987  77.2725006  66.2625017
  39.1809987  77.0425006  65.9915017  38.0059987  78.3415006  66.1695017
  36.9779987  77.6175006  65.4345017  36.4879987  78.7335006  65.3585017
  36.5359987  76.4735006  65.1895017  35.5059987  76.4975006  64.2655017
  35.8619987  75.8485006  63.4795017  35.3289987  77.4825006  63.8575017
  34.2279987  75.9245006  64.8905017  34.4699987  75.0925006  65.5305017
  33.3459987  75.4415006  63.7085017  32.4769987  74.9135006  64.0765017
  33.9299987  74.7655006  63.0965017  32.9529987  76.5785006  62.9535017
  31.6329987  76.6035006  62.1075017  31.9159987  77.8625006  61.1795017
  33.0139987  77.8415006  60.3075017  32.6469987  77.9635006  59.2965017
  33.4369987  76.8425006  60.3635017  34.2159987  78.8145006  60.5925017
  34.8419987  78.7505006  59.7115017  34.8099987  78.5635006  61.4595017
  33.8709987  80.2455006  60.7375017  33.1419987  80.7925006  59.5505017
  33.7009987  80.5455006  58.6585017  33.0859987  81.8655006  59.6595017
  32.1449987  80.3775006  59.5295017  33.0239987  80.3505006  61.9675017
  33.5249987  79.8355006  62.7735017  32.0589987  79.9215006  61.7665017
  32.9249987  81.4005006  62.2025017  35.1069987  81.0265006  61.0365017
  35.5579987  80.6455006  61.9405017  34.8459987  82.0655006  61.1725017
  35.8009987  80.9325006  60.2135017  31.6039987  75.3515006  61.3065017
  30.5079987  76.9135006  62.9855017  33.6099987  76.9105006  65.7375017
  32.5059987  76.4935006  66.3335017  32.1339987  75.3325006  66.4115017
  31.7829987  77.6985006  66.9495017  30.7599987  77.3805006  67.1225017
  32.2089987  77.8795006  67.9335017  31.8529987  78.9765006  66.0655017
  32.8549987  79.3835006  66.1415017  31.7239987  78.6895006  65.0265017
  30.8329987  80.0735006  66.4365017  30.9869987  80.9185006  65.7705017
  29.8439987  79.6835006  66.2075017  30.8459987  80.5415006  67.8855017
  30.0159987  81.2305006  68.0335017  30.6659987  79.7015006  68.5515017
  32.1119987  81.2305006  68.3055017  32.9699987  80.5615006  68.3075017
  32.3659987  82.0465006  67.6315017  31.9149987  81.7865006  69.6735017
  32.7719987  82.4195006  69.8995017  31.0459987  82.4385006  69.6655017
  31.7409987  80.7535006  70.7885017  31.4429987  81.2465006  71.7065017
  30.9299987  80.0745006  70.5275017  32.9899987  79.9525006  70.9865017
  33.9319987  80.4785006  70.9445017  33.0369987  78.6345006  71.2255017
  33.9979987  78.1555006  71.3505017  31.8639987  77.6995006  71.3505017
  30.9749987  78.2645006  71.6245017  31.6269987  77.1935006  70.4215017
  32.1299987  76.6485006  72.4555017  31.4419987  75.8165006  72.3115017
  33.1289987  76.2465006  72.2985017  32.0139987  77.1675006  73.9065017
  32.5069987  76.4665006  74.5795017  32.5479987  78.1085006  74.0045017
  30.5549987  77.3575006  74.3535017  30.1339987  78.2215006  73.8435017
  29.9599987  76.5005006  74.0415017  30.4279987  77.5365006  75.8945017
  30.8459987  76.6375006  76.3445017  31.0959987  78.3465006  76.1745017
  29.0389987  77.7665006  76.5035017  28.4209987  78.2585006  75.7535017
  28.5859987  76.7915006  76.6755017  28.9579987  78.6235006  77.8825017
  27.9099987  78.8005006  78.1135017  29.3279987  77.9695006  78.6695017
  29.7709987  80.0295006  77.9465017  29.7129987  80.4635006  78.9405017
  29.3739987  80.7595006  77.2495017  30.8209987  79.8845006  77.7095017
  77.1329987  75.5035006  81.1015017  78.1029987  75.5405006  81.5875017
  76.3799987  75.3805006  81.8745017  76.9639987  76.4665006  80.6285017
  77.0659987  74.3665006  80.0765017  77.3079987  73.4625006  80.6335017
  77.9019987  74.5445006  79.4065017  75.7889987  74.1335006  79.2725017
  74.9429987  74.5725006  79.8005017  75.5939987  73.0635006  79.2285017
  75.8289987  74.6745006  77.8525017  76.0339987  75.7415006  77.9085017
  74.8349987  74.5815006  77.4175017  76.8449987  74.0335006  76.9255017
  76.7899987  72.9485006  76.9665017  77.8569987  74.2995006  77.2265017
  76.6109987  74.4895006  75.4765017  76.5839987  75.5775006  75.4635017
  75.6209987  74.1575006  75.1725017  77.6489987  73.9945006  74.4535017
  77.7669987  72.9175006  74.5525017  78.6199987  74.4295006  74.6865017
  77.2739987  74.3345006  72.9905017  77.0669987  75.4005006  72.9085017
  76.3499987  73.8245006  72.7245017  78.3709987  73.9525006  71.9835017
  78.2889987  72.8875006  71.7765017  79.3389987  74.0955006  72.4615017
  78.3389987  74.7325006  70.6595017  79.2699987  74.5775006  70.1185017
  78.2749987  75.8025006  70.8575017  77.1559987  74.3115006  69.7945017
  76.2269987  74.4955006  70.3295017  77.1869987  73.2405006  69.6025017
  77.1009987  75.0595006  68.4655017  78.0049987  74.9295006  67.8765017
  76.9829987  76.1325006  68.6075017  75.8989987  74.5365006  67.7005017
  75.0269987  74.4455006  68.3455017  76.0629987  73.5535006  67.2685017
  75.5589987  75.5165006  66.5875017  76.4739987  75.7945006  66.0745017
  75.1709987  76.4195006  67.0505017  74.5669987  75.0325006  65.5905017
  73.6559987  74.7175006  66.0845017  74.9689987  74.1935006  65.0345017
  73.9119987  76.0125006  64.7435017  72.9689987  76.6345006  65.1445017
  74.5659987  76.0815006  63.5775017  74.2719987  77.1295006  62.6665017
  73.2149987  77.2805006  62.8235017  74.4359987  76.8095006  61.6475017
  75.0359987  78.4085006  62.9645017  74.6599987  79.2745006  62.4465017
  76.4909987  78.1415006  62.5475017  76.9969987  79.0845006  62.3925017
  76.4659987  77.6025006  61.6085017  77.1609987  77.3745006  63.5415017
  78.1689987  76.2265006  63.2105017  78.7979987  76.7215006  61.8425017
  79.9909987  76.0805006  61.3795017  80.7249987  76.0495006  62.1745017
  80.4159987  76.6955006  60.5915017  79.8059987  74.7195006  60.7615017
  79.3029987  74.0205006  61.4175017  80.8009987  74.3505006  60.5575017
  79.1069987  74.6605006  59.5245017  79.1059987  73.1525006  59.4105017
  80.1169987  72.7955006  59.5475017  78.7589987  72.8935006  58.4215017
  78.4319987  72.7455006  60.1495017  77.8109987  75.4375006  59.7835017
  78.0639987  76.3865006  60.2305017  77.1759987  74.8565006  60.4275017
  77.3319987  75.5945006  58.8275017  79.8559987  75.2375006  58.3535017
  80.0939987  76.2705006  58.5575017  79.2369987  75.1765006  57.4715017
  80.7659987  74.6765006  58.1955017  79.2339987  76.1885006  64.2235017
  77.4269987  74.9735006  62.9545017  74.8119987  78.6755006  64.3425017
  75.4259987  79.6435006  64.9205017  76.0639987  80.5455006  64.4295017
  75.2559987  79.3915006  66.4125017  74.1959987  79.2345006  66.5855017
  75.7409987  78.4515006  66.6655017  75.8099987  80.5425006  67.2575017
  76.8499987  80.6975006  66.9905017  75.2929987  81.4605006  66.9955017
  75.7099987  80.3005006  68.7735017  75.8299987  81.2255006  69.3315017
  74.7249987  79.9185006  69.0285017  76.7669987  79.2725006  69.2225017
  77.1339987  78.8175006  68.3045017  77.5989987  79.8375006  69.6355017
  76.3939987  78.1495006  70.2035017  75.5819987  77.5665006  69.7735017
  77.2449987  77.4745006  70.2775017  76.0119987  78.5905006  71.5825017
  75.0629987  79.1165006  71.4965017  75.8179987  77.7035006  72.1785017
  77.0059987  79.4665006  72.3245017  77.1309987  80.3865006  71.7655017
  76.5559987  79.7455006  73.2765017  78.3409987  78.8075006  72.5955017
  78.8169987  78.2485006  71.8045017  78.9789987  78.8815006  73.7445017
  79.9319987  78.4275006  73.9755017  78.3899987  79.6485006  74.8625017
  79.1859987  79.9535006  75.5405017  77.9109987  80.5615006  74.5255017
  77.3399987  78.7715006  75.6875017  76.5679987  78.5975006  74.9395017
  77.8839987  77.8335006  75.7855017  76.6619987  79.1275006  77.0745017
  75.6829987  78.6545006  77.1485017  77.2499987  78.7405006  77.9025017
  76.4719987  80.9315006  77.2555017  77.2479987  81.1455006  76.5245017
  75.5279987  80.9585006  76.7135017  76.4619987  82.1185006  78.4455017
  77.4969987  82.4215006  78.5945017  75.9559987  82.9855006  78.0305017
  75.8879987  81.7815006  79.7755017  76.6119987  81.1935006  80.3365017
  75.7439987  82.7005006  80.3405017  74.4459987  80.9525006  79.7415017
  73.9119987  81.8255006  79.3755017  74.7609987  80.4055006  78.8555017
  73.3939987  79.9835006  80.6305017  72.5699987  79.6405006  80.0115017
  72.9669987  80.5155006  81.4735017  73.9039987  79.1065006  81.0185017
  38.3159987  18.7915006  78.8575017  38.7479987  17.9145006  79.3295017
  37.5189987  18.4555006  78.2005017  37.8649987  19.3985006  79.6385017
  39.3859987  19.5945006  78.0755017  39.8159987  18.8885006  77.3675017
  40.1639987  19.8085006  78.8035017  38.9879987  20.8855006  77.3275017
  39.3109987  21.7615006  77.8895017  37.9029987  20.9505006  77.2655017
  39.5759987  20.9575006  75.8695017  39.3109987  20.0145006  75.3975017
  40.6599987  20.9485006  75.9735017  39.1599987  22.1155006  74.9295017
  39.4559987  23.0605006  75.3785017  38.0729987  22.1325006  74.8715017
  39.7489987  22.0345006  73.4915017  39.4089987  21.1595006  72.9405017
  40.8359987  21.9995006  73.4775017  39.2809987  23.2865006  72.7795017
  39.4839987  24.1065006  73.4655017  38.1969987  23.2015006  72.7195017
  39.8359987  23.6335006  71.4005017  39.2519987  24.4485006  70.9735017
  39.7029987  22.7825006  70.7345017  41.3069987  24.0275006  71.4225017
  41.8489987  23.3015006  72.0255017  41.4009987  24.9815006  71.9395017
  41.9669987  24.1335006  70.0375017  42.8719987  24.7285006  70.1395017
  41.3029987  24.6975006  69.3835017  42.2959987  22.7845006  69.3805017
  41.4139987  22.1485006  69.3525017  43.0449987  22.2375006  69.9515017
  42.7959987  22.9785006  67.9475017  43.7709987  23.4595006  67.9825017
  42.1289987  23.6785006  67.4465017  42.8709987  21.6975006  67.1185017
  43.3199987  21.9355006  66.1555017  41.8699987  21.3345006  66.9055017
  43.6869987  20.5685006  67.7545017  43.1929987  20.1065006  68.6035017
  44.6559987  20.9145006  68.1045017  43.9099987  19.5145006  66.6675017
  44.3719987  19.9605006  65.7965017  42.9659987  19.0715006  66.3715017
  42.6529987  18.7125006  66.4655017  42.1199987  18.1235006  67.3815017
  42.2509987  18.8705006  65.2025017  41.0229987  18.3305006  64.6955017
  40.9429987  17.3395006  65.1165017  41.1689987  18.2505006  63.6285017
  39.7999987  19.1245006  65.0085017  38.8719987  18.5775006  65.0225017
  39.7379987  20.2215006  63.9555017  38.8089987  20.7725006  64.0185017
  39.8119987  19.7765006  62.9705017  40.8399987  21.0795006  64.1935017
  41.3399987  22.1215006  63.1465017  41.5949987  21.2235006  61.8515017
  42.9119987  20.8755006  61.4945017  42.9539987  19.9455006  60.9435017
  43.5069987  20.7285006  62.3915017  43.6239987  22.0205006  60.7145017
  44.5629987  21.5845006  60.3975017  43.8319987  22.8465006  61.3785017
  43.0039987  22.6395006  59.4535017  41.6949987  23.3415006  59.6915017
  41.0369987  22.6715006  60.2275017  41.2659987  23.5815006  58.7305017
  41.8799987  24.2515006  60.2425017  43.9659987  23.6945006  58.9995017
  44.9539987  23.2625006  58.9585017  43.9269987  24.5225006  59.6845017
  43.6579987  24.0095006  58.0135017  42.8029987  21.5805006  58.4035017
  43.7539987  21.1225006  58.1735017  42.3959987  22.0365006  57.5135017
  42.1159987  20.8325006  58.7725017  40.2969987  23.0965006  62.7835017
  42.6329987  22.6585006  63.6095017  40.0079987  19.6765006  66.3335017
  39.0319987  19.5515006  67.1075017  38.0339987  18.9205006  66.8705017
  39.2129987  20.2065006  68.4305017  40.2059987  19.9845006  68.8075017
  39.1629987  21.2895006  68.3435017  38.0929987  19.6655006  69.3775017
  37.9119987  20.3335006  70.2125017  37.1389987  19.5495006  68.8745017
  38.5399987  18.3895006  69.8815017  37.6509987  17.8225006  70.1465017
  38.9899987  17.8715006  69.0375017  39.5239987  18.3815006  71.0335017
  39.1229987  19.0165006  71.8215017  39.5859987  17.3805006  71.4525017
  40.9089987  18.8555006  70.7035017  41.2489987  18.4235006  69.7645017
  40.9039987  19.9335006  70.5565017  41.9059987  18.5195006  71.8055017
  41.7789987  19.1795006  72.6625017  41.7799987  17.5065006  72.1775017
  43.3279987  18.6675006  71.2595017  43.4559987  18.0775006  70.3595017
  43.5109987  19.7035006  70.9765017  44.3239987  18.2745006  72.3105017
  44.2909987  17.2595006  72.6765017  45.2629987  19.0775006  72.8245017
  45.9359987  18.6995006  73.5805017  45.5009987  20.4865006  72.4575017
  46.5739987  20.6455006  72.3645017  45.0739987  20.7295006  71.4915017
  44.9759987  21.4335006  73.4835017  43.9439987  21.3355006  73.8195017
  45.5709987  21.6075006  74.3785017  45.0949987  22.6195006  72.5735017
  46.1359987  22.7745006  72.2895017  44.5489987  22.4535006  71.6485017
  44.6449987  23.6935006  73.1555017  44.4319987  24.4235006  72.3775017
  43.6889987  23.4525006  73.6165017  45.6939987  24.3875006  74.3455017
  46.1629987  23.5225006  74.8095017  46.4719987  24.8675006  73.7585017
  44.9039987  25.9705006  76.2325017  44.9629987  27.0105006  75.9165017
  43.8589987  25.7885006  76.4745017  45.8139987  25.7855006  77.6305017
  46.6999987  26.3125006  77.2845017  45.2539987  26.5055006  78.2225017
  46.2629987  24.5405006  78.6015017  46.7999987  24.9045006  79.4715017
  46.9129987  23.8395006  78.0885017  45.3959987  23.9885006  78.9545017
  62.7599987  86.5945006  79.1775017  61.8339987  86.4175006  79.7155017
  62.5919987  87.4195006  78.4905017  63.5059987  86.9145006  79.9005017
  63.1749987  85.4595006  78.5045017  62.5429987  85.0965006  77.6955017
  63.4349987  84.5905006  79.1025017  64.4299987  86.0845006  77.9165017
  65.0649987  86.5235006  78.6855017  64.1819987  86.8935006  77.2325017
  65.1649987  85.1085006  77.2075017  64.3329987  84.6135006  76.7115017
  65.4409987  84.4685006  78.0445017  66.3499987  85.1955006  76.2165017
  67.1169987  85.5905006  76.8775017  66.0069987  86.0335006  75.6115017
  66.9969987  84.1035006  75.2755017  66.5249987  83.1865006  75.6225017
  68.0249987  84.0685006  75.6285017  66.9889987  84.1295006  73.6815017
  66.6219987  83.1275006  73.4675017  68.0579987  84.1115006  73.4765017
  66.2809987  85.1715006  72.6995017  67.1889987  85.6135006  72.2925017
  65.9239987  85.8595006  73.4635017  65.2149987  85.0595006  71.5725017
  64.8789987  86.0855006  71.4355017  64.3909987  84.5305006  72.0505017
  65.4779987  84.4635006  70.2765017  66.1449987  83.6635006  70.5905017
  66.1119987  85.2395006  69.8495017  64.5089987  83.9475006  69.1935017
  63.5479987  83.6045006  69.5705017  64.8899987  83.1455006  68.5635017
  64.2959987  85.0765006  68.4185017  63.9049987  85.8715006  69.0485017
  63.5189987  84.8565006  67.6895017  65.5249987  85.5525006  67.6845017
  65.9259987  84.8315006  66.9745017  66.3599987  85.8645006  68.3055017
  65.0179987  86.7445006  66.9035017  64.1209987  86.4475006  66.3695017
  65.7669987  86.9795006  66.1525017  64.7229987  88.0215006  67.7205017
  65.5959987  88.3185006  68.2885017  63.9029987  87.8485006  68.4075017
  64.0419987  89.1235006  66.8975017  64.0999987  90.3205006  67.1315017
  63.3479987  88.5735006  65.9335017  62.9059987  89.5185006  64.9445017
  63.0389987  90.4405006  65.4905017  61.8499987  89.3445006  64.7975017
  63.6359987  89.5835006  63.6165017  63.2949987  90.4395006  63.0585017
  63.4989987  88.3085006  62.7565017  63.8129987  88.5195006  61.7435017
  62.4529987  88.0305006  62.7445017  64.2859987  87.2585006  63.3145017
  64.4389987  85.9395006  62.4605017  65.2159987  86.5495006  61.2185017
  65.4549987  85.7365006  60.0815017  65.4109987  86.3265006  59.1755017
  64.6579987  85.0025006  60.0105017  66.7569987  84.9145006  60.1445017
  66.8849987  84.3935006  59.2035017  66.6469987  84.1845006  60.9335017
  68.0739987  85.6185006  60.4085017  68.0239987  86.3275006  61.7205017
  67.1339987  86.9405006  61.7475017  68.8999987  86.9545006  61.7935017
  68.0339987  85.5965006  62.5145017  69.1249987  84.5695006  60.4425017
  69.0209987  83.9515006  59.5635017  69.0169987  83.9925006  61.3435017
  70.0819987  85.0705006  60.4325017  68.3589987  86.6565006  59.3765017
  68.3819987  86.1925006  58.4015017  69.3169987  87.1095006  59.5845017
  67.5879987  87.4125006  59.4035017  65.3329987  85.0085006  63.1875017
  63.0879987  85.4825006  62.0845017  64.9339987  89.8525006  63.9975017
  65.6959987  90.3355006  63.0835017  65.4989987  90.4525006  61.8965017
  66.9239987  90.7835006  63.7735017  67.7769987  90.7505006  63.1035017
  66.8589987  91.8115006  64.1215017  67.0819987  89.8045006  64.9585017
  66.5299987  90.1855006  65.8105017  66.6289987  88.8505006  64.7105017
  68.4819987  89.6055006  65.3445017  68.9849987  89.1945006  64.4735017
  68.8899987  90.6035006  65.4865017  68.8179987  88.7325006  66.6305017
  68.5149987  87.7205006  66.3685017  69.9019987  88.7135006  66.7125017
  68.2139987  89.0795006  68.0255017  67.1519987  89.2165006  67.8345017
  68.3029987  88.1505006  68.5855017  68.7069987  90.1865006  68.8675017
  69.7319987  89.9515006  69.1495017  68.7539987  91.0885006  68.2635017
  67.9509987  90.4625006  70.0355017  67.8219987  89.5145006  70.5445017
  68.5949987  91.0675006  70.6725017  66.6259987  91.1775006  69.8675017
  66.4519987  91.9025006  69.0865017  65.6719987  90.9305006  70.6385017
  64.7269987  91.4455006  70.5445017  65.7109987  89.9285006  71.7425017
  64.8069987  89.3415006  71.5885017  66.5429987  89.2685006  71.5245017
  65.7659987  90.3475006  73.2185017  66.5219987  91.1195006  73.3545017
  64.8159987  90.8005006  73.4965017  66.0539987  89.1915006  74.1445017
  65.1099987  88.6635006  74.2775017  66.7079987  88.5125006  73.6035017
  66.6649987  89.4995006  75.5325017  66.4419987  88.6005006  76.1035017
  67.7379987  89.4855006  75.3495017  66.3349987  90.6525006  76.2945017
  67.2589987  91.2235006  76.2325017  65.6319987  91.1535006  75.6345017
  65.8109987  90.7235006  77.8145017  66.4179987  91.5195006  78.2435017
  64.8089987  91.1345006  77.7045017  65.7589987  89.6825006  78.7105017
  64.7969987  89.1785006  78.6695017  66.4969987  88.9355006  78.4265017
  66.0349987  90.1215006  80.1235017  66.0739987  89.2665006  80.7925017
  65.2679987  90.7915006  80.4975017  66.9879987  90.6395006  80.1925017
  86.2639987  31.2865006  80.0655017  85.6659987  31.5255006  80.9395017
  87.1429987  30.7455006  80.4035017  85.6829987  30.6125006  79.4415017
  86.6699987  32.6015006  79.2645017  87.2489987  33.2825006  79.8855017
  85.7899987  33.1535006  78.9445017  87.4219987  32.2355006  78.1715017
  87.1869987  31.2255006  77.8365017  88.4839987  32.2345006  78.4095017
  87.1859987  33.2065006  77.0345017  87.8909987  32.9575006  76.2445017
  87.4589987  34.2025006  77.3785017  85.7849987  33.2445006  76.4425017
  85.8199987  33.9145006  75.5865017  85.1559987  33.7315006  77.1855017
  85.1319987  31.9235006  76.0135017  84.7419987  31.3905006  76.8785017
  85.8659987  31.2635006  75.5555017  83.9859987  32.1805006  75.0145017
  83.2229987  32.7385006  75.5545017  83.5489987  31.2095006  74.7875017
  84.3139987  32.9105006  73.6985017  84.5619987  33.9495006  73.9105017
  83.4309987  32.9315006  73.0625017  85.4709987  32.2615006  72.9335017
  85.3239987  31.1835006  72.9205017  86.3969987  32.4355006  73.4805017
  85.6309987  32.7735006  71.4855017  86.6319987  32.4995006  71.1595017
  85.6099987  33.8625006  71.5225017  84.5889987  32.2805006  70.4615017
  83.5969987  32.3505006  70.9025017  84.7509987  31.2255006  70.2485017
  84.5899987  33.0785006  69.1275017  85.6249987  33.1575006  68.8045017
  84.2689987  34.0905006  69.3675017  83.7099987  32.5415006  67.9705017
  83.6549987  33.3235006  67.2155017  82.6969987  32.4015006  68.3385017
  84.1769987  31.2465006  67.2795017  83.4179987  30.9435006  66.5665017
  84.2219987  30.4705006  68.0395017  85.5599987  31.3175006  66.5585017
  86.3279987  31.6515006  67.2445017  85.5159987  32.0075006  65.7245017
  85.9639987  30.0315006  65.8635017  87.0989987  29.7345006  65.5215017
  84.8789987  29.3335006  65.7245017  84.9889987  28.2465006  64.8345017
  84.3869987  27.4865006  65.3095017  86.0079987  27.8955006  64.7625017
  84.4179987  28.5865006  63.4315017  84.3729987  27.6035006  62.9915017
  85.2229987  29.5185006  62.5345017  84.7759987  29.5885006  61.5525017
  86.2269987  29.1265006  62.4315017  85.2509987  30.7785006  63.1525017
  84.9869987  32.0495006  62.3155017  83.7049987  31.7265006  61.4355017
  82.4109987  32.0445006  61.9335017  82.2849987  31.8195006  62.9845017
  81.6479987  31.4805006  61.4045017  82.0909987  33.5435006  61.6385017
  82.9509987  34.0915006  62.0025017  81.2099987  33.8955006  62.1555017
  81.9149987  33.9695006  60.1625017  81.7089987  35.4475006  60.0205017
  80.9149987  35.7515006  60.6885017  81.4209987  35.6475006  58.9995017
  82.6369987  35.9535006  60.2405017  83.1529987  33.6685006  59.4045017
  83.4369987  32.6465006  59.6035017  83.9239987  34.3565006  59.7035017
  82.9279987  33.7925006  58.3555017  80.7929987  33.2325006  59.5095017
  80.9849987  32.1715006  59.5635017  80.7239987  33.5355006  58.4755017
  79.8669987  33.4635006  60.0165017  84.6569987  33.1615006  63.2395017
  86.1529987  32.2325006  61.4165017  83.0739987  29.1475006  63.5325017
  82.1219987  28.5265006  64.1995017  82.1829987  27.4995006  64.8125017
  80.8439987  29.3155006  64.1715017  80.9519987  30.0505006  63.3805017
  80.0389987  28.6555006  63.8565017  80.5249987  29.9715006  65.5265017
  81.4359987  30.3265006  65.9965017  79.8939987  30.8445006  65.3975017
  79.8409987  28.9695006  66.4555017  79.0899987  28.4365006  65.8775017
  80.5899987  28.2315006  66.7325017  79.2139987  29.5375006  67.7385017
  78.4309987  30.2505006  67.4875017  78.7389987  28.7615006  68.3345017
  80.2609987  30.2545006  68.6025017  81.1679987  29.6545006  68.6335017
  80.5309987  31.1855006  68.1075017  79.8129987  30.5715006  70.0325017
  78.8969987  31.1595006  70.0085017  79.5789987  29.6605006  70.5755017
  80.8919987  31.3435006  70.8095017  81.8659987  30.9115006  70.6105017
  80.9299987  32.3685006  70.4425017  80.6039987  31.3725006  72.2825017
  80.0109987  32.1935006  72.6565017  80.9989987  30.4825006  73.1485017
  80.7779987  30.5315006  74.2055017  81.7759987  29.3325006  72.7635017
  81.8089987  29.1115006  71.6985017  82.7889987  29.2115006  73.1305017
  80.9069987  28.3515006  73.4065017  79.8379987  28.5345006  73.3055017
  81.0689987  27.3235006  73.0895017  81.3019987  28.4915006  74.8325017
  80.6099987  29.2885006  75.1035017  80.8649987  27.5695006  75.2075017
  82.9519987  28.7905006  75.6765017  83.5869987  27.9575006  75.3815017
  83.3759987  29.6775006  75.2085017  82.9889987  28.9855006  77.4425017
  82.9079987  28.0475006  77.9885017  83.8759987  29.4795006  77.8305017
  81.7559987  29.8135006  77.7535017  81.9129987  30.8835006  77.6275017
  80.9019987  29.5585006  77.1285017  81.4069987  29.5605006  79.1305017
  81.1149987  28.5595006  79.4385017  82.1029987  29.9125006  79.8895017
  80.3029987  30.3795006  79.1295017  79.8709987  30.4455006  80.1235017
  79.5289987  30.0155006  78.4625017  80.5639987  31.3855006  78.8145017
  23.1549987  76.0315006  78.8305017  22.9279987  76.1505006  79.8855017
  24.0279987  75.3905006  78.7495017  22.3199987  75.5105006  78.3695017
  23.3949987  77.3675006  78.1665017  24.2119987  77.8625006  78.6875017
  22.5129987  77.9815006  78.3285017  23.7139987  77.2985006  76.7025017
  23.7389987  78.2815006  76.2325017  22.9719987  76.7215006  76.1545017
  25.0709987  76.6255006  76.5335017  25.1289987  75.6965006  77.0965017
  25.8909987  77.2465006  76.8905017  25.2789987  76.3155006  75.0645017
  26.2719987  76.6325006  74.7565017  24.5749987  76.8995006  74.4745017
  25.1049987  74.8205006  74.7295017  24.0609987  74.5675006  74.5565017
  25.4409987  74.1845006  75.5455017  25.9209987  74.4985006  73.4685017
  25.8359987  73.4375006  73.2385017  26.9769987  74.6845006  73.6595017
  25.4679987  75.3295006  72.2335017  25.4649987  76.3835006  72.5085017
  24.4359987  75.0725006  72.0025017  26.3399987  75.1335006  70.9645017
  26.3659987  74.0635006  70.7715017  27.3549987  75.4165006  71.2405017
  25.9369987  75.8775006  69.6715017  26.7859987  75.8535006  68.9925017
  25.7729987  76.9265006  69.9185017  24.6829987  75.3205006  68.9685017
  24.2229987  76.1505006  68.4365017  23.9749987  75.0275006  69.7425017
  24.8689987  74.1395006  67.9685017  25.2779987  73.2965006  68.5195017
  25.6339987  74.4335006  67.2525017  23.5999987  73.7025006  67.1875017
  22.8429987  73.3635006  67.8935017  23.8159987  72.8545006  66.5435017
  22.9849987  74.8375006  66.3375017  23.7519987  75.2435006  65.6865017
  22.6919987  75.6365006  67.0135017  21.7599987  74.4375006  65.4905017
  20.9939987  73.9985006  66.1165017  22.0439987  73.7175006  64.7325017
  21.1279987  75.6025006  64.7025017  20.2199987  75.4615006  63.8995017
  21.6949987  76.7655006  64.9635017  21.1169987  77.9005006  64.2695017
  20.2189987  78.2725006  64.7395017  20.8799987  77.5685006  63.2695017
  22.1969987  78.9925006  64.2455017  21.7449987  79.9635006  64.1265017
  23.2289987  78.7735006  63.1705017  23.7639987  79.6995006  63.0085017
  22.6919987  78.5205006  62.2645017  24.1329987  77.7295006  63.5205017
  25.6019987  77.7355006  62.8905017  25.4939987  76.6135006  61.7755017
  24.7609987  75.4245006  62.0595017  24.2189987  75.4465006  62.9955017
  25.4149987  74.5585006  62.1035017  23.8189987  75.1565006  60.8855017
  23.2109987  76.0365006  60.7135017  23.1689987  74.3245006  61.1155017
  24.4629987  74.8265006  59.5385017  23.3409987  74.4425006  58.6305017
  22.7419987  73.6885006  59.1215017  23.7689987  74.0355006  57.7265017
  22.7639987  75.3245006  58.3935017  25.2319987  76.0075006  58.9855017
  25.8859987  76.3825006  59.7575017  24.5349987  76.7595006  58.6605017
  25.8139987  75.6505006  58.1485017  25.4429987  73.6835006  59.6405017
  26.2119987  73.9375006  60.3545017  25.8899987  73.5125006  58.6725017
  24.9249987  72.7915006  59.9615017  25.7789987  79.0395006  62.2265017
  26.5559987  77.2765006  63.9135017  22.9549987  78.9115006  65.4965017
  22.1319987  79.3085006  66.3795017  21.2299987  79.9895006  65.9875017
  22.6099987  79.1135006  67.8415017  22.0629987  78.2255006  68.1405017
  23.6459987  78.8025006  67.7365017  22.4749987  80.2355006  68.8605017
  22.8739987  81.1235006  68.3835017  21.4119987  80.4145006  68.9865017
  23.1639987  80.0535006  70.2815017  23.9209987  79.2775006  70.1995017
  23.6969987  80.9745006  70.5055017  22.2529987  79.7545006  71.4005017
  21.8289987  80.7175006  71.6805017  21.4349987  79.1725006  70.9815017
  22.7699987  79.0385006  72.7115017  23.2539987  78.1205006  72.3835017
  23.5619987  79.6775006  73.0965017  21.7609987  78.7085006  73.8965017
  21.1429987  77.8405006  73.6725017  22.2649987  78.4925006  74.8345017
  20.8789987  79.9085006  74.0905017  19.9789987  79.9215006  73.4875017
  20.5599987  80.0615006  75.1205017  21.8469987  81.0765006  73.6865017
  21.8479987  81.2965006  72.6295017  22.6779987  81.8575006  74.5025017
  23.3349987  82.5545006  74.0035017  22.8069987  81.8765006  76.2085017
  23.1639987  80.8505006  76.1435017  23.6809987  82.5095006  76.1015017
  21.8989987  82.1845006  78.2685017  22.5359987  83.0615006  78.3785017
  20.9919987  82.5275006  77.7745017  21.5049987  81.5805006  79.7945017
  22.5119987  81.5145006  80.2055017  21.0619987  82.4775006  80.2185017
  20.7289987  80.4015006  80.2205017  19.8869987  80.6925006  79.5965017
  21.3369987  79.7295006  79.6175017  20.3109987  79.7785006  81.2525017
  21.1279987  79.6125006  81.9525017  19.5709987  80.3625006  81.7925017
  19.7299987  78.4155006  80.8775017  20.3029987  78.0215006  80.0405017
  19.9039987  77.7355006  81.7095017  18.1299987  78.3645006  80.4865017
  17.4119987  78.0865006  81.2535017  17.7249987  79.2555006  80.0105017
  18.2099987  77.3565006  79.5455017  17.2479987  77.1995006  79.0665017
  18.5109987  76.4125006  79.9875017  18.9299987  77.6025006  78.7695017
  82.4039987  41.2255006  77.7555017  81.6349987  41.3435006  78.5125017
  82.1699987  40.3325006  77.1835017  82.3369987  42.0745006  77.0815017
  83.7179987  41.1365006  78.3505017  83.9109987  40.2755006  78.9875017
  84.0659987  42.0065006  78.9005017  84.4849987  40.9905006  77.0855017
  84.1669987  40.0895006  76.5605017  85.5379987  40.8465006  77.3195017
  84.3559987  42.2005006  76.1425017  84.6679987  43.0865006  76.6915017
  83.3029987  42.3475006  75.9055017  85.1629987  42.1205006  74.8405017
  84.9709987  41.1875006  74.3175017  86.2299987  42.1345006  75.0575017
  84.8189987  43.2945006  73.9075017  85.0209987  44.2405006  74.4075017
  83.7549987  43.2925006  73.6795017  85.6159987  43.2325006  72.5995017
  85.8399987  42.1935006  72.3645017  86.5769987  43.7265006  72.7415017
  84.8939987  43.8685006  71.4225017  84.8059987  44.9415006  71.5875017
  83.8769987  43.4845006  71.3685017  85.5939987  43.6205006  70.0945017
  85.6709987  42.5495006  69.9215017  86.6159987  43.9935006  70.1495017
  84.8599987  44.2945006  68.8745017  85.0489987  45.3645006  68.9315017
  83.7879987  44.1655006  69.0205017  85.2409987  43.7745006  67.5085017
  84.5729987  44.1785006  66.7515017  85.1359987  42.6925006  67.4585017
  86.5579987  44.1285006  67.1705017  87.1299987  43.8525006  68.0535017
  86.5309987  45.2165006  67.1535017  87.3139987  43.6065006  65.8275017
  88.3519987  43.9195006  65.9295017  86.9069987  44.1685006  64.9915017
  87.3039987  42.2335006  65.5075017  87.9649987  41.9395006  64.6985017
  86.3189987  41.8435006  65.2655017  87.7749987  41.5885006  66.7965017
  87.1489987  41.8955006  67.6245017  88.7979987  41.8745006  67.0095017
  87.3549987  40.1315006  66.6945017  87.9019987  39.1275006  67.1135017
  86.2229987  40.0885006  65.9875017  85.6999987  38.7835006  65.7035017
  85.5629987  38.3015006  66.6595017  86.4149987  38.2185006  65.1235017
  84.3349987  38.8955006  64.9535017  83.9209987  37.9085006  64.8285017
  84.5019987  39.5795006  63.5635017  83.6049987  39.4135006  62.9825017
  85.3319987  39.0915006  63.0675017  84.7569987  40.9805006  63.7005017
  84.0859987  42.1425006  62.8285017  84.8759987  42.0835006  61.4425017
  86.2859987  41.9245006  61.4555017  86.7319987  42.2125006  62.3985017
  86.7399987  42.5535006  60.6955017  86.6809987  40.4725006  61.0715017
  86.3859987  39.7785006  61.8485017  87.7569987  40.4535006  60.9795017
  86.1379987  39.8905006  59.7655017  86.3949987  40.9155006  58.7265017
  86.0109987  41.8645006  59.0755017  85.8719987  40.6195006  57.8295017
  87.4559987  40.9575006  58.5305017  86.8229987  38.6285006  59.4065017
  86.8169987  37.9785006  60.2675017  87.8259987  38.8515006  59.0885017
  86.2659987  38.1775006  58.5975017  84.6719987  39.6625006  59.7605017
  84.4139987  38.9905006  60.5655017  84.3839987  39.2245006  58.8165017
  84.1599987  40.6045006  59.8925017  82.7229987  41.7535006  62.5115017
  84.3339987  43.4125006  63.5295017  83.4509987  39.6505006  65.7655017
  82.4799987  40.3685006  65.2175017  81.8539987  40.1855006  64.2095017
  81.9279987  41.4055006  66.0815017  81.9389987  42.2965006  65.4625017
  80.8799987  41.1515006  66.2185017  82.6279987  41.6375006  67.4425017
  83.6439987  41.8385006  67.1195017  82.2109987  42.5955006  67.7365017
  82.6639987  40.6625006  68.6885017  81.6679987  40.6065006  69.1205017
  82.8929987  39.6645006  68.3235017  83.6619987  41.0255006  69.7455017
  84.6529987  40.8665006  69.3245017  83.5869987  42.0905006  69.9515017
  83.5699987  40.2525006  71.0775017  83.9959987  40.8535006  71.8785017
  82.5199987  40.1125006  71.3285017  84.2519987  38.8865006  71.0525017
  84.3549987  38.5145006  72.0705017  83.6379987  38.1635006  70.5225017
  85.6229987  38.9355006  70.3945017  85.5849987  39.3315006  69.3865017
  86.3099987  39.5735006  70.9485017  86.1389987  37.5785006  70.4045017
  85.8619987  36.8705006  69.6375017  86.9549987  37.1685006  71.3155017
  87.2739987  36.1405006  71.2255017  87.5409987  37.8865006  72.4825017
  87.6539987  38.9395006  72.2295017  86.8939987  37.8515006  73.3525017
  88.8769987  37.3485006  72.8395017  88.8139987  36.3185006  73.1895017
  89.5339987  37.3345006  71.9725017  89.5069987  38.2285006  73.9395017
  90.5389987  37.9065006  74.0775017  89.5539987  39.2515006  73.5775017
  88.7919987  38.1985006  75.2745017  87.7269987  38.3175006  75.0905017
  88.9159987  37.2105006  75.7145017  89.2369987  39.1805006  76.1965017
  89.3419987  38.7465006  77.1895017  90.2229987  39.5515006  75.9295017
  88.2039987  40.3955006  76.2975017  88.1949987  40.7885006  75.2825017
  87.2509987  39.8865006  76.4325017  88.2729987  41.6445006  77.3335017
  89.3409987  41.8435006  77.2915017  87.8079987  42.3905006  76.6925017
  87.7439987  41.8595006  78.8515017  87.9099987  42.8825006  79.1765017
  88.2529987  41.2085006  79.5545017  86.6789987  41.6575006  78.9265017
  71.1069987  80.0125006  77.6535017  70.6109987  80.6575006  78.3725017
  70.6979987  79.0125006  77.7675017  70.8449987  80.3635006  76.6585017
  72.3659987  80.0155006  77.8225017  72.5329987  79.7065006  78.8535017
  72.6689987  81.0575006  77.7625017  72.9889987  79.4015006  77.1555017
  72.6849987  78.3595006  77.2555017  74.0159987  79.4515006  77.5135017
  72.9709987  79.7905006  75.6865017  71.9509987  79.7135006  75.3165017
  73.5559987  79.0735006  75.1115017  73.4569987  81.1235006  75.4245017
  74.3919987  81.0775006  75.9765017  72.7579987  81.6725006  76.0525017
  73.6749987  81.8635006  74.1875017  73.3479987  81.3005006  73.3155017
  74.7279987  82.0865006  74.0285017  72.9079987  83.1415006  74.2655017
  73.4339987  83.8635006  74.8875017  71.9419987  82.9775006  74.7405017
  72.6889987  83.7425006  72.8595017  72.1779987  83.0265006  72.2175017
  73.6449987  83.9505006  72.3825017  71.8819987  85.0115006  72.9275017
  72.1569987  85.5375006  73.8395017  70.8329987  84.7385006  73.0395017
  72.0329987  85.9505006  71.7385017  73.0799987  86.2375006  71.6705017
  71.4789987  86.8645006  71.9545017  71.5569987  85.3775006  70.3965017
  72.2819987  84.6095006  70.1365017  71.6859987  86.1755006  69.6665017
  70.1479987  84.7815006  70.2515017  69.4259987  85.3885006  70.7925017
  70.1179987  83.7945006  70.7085017  69.7299987  84.6525006  68.7685017
  69.7709987  85.6395006  68.3115017  68.6949987  84.3295006  68.7015017
  70.5999987  83.7125006  67.9375017  70.6439987  82.7315006  68.3995017
  71.6169987  84.0945006  67.9145017  70.0949987  83.5675006  66.4795017
  70.0119987  84.5385006  66.0085017  69.1229987  83.0885006  66.4625017
  70.9969987  82.6115006  65.7025017  72.0499987  82.1855006  66.1285017
  70.4269987  82.3395006  64.5555017  71.2909987  81.8135006  63.5435017
  70.6739987  81.1995006  62.9075017  72.0969987  81.2155006  63.9425017
  71.8199987  82.9835006  62.7835017  71.0279987  83.6775006  62.5565017
  72.5459987  82.5675006  61.5035017  71.9559987  81.8465006  60.9535017
  73.4879987  82.1035006  61.7745017  72.7669987  83.7235006  60.7335017
  74.0029987  83.9335006  59.7825017  75.2119987  83.1535006  60.4235017
  76.5149987  83.7255006  60.5955017  77.0059987  84.2055006  59.7555017
  77.0509987  82.8165006  60.8185017  76.5799987  84.6295006  61.8615017
  75.6509987  85.1775006  61.9115017  77.7189987  85.6325006  61.8235017
  78.3769987  85.2585006  62.5095017  78.1369987  85.7465006  60.8765017
  77.4269987  86.5355006  62.1505017  76.4829987  83.8475006  63.2025017
  73.6609987  83.3385006  58.4725017  74.2589987  85.3945006  59.8035017
  72.6829987  83.6335006  63.6925017  72.8669987  84.9115006  63.5805017
  72.2629987  85.6775006  62.8395017  77.2949987  84.1585006  64.1245017
  75.5899987  82.9855006  63.3285017  73.7589987  85.3515006  64.7445017
  73.9579987  84.5035006  65.3915017  74.7299987  85.6935006  64.3955017
  73.0129987  86.4665006  65.4775017  73.0519987  87.3595006  64.8625017
  71.9639987  86.1965006  65.5495017  73.5609987  86.7915006  66.8655017
  72.9539987  87.5935006  67.2785017  73.3729987  85.9185006  67.4865017
  75.0509987  87.1535006  66.9665017  75.6249987  86.3805006  66.4585017
  75.2439987  88.0785006  66.4285017  75.5939987  87.2925006  68.4145017
  76.6809987  87.2675006  68.3705017  75.3279987  88.2875006  68.7655017
  75.1009987  86.2605006  69.4425017  75.4669987  86.5505006  70.4265017
  74.0159987  86.2895006  69.4985017  75.5409987  84.8145006  69.1405017
  74.9269987  84.1255006  69.7085017  75.3489987  84.6015006  68.0895017
  77.0129987  84.5915006  69.4185017  77.6979987  84.7075006  68.5915017
  77.5429987  84.2735006  70.6135017  78.6139987  84.1495006  70.6845017
  76.8089987  84.0625006  71.9225017  75.7659987  83.8795006  71.6695017
  77.1689987  83.1585006  72.4005017  76.8639987  85.2255006  72.9245017
  77.8939987  85.4065006  73.2295017  76.5279987  86.1385006  72.4365017
  76.0139987  84.9735006  74.1455017  74.9929987  84.7745006  73.8185017
  76.3589987  84.0655006  74.6325017  76.0049987  86.0845006  75.1235017
  76.9929987  86.4115006  75.4385017  75.4789987  86.9785006  74.7935017
  75.2519987  85.4645006  76.3155017  75.2409987  84.3815006  76.2095017
  75.7869987  85.6665006  77.2395017  73.8139987  85.9365006  76.4345017
  73.7089987  86.9475006  76.0465017  73.1579987  85.3115006  75.8315017
  73.3259987  85.9165006  77.8335017  72.2439987  86.0115006  77.7835017
  73.5189987  84.9015006  78.1755017  73.8619987  86.8725006  78.8445017
  73.4589987  86.6575006  79.8295017  73.6079987  87.8995006  78.6065017
  74.9439987  86.8065006  78.9085017  21.7899987  67.0045006  82.9485017
  21.3189987  66.7505006  83.8935017  21.3099987  67.9025006  82.5705017
  22.8289987  67.2475006  83.1515017  21.6909987  65.9725006  82.0485017
  20.6309987  65.7535006  81.9325017  22.1319987  65.1015006  82.5265017
  22.2869987  66.1775006  80.7275017  21.6559987  66.8405006  80.1355017
  22.3089987  65.2285006  80.1955017  23.6629987  66.7235006  80.7715017
  24.1829987  66.3415006  81.6475017  23.6429987  67.8065006  80.8805017
  24.4839987  66.3485006  79.5035017  23.7969987  66.3685006  78.6615017
  24.7819987  65.3085006  79.6305017  25.7069987  67.1815006  79.1615017
  26.5709987  66.9845006  79.7925017  25.5399987  68.2555006  79.2015017
  26.0219987  66.7825006  77.7525017  25.1839987  66.8425006  77.0615017
  26.4359987  65.7815006  77.6415017  27.0049987  67.7405006  77.3825017
  28.0169987  67.4965006  77.7025017  26.8089987  68.7505006  77.7375017
  26.9389987  67.7215006  75.8165017  26.1809987  67.0435006  75.4295017
  27.8789987  67.4235006  75.3525017  26.6109987  69.1085006  75.4085017
  26.9619987  69.6855006  76.2615017  25.5229987  69.1185006  75.4615017
  27.0359987  69.7435006  74.1675017  27.1619987  68.9225006  73.4645017
  28.0359987  70.1255006  74.3675017  26.2259987  70.8075006  73.5065017
  26.8409987  71.5235006  72.9665017  25.6499987  71.3845006  74.2275017
  25.2559987  70.1165006  72.5465017  24.4759987  70.8515006  72.3525017
  24.7859987  69.3155006  73.1095017  25.7309987  69.5695006  71.2055017
  25.8999987  68.5105006  71.3675017  26.7059987  70.0245006  71.0545017
  24.9069987  69.7575006  69.9375017  24.6969987  70.8065006  69.7745017
  23.9679987  69.2225006  70.0155017  25.6629987  69.4285006  68.6685017
  26.3609987  68.4675006  68.6815017  25.4299987  70.1695006  67.5975017
  26.2019987  69.7295006  66.4375017  27.1979987  69.7425006  66.8525017
  26.1259987  70.4935006  65.6775017  25.8759987  68.2985006  65.8375017
  26.5209987  67.5905006  66.3315017  26.1159987  68.2475006  64.2865017
  25.9919987  67.2325006  63.9325017  27.1359987  68.5575006  64.0995017
  25.2059987  69.1175006  63.6295017  24.7409987  69.0165006  62.1155017
  23.9389987  67.6515006  61.9555017  22.6389987  67.4865006  62.4975017
  22.1099987  68.4275006  62.5755017  22.7139987  67.0905006  63.5065017
  21.8029987  66.4395006  61.7095017  20.8309987  66.4125006  62.1855017
  22.2529987  65.4595006  61.7825017  21.5299987  66.6675006  60.2165017
  22.8179987  66.5635006  59.4315017  23.5559987  67.2055006  59.8925017
  22.6219987  66.8995006  58.4245017  23.1359987  65.5315006  59.4145017
  20.5619987  65.6415006  59.7445017  19.7219987  65.6245006  60.4225017
  21.0539987  64.6865006  59.7045017  20.2359987  65.9355006  58.7575017
  20.8929987  68.0255006  60.0075017  19.9749987  68.0785006  60.5745017
  20.6789987  68.1585006  58.9575017  21.5729987  68.7975006  60.3385017
  23.8009987  70.1355006  61.8755017  25.9319987  68.9815006  61.2365017
  24.5139987  67.9595006  66.1865017  24.2179987  66.6665006  66.1985017
  25.0049987  65.7585006  65.9845017  22.7079987  66.4715006  66.5065017
  22.2529987  67.4345006  66.2985017  22.3179987  65.7895006  65.7555017
  22.3809987  65.9735006  67.9335017  22.6679987  66.7095006  68.6765017
  21.3159987  65.8105006  68.0685017  23.1399987  64.6785006  68.1945017
  23.1359987  64.0775006  67.2885017  24.1799987  64.9325006  68.3855017
  22.6229987  63.8675006  69.3535017  21.5469987  63.7155006  69.2905017
  23.0669987  62.8775006  69.4235017  22.9219987  64.6265006  70.6245017
  22.3869987  65.5735006  70.6225017  22.5359987  64.0625006  71.4715017
  24.4009987  64.8845006  70.8475017  24.9579987  63.9575006  70.7215017
  24.7879987  65.5785006  70.1065017  24.6759987  65.4555006  72.2455017
  25.5539987  66.0885006  72.1965017  23.8449987  66.1045006  72.5165017
  24.8259987  64.4085006  73.2975017  25.2809987  63.4755006  72.9985017
  24.4599987  64.5255006  74.5805017  24.6419987  63.6795006  75.2275017
  23.8199987  65.6945006  75.2675017  23.8129987  65.4705006  76.3325017
  24.4389987  66.5765006  75.1475017  22.3689987  66.0195006  74.8305017
  22.3469987  66.0805006  73.7435017  21.7469987  65.1685006  75.0995017
  21.7599987  67.3005006  75.4285017  20.6799987  67.2565006  75.2895017
  21.9289987  67.2935006  76.5015017  22.2989987  68.6295006  74.8285017
  23.3839987  68.5745006  74.8895017  22.0529987  68.6215006  73.7685017
  21.7979987  69.9605006  75.4605017  21.9049987  70.7035006  74.6725017
  20.7289987  69.8275006  75.5995017  22.4119987  70.5195006  76.7075017
  21.9929987  71.5095006  76.8815017  22.0929987  69.9055006  77.5475017
  24.0509987  70.6335006  76.7385017  24.4509987  69.7175006  76.3105017
  24.3019987  71.4235006  76.0345017  24.8019987  70.9425006  78.1695017
  25.8699987  71.0775006  78.0235017  24.6709987  70.1325006  78.8795017
  24.4139987  71.8485006  78.6265017  89.7369987  63.9295006  79.6985017
  88.6959987  63.6575006  79.8445017  89.9609987  64.7555006  80.3675017
  90.3449987  63.0835006  80.0055017  90.0219987  64.3165006  78.2015017
  89.3109987  65.1145006  77.9965017  89.6769987  63.4495006  77.6445017
  91.4479987  64.7515006  77.6965017  92.1199987  63.9505006  78.0035017
  91.7089987  65.6145006  78.3065017  91.7149987  65.1005006  76.2155017
  92.7629987  65.3855006  76.1515017  91.1429987  65.9995006  75.9905017
  91.4289987  64.0315006  75.1425017  90.3649987  63.8135006  75.0925017
  91.9199987  63.0975006  75.4125017  91.9099987  64.4725006  73.7585017
  91.5669987  63.7535006  73.0165017  92.9969987  64.4415006  73.7325017
  91.4319987  65.8845006  73.3595017  91.7889987  66.6245006  74.0735017
  90.3439987  65.9405006  73.3815017  91.9189987  66.2455006  71.9875017
  91.2549987  65.7525006  71.2795017  92.8939987  65.7775006  71.8665017
  92.0219987  67.6875006  71.6405017  92.6059987  67.8425006  70.7355017
  92.5209987  68.2555006  72.4245017  90.6699987  68.2185006  71.4435017
  90.2139987  68.6445006  72.3345017  89.9509987  67.5035006  71.0445017
  90.9039987  69.2595006  70.4595017  91.5109987  68.9685006  69.6045017
  91.3279987  70.1925006  70.8275017  89.5809987  69.4925006  70.0095017
  89.7859987  70.5155006  69.7035017  89.1639987  69.5535006  71.0125017
  88.5629987  68.8805006  69.1065017  88.3139987  67.9555006  69.6245017
  89.1389987  68.5935006  68.2315017  87.2519987  69.5345006  68.6505017
  87.3709987  70.4285006  68.0475017  86.5879987  69.7945006  69.4705017
  86.5919987  68.4615006  67.8215017  86.4929987  67.5475006  68.3935017
  87.1799987  68.2545006  66.9355017  87.3269987  68.2885006  66.5525017
  87.9629987  67.2905006  66.4335017  87.1689987  69.2475006  65.5875017
  87.6359987  68.8495006  64.2925017  87.0799987  69.5085006  63.6425017
  87.4059987  67.8255006  64.0385017  89.1909987  69.1315006  64.1605017
  89.3339987  70.1285006  64.5435017  89.6549987  69.0635006  62.6895017
  90.5839987  69.6085006  62.5925017  88.8969987  69.5605006  62.0965017
  89.8189987  67.7255006  62.2585017  89.3709987  67.3505006  60.7745017
  90.6899987  66.6115006  60.2885017  90.6859987  65.2055006  60.0245017
  90.5569987  65.0125006  58.9675017  89.8299987  64.7615006  60.5255017
  91.9199987  64.4505006  60.5815017  92.7929987  64.7115006  59.9965017
  91.7479987  63.3875006  60.4935017  92.3019987  64.6895006  62.0135017
  91.0979987  64.6605006  62.8675017  90.3589987  65.3265006  62.4445017
  91.3789987  65.0065006  63.8515017  90.7369987  63.6445006  62.9295017
  93.2359987  63.6155006  62.5035017  94.0379987  63.5075006  61.7895017
  92.6869987  62.6985006  62.6195017  93.6289987  63.9385006  63.4565017
  92.9319987  66.0385006  62.1665017  93.8019987  66.0995006  61.5295017
  93.2269987  66.1775006  63.1955017  92.2199987  66.8025006  61.8885017
  88.2719987  66.3885006  60.7865017  89.2089987  68.5765006  59.9625017
  89.8839987  68.2905006  64.9805017  90.9779987  68.8335006  65.4745017
  91.4979987  69.8865006  65.1575017  91.4209987  67.9415006  66.5475017
  92.4559987  68.1305006  66.8125017  90.8519987  68.0625006  67.4655017
  91.2299987  66.5655006  65.9685017  90.2279987  66.4815006  65.5625017
  91.9059987  66.4155006  65.1325017  91.4289987  65.5315006  66.9505017
  91.4449987  64.6185006  66.3605017  92.4519987  65.6995006  67.2775017
  90.5569987  65.3445006  68.1725017  91.1309987  64.8505006  68.9545017
  90.2459987  66.3025006  68.5825017  89.3299987  64.5155006  67.8885017
  88.7099987  65.0155006  67.1475017  89.6359987  63.5725006  67.4405017
  88.4859987  64.2145006  69.1415017  87.6349987  63.5855006  68.8865017
  89.0569987  63.6705006  69.8895017  87.9759987  65.5355006  69.7715017
  88.8019987  65.8645006  70.3915017  87.9309987  66.2245006  68.9295017
  86.6849987  65.6055006  70.5135017  85.8059987  65.4645006  69.9035017
  86.4919987  65.8075006  71.8295017  85.4849987  65.8305006  72.2205017
  87.5529987  66.0095006  72.8645017  87.7249987  65.1065006  73.4485017
  88.5209987  66.3135006  72.4825017  87.0159987  67.0885006  73.8005017
  86.7839987  68.0035006  73.2575017  86.0849987  66.7665006  74.2635017
  88.0349987  67.3875006  74.8855017  88.3939987  66.4325006  75.2705017
  88.8909987  67.8685006  74.4195017  87.5419987  68.2445006  76.0485017
  87.1879987  69.2185006  75.7175017  86.7129987  67.7855006  76.5835017
  88.7249987  68.4165006  77.0035017  88.9029987  67.4735006  77.5175017
  89.6279987  68.6185006  76.4335017  88.5229987  69.4925006  78.0575017
  88.0659987  70.3625006  77.5895017  87.8039987  69.1325006  78.7905017
  89.7629987  69.9365006  78.7835017  90.4609987  70.4775006  78.1495017
  89.5149987  70.6145006  79.5975017  90.4369987  68.7355006  79.3505017
  91.2899987  69.0225006  79.9575017  90.7999987  68.0695006  78.5745017
  89.7579987  68.1685006  79.9815017  53.4349987  91.7815006  80.9025017
  53.3969987  91.4095006  81.9215017  53.5299987  92.8625006  80.9485017
  54.3379987  91.3905006  80.4415017  52.2009987  91.3715006  80.1195017
  51.3129987  91.7545006  80.6185017  52.1149987  90.2885006  80.1325017
  52.2249987  91.8735006  78.6935017  52.9119987  91.2865006  78.0845017
  52.5929987  92.8975006  78.6605017  50.8919987  91.8395006  78.0875017
  50.2309987  92.5785006  78.5355017  50.3999987  90.8765006  78.2185017
  51.0189987  92.1335006  76.6405017  50.1489987  91.7555006  76.1105017
  51.8769987  91.5935006  76.2445017  51.1749987  93.6115006  76.3375017
  52.0679987  93.9515006  76.8585017  50.3369987  94.1245006  76.8045017
  51.2599987  94.0155006  74.8875017  51.7949987  94.9615006  74.8255017
  50.2519987  94.2125006  74.5265017  51.9379987  92.9865006  73.9645017
  51.4249987  93.2055006  73.0285017  51.4949987  92.0685006  74.3465017
  53.3389987  92.7635006  73.6985017  53.8139987  92.2235006  74.5155017
  53.8769987  93.7055006  73.6045017  53.4949987  91.9555006  72.3925017
  52.9769987  91.0105006  72.5445017  54.5519987  91.7115006  72.2915017
  53.0049987  92.6215006  71.0975017  53.1389987  93.7005006  71.1455017
  51.9399987  92.4555006  70.9415017  53.7789987  92.0935006  69.8915017
  53.9719987  91.0305006  70.0155017  54.7529987  92.5765006  69.8495017
  53.0589987  92.3435006  68.5845017  52.0589987  91.9135006  68.5755017
  53.5699987  91.9435006  67.7135017  52.9229987  93.8505006  68.4315017
  53.7159987  94.3475006  68.9795017  51.9849987  94.1615006  68.8845017
  52.9419987  94.3215006  66.9895017  52.1789987  93.8125006  66.4145017
  53.9069987  94.1215006  66.5395017  52.6239987  95.8245006  66.8735017
  51.9219987  96.4785006  67.6095017  52.9949987  96.0805006  65.5855017
  52.5259987  97.2285006  64.8675017  52.6809987  98.0645006  65.5285017
  51.4639987  97.0795006  64.7345017  53.1889987  97.4675006  63.5795017
  52.9189987  98.4135006  63.1375017  52.8769987  96.3305006  62.6065017
  51.8259987  96.0935006  62.6995017  53.4509987  95.4705006  62.9195017
  53.2149987  96.6475006  61.2775017  54.5729987  97.0835006  60.6455017
  55.5279987  96.2045006  61.5845017  55.9289987  94.9245006  61.1295017
  56.4489987  95.0475006  60.1875017  55.0999987  94.2435006  60.9845017
  56.8739987  94.3275006  62.1715017  57.1539987  93.3145006  61.9255017
  57.7669987  94.9255006  62.2975017  56.1269987  94.2435006  63.4835017
  55.6629987  95.1065006  63.7125017  55.3729987  93.4695006  63.3295017
  56.7289987  93.9875006  64.2465017  54.6069987  96.5535006  59.2645017
  54.8329987  98.5185006  60.8645017  54.5569987  97.4935006  63.8715017
  54.9749987  98.6455006  64.2385017  54.3879987  99.7035006  64.3655017
  56.3659987  98.3865006  64.6395017  56.8079987  97.8065006  63.8365017
  56.8959987  99.3355006  64.6475017  56.4849987  97.6815006  65.9835017
  56.1739987  98.3085006  66.8125017  55.8889987  96.7765006  66.0515017
  57.9419987  97.3465006  66.1405017  58.2189987  96.4825006  65.5425017
  58.5579987  98.1695006  65.7875017  58.2549987  97.1005006  67.5565017
  57.6079987  96.2345006  67.6795017  59.2599987  96.7115006  67.4165017
  58.2179987  97.9005006  68.8245017  58.7579987  98.8295006  68.6525017
  57.1809987  98.1815006  68.9985017  58.7749987  97.2055006  70.1205017
  58.8299987  96.1325006  69.9435017  59.7919987  97.5375006  70.3075017
  57.9309987  97.4705006  71.3805017  58.4589987  97.0755006  72.2405017
  57.8699987  98.5485006  71.5265017  56.5359987  96.9165006  71.2995017
  55.9579987  97.2615006  70.4555017  55.9459987  96.0545006  72.1285017
  54.9279987  95.7755006  71.8995017  56.4979987  95.3975006  73.3555017
  56.1299987  94.3725006  73.3635017  57.5779987  95.3325006  73.2895017
  56.1029987  96.0645006  74.6985017  56.0099987  97.1375006  74.5335017
  55.1089987  95.7105006  74.9635017  57.0619987  95.8075006  75.8745017
  58.0229987  96.2595006  75.6275017  56.6889987  96.3425006  76.7435017
  57.2749987  94.3365006  76.2345017  57.6369987  93.8085006  75.3545017
  58.0629987  94.2575006  76.9815017  56.0049987  93.6605006  76.7655017
  55.2319987  93.7245006  76.0015017  56.1949987  92.6005006  76.9065017
  55.4429987  94.2695006  78.0575017  55.1239987  95.2965006  77.8855017
  54.5539987  93.7265006  78.3735017  56.4529987  94.2595006  79.2085017
  57.1849987  95.0485006  79.0585017  55.9159987  94.5225006  80.1175017
  57.1779987  92.9265006  79.4325017  57.8079987  92.9745006  80.3155017
  57.8139987  92.6645006  78.5935017  56.4689987  92.1155006  79.5745017
  14.5679987  40.8145006  78.9445017  13.6339987  41.2365006  79.3035017
  15.1189987  40.4485006  79.8055017  14.3259987  39.9575006  78.3215017
  15.4069987  41.8815006  78.1405017  15.5329987  42.7135006  78.8315017
  14.7289987  42.2295006  77.3655017  16.7179987  41.5355006  77.5515017
  16.4909987  40.4805006  77.3965017  17.2709987  41.5905006  78.4875017
  17.6139987  42.0215006  76.4375017  18.6469987  42.0085006  76.7795017
  17.3869987  43.0605006  76.2045017  17.5099987  41.1835006  75.1645017
  16.9509987  40.2595006  75.2835017  18.4779987  40.9045006  74.7505017
  16.7999987  42.0535006  74.2005017  17.4089987  42.9495006  74.0955017
  15.8809987  42.3655006  74.6925017  16.4669987  41.5045006  72.8135017
  15.8079987  42.2305006  72.3405017  15.8699987  40.6065006  72.9685017
  17.6359987  41.1805006  71.8595017  18.0299987  40.1985006  72.1175017
  18.4409987  41.8895006  72.0455017  17.2719987  41.2055006  70.3585017
  18.2009987  41.2145006  69.7935017  16.7819987  42.1565006  70.1525017
  16.3949987  40.0745006  69.8645017  15.4519987  40.0385006  70.4055017
  16.8689987  39.1045006  70.0135017  16.1429987  40.2755006  68.4185017
  16.4179987  41.2845006  68.1175017  15.0869987  40.1655006  68.1795017
  16.9419987  39.3015006  67.5955017  16.5239987  38.3025006  67.6925017
  17.9569987  39.2445006  67.9835017  17.0009987  39.6885006  66.1865017
  17.4329987  38.9395006  65.5245017  17.5029987  40.6245006  65.9555017
  15.7889987  39.7965006  65.9065017  15.3329987  40.5935006  66.4855017
  15.2739987  38.8785006  66.1755017  15.4469987  40.2005006  63.6555017
  15.9229987  39.4345006  63.0565017  15.8579987  41.1645006  63.3785017
  13.8189987  40.2665006  62.7595017  12.6549987  39.8625006  63.0695017
  14.0749987  41.0185006  61.8905017  12.9579987  41.8365006  61.7285017
  12.1789987  41.2255006  62.1585017  12.8099987  41.8975006  60.6605017
  12.9509987  43.2435006  62.3695017  12.2229987  43.8655006  61.8765017
  14.2829987  43.7295006  62.0895017  14.2969987  44.7915006  61.8875017
  14.7009987  43.2085006  61.2375017  15.0229987  43.4395006  63.2535017
  16.5169987  43.7035006  63.1455017  16.8979987  42.4445006  62.2325017
  18.2439987  42.0665006  61.9845017  18.5909987  41.3815006  62.7475017
  18.8669987  42.9535006  62.0605017  18.5129987  41.4995006  60.5605017
  18.1949987  40.4645006  60.5565017  19.5769987  41.5375006  60.3745017
  17.8499987  42.1435006  59.3415017  18.5009987  41.6225006  58.0995017
  19.5719987  41.7365006  58.1975017  18.1469987  42.2105006  57.2655017
  18.2159987  40.5905006  57.9615017  16.3759987  41.8425006  59.3795017
  15.9999987  42.0915006  60.3605017  16.2239987  40.8025006  59.1525017
  15.9009987  42.4615006  58.6325017  18.0349987  43.6225006  59.4155017
  17.6019987  43.9895006  60.3345017  17.5419987  44.0845006  58.5735017
  19.0899987  43.8555006  59.3895017  16.6959987  44.9315006  62.3565017
  17.0129987  43.5805006  64.5295017  12.6719987  43.2755006  63.7905017
  12.4189987  44.4665006  64.3305017  12.1229987  45.4665006  63.7395017
  12.2799987  44.2555006  65.8875017  12.1369987  45.2195006  66.3645017
  11.3939987  43.6715006  66.1235017  13.5269987  43.5675006  66.3725017
  13.6479987  42.6755006  65.7675017  14.3669987  44.2105006  66.1315017
  13.5779987  43.1785006  67.8545017  12.7339987  42.5365006  68.0935017
  14.4709987  42.5815006  68.0255017  13.6069987  44.3885006  68.8065017
  14.2499987  45.1545006  68.3775017  12.6169987  44.8315006  68.8855017
  14.1049987  44.0725006  70.1805017  15.0829987  43.5975006  70.2175017
  14.1639987  44.9375006  70.8385017  13.1049987  43.1575006  70.7045017
  13.0389987  42.2395006  70.1225017  13.2909987  42.8565006  71.7315017
  11.7179987  43.9165006  70.6425017  11.6149987  44.9715006  70.8685017
  11.0019987  43.7015006  69.8505017  11.4079987  43.1405006  71.7395017
  11.3579987  42.0655006  71.8305017  11.1699987  43.8045006  72.7575017
  11.0829987  42.8755006  73.3035017  10.9769987  44.9025006  73.5095017
  11.1449987  45.7105006  72.7995017   9.9159987  44.9105006  73.7325017
  11.7509987  45.2065006  74.7585017  12.0219987  46.2565006  74.6555017
  10.9989987  45.1635006  75.5435017  12.8809987  44.4665006  75.1585017
  12.5329987  43.4355006  75.0955017  13.5749987  44.6035006  74.3345017
  13.6159987  44.6695006  76.4815017  14.5879987  44.2005006  76.3455017
  13.8029987  45.7395006  76.5585017  13.0039987  44.1975006  77.7205017
  12.0089987  44.6085006  77.5575017  12.9379987  43.1465006  77.4535017
  13.3109987  44.3305006  79.1005017  14.1549987  43.8115006  79.5505017
  13.2419987  45.2915006  79.6075017  11.9289987  43.4665006  79.4195017
  11.8389987  42.9035006  78.4935017  12.3369987  42.7715006  80.1505017
  10.5429987  43.9075006  79.8825017   9.9079987  43.0475006  80.0715017
  10.0439987  44.5225006  79.1415017  10.6029987  44.4825006  80.8025017
  35.1149987  21.4065006  80.4385017  34.6409987  21.4275006  81.4145017
  35.6789987  22.3275006  80.3245017  35.8249987  20.5835006  80.4335017
  34.0849987  21.2485006  79.3255017  33.3739987  22.0715006  79.3695017
  33.5119987  20.3405006  79.4955017  34.7279987  21.2135006  77.9375017
  35.4609987  22.0135006  77.8275017  33.9749987  21.3875006  77.1715017
  35.3989987  19.8765006  77.6595017  34.7509987  19.1055006  78.0705017
  36.3179987  19.8405006  78.2435017  35.7109987  19.5275006  76.1995017
  34.8609987  19.8325006  75.5935017  35.7589987  18.4415006  76.1335017
  36.9379987  20.1035006  75.6245017  37.7569987  19.5645006  76.0975017
  36.9829987  21.1215006  76.0055017  37.1509987  20.1215006  74.1295017
  36.7979987  19.1845006  73.7025017  38.2179987  20.1705006  73.9165017
  36.4419987  21.2925006  73.4365017  36.7379987  22.2405006  73.8835017
  35.3629987  21.2205006  73.5635017  36.7689987  21.3135006  71.9615017
  36.2489987  20.5005006  71.4595017  37.8329987  21.1275006  71.8195017
  36.3889987  22.6625006  71.2855017  37.0819987  23.3995006  71.6865017
  35.4049987  22.9275006  71.6715017  36.3669987  22.7415006  69.7545017
  35.8849987  23.6705006  69.4575017  35.7479987  21.9395006  69.3575017
  37.7389987  22.6855006  69.1035017  38.2799987  21.8535006  69.5465017
  38.2739987  23.5865006  69.3975017  37.7659987  22.5755006  67.5435017
  38.7759987  22.3275006  67.2195017  37.5259987  23.5315006  67.0865017
  36.8219987  21.5105006  66.9955017  35.8039987  21.8635006  67.1215017
  36.9309987  20.6325006  67.6275017  37.0329987  21.0885006  65.5305017
  38.0529987  20.7625006  65.3735017  36.8259987  21.9185006  64.8655017
  36.3049987  19.7595006  65.1375017  35.7639987  18.9745006  65.9115017
  36.4969987  19.4995006  63.8515017  35.7469987  18.3565006  63.4085017
  35.7989987  17.6745006  64.2435017  36.1669987  17.8795006  62.5355017
  34.3219987  18.7705006  63.1625017  33.7459987  17.9745006  62.7185017
  34.2339987  20.0745006  62.2525017  33.2149987  20.2295006  61.9245017
  34.8599987  19.9215006  61.3815017  34.6889987  21.1885006  62.9975017
  35.2369987  22.5195006  62.3535017  34.1419987  22.7805006  61.2215017
  32.7939987  23.0125006  61.6615017  32.6129987  22.6165006  62.6525017
  32.0999987  22.5065006  60.9965017  32.4149987  24.5005006  61.5845017
  33.1149987  25.0845006  62.1695017  31.4209987  24.6515006  61.9805017
  32.4119987  25.1225006  60.2045017  31.5979987  24.3385006  59.2155017
  31.9129987  23.3045006  59.2515017  31.7879987  24.7425006  58.2325017
  30.5509987  24.4495006  59.4565017  31.9059987  26.4995006  60.4365017
  32.4689987  26.9405006  61.2445017  30.8569987  26.4535006  60.6675017
  32.0639987  27.0595006  59.5265017  33.7969987  25.1865006  59.6575017
  34.4179987  25.7625006  60.3275017  33.7739987  25.6605006  58.6875017
  34.1929987  24.1855006  59.5605017  35.1519987  23.6045006  63.3665017
  36.5369987  22.2735006  61.6955017  33.8169987  18.8995006  64.5085017
  32.7249987  19.3555006  64.3155017  32.1209987  19.0675006  63.2785017
  32.2909987  19.7935006  65.7435017  31.8669987  18.8465006  66.0605017
  33.2689987  19.8545006  66.2145017  31.4189987  20.9665006  66.1435017
  30.7669987  21.3775006  65.3805017  30.8099987  20.8685006  67.0365017
  32.5159987  21.9015006  66.3905017  33.3189987  21.4325006  66.9535017
  32.9539987  22.2245006  65.4495017  32.0129987  23.1055006  67.1205017
  31.0149987  23.3495006  66.7615017  31.9119987  22.8995006  68.1835017
  32.9029987  24.3335006  66.9385017  33.9259987  24.0995006  67.2265017
  32.9379987  24.5975006  65.8835017  32.4129987  25.5635006  67.7395017
  32.9799987  26.4445006  67.4445017  31.3719987  25.7805006  67.5185017
  32.5609987  25.3475006  69.2695017  31.8729987  24.5425006  69.4985017
  33.5629987  24.9375006  69.3885017  32.3929987  26.4935006  70.2295017
  33.0609987  27.3245006  70.0615017  31.5149987  26.6075006  71.2465017
  31.5189987  27.4985006  71.8575017  30.4709987  25.5875006  71.6495017
  29.8779987  26.0445006  72.4395017  29.7929987  25.4155006  70.8215017
  31.0019987  24.2355006  72.1665017  31.7289987  23.8275006  71.4655017
  31.5359987  24.3915006  73.1015017  29.8779987  23.2135006  72.3915017
  28.9899987  23.7225006  72.7645017  29.5919987  22.7575006  71.4475017
  30.2859987  22.1215006  73.3815017  29.4889987  21.3805006  73.3755017
  31.1649987  21.6265006  72.9725017  30.5759987  22.5595006  74.8065017
  30.5699987  21.6935006  75.4665017  31.5739987  22.9815006  74.8805017
  29.5509987  23.5525006  75.3295017  29.5319987  24.4755006  74.7525017
  28.5379987  23.1565006  75.2995017  29.8859987  23.8835006  76.7395017
  30.8809987  24.3075006  76.8495017  29.1999987  24.6325006  77.1295017
  29.7809987  22.7095006  77.5355017  29.9349987  22.9405006  78.5855017
  30.5169987  21.9625006  77.2555017  28.7979987  22.2575006  77.4365017
  58.7119987  15.2215006  78.9675017  59.6719987  14.7555006  78.7685017
  58.4229987  14.9645006  79.9825017  58.8529987  16.2985006  78.9285017
  57.6229987  14.7545006  77.9285017  57.6719987  13.6725006  78.0345017
  58.1169987  14.9915006  76.9895017  56.1339987  15.1955006  77.8755017
  56.1799987  16.1415006  78.4145017  55.6899987  14.4785006  78.5625017
  55.2349987  15.3435006  76.7035017  55.7779987  15.3945006  75.7625017
  54.6109987  16.2355006  76.7405017  54.3619987  14.1285006  76.6865017
  53.7419987  14.0855006  77.5785017  54.9759987  13.2295006  76.6965017
  53.4739987  14.1085006  75.4755017  53.5669987  15.0305006  74.9045017
  52.4259987  14.0305006  75.7575017  53.8449987  12.9275006  74.5875017
  53.0349987  12.7565006  73.8805017  53.9039987  12.0325006  75.2055017
  55.1489987  13.0965006  73.8245017  55.4269987  12.1345006  73.3965017
  55.9349987  13.3525006  74.5325017  55.1079987  14.1435006  72.7215017
  56.1109987  14.3615006  72.3605017  54.7089987  15.0845006  73.0975017
  54.2449987  13.6605006  71.5575017  53.2079987  13.5875006  71.8765017
  54.5459987  12.6545006  71.2655017  54.3549987  14.5795006  70.3615017
  55.3849987  14.6145006  70.0135017  54.0929987  15.6005006  70.6335017
  53.4749987  14.1265006  69.2075017  52.4219987  14.2075006  69.4645017
  53.6529987  13.0765006  68.9815017  53.7719987  14.9405006  67.9775017
  53.4579987  15.9415006  68.2685017  53.0429987  14.5915006  67.2515017
  55.1129987  15.0515006  67.3115017  55.9079987  15.2995006  68.0075017
  55.1129987  15.8235006  66.5465017  55.4219987  13.7215006  66.6555017
  54.6249987  13.4375006  65.9805017  55.5349987  12.9475006  67.4055017
  56.9179987  13.5155006  66.6975017  57.5689987  13.1405006  67.6535017
  57.3609987  13.8315006  65.5185017  58.6859987  13.4345006  65.1665017
  59.0109987  12.5985006  65.7665017  59.3559987  14.2665006  65.3265017
  58.6439987  13.0385006  63.6765017  59.6509987  12.8555006  63.3405017
  57.9559987  14.0855006  62.7455017  58.7059987  14.6795006  62.2405017
  57.3529987  14.7395006  63.3625017  57.1399987  13.4055006  61.8005017
  56.7039987  13.7965006  60.3615017  55.3909987  12.8745006  60.2415017
  55.5319987  11.4615006  60.4565017  56.5359987  11.1215006  60.2365017
  54.8709987  10.9285006  59.7795017  55.1019987  11.0325006  61.8575017
  55.7329987  11.3595006  62.6745017  55.1499987   9.9555006  61.7915017
  53.6909987  11.3595006  62.2725017  53.4909987  12.7985006  62.3935017
  54.2729987  13.2045006  63.0205017  52.5299987  12.9635006  62.8575017
  53.4969987  13.2375006  61.4075017  52.5969987  10.7735006  61.4255017
  52.7849987   9.7175006  61.3045017  52.5769987  11.2805006  60.4775017
  51.6649987  10.9265006  61.9505017  53.5709987  10.9485006  63.6145017
  53.7889987   9.8935006  63.6835017  52.5629987  11.1335006  63.9535017
  54.2649987  11.5065006  64.2265017  56.3809987  15.2465006  60.3775017
  57.6639987  13.3145006  59.3615017  57.8549987  11.8355006  63.5755017
  58.5109987  10.8615006  64.0375017  59.6799987  10.9145006  64.3805017
  57.5159987   9.7615006  64.3325017  56.5599987   9.9255006  63.8455017
  57.8389987   8.7695006  64.0275017  57.4059987   9.8615006  65.8685017
  57.8359987   8.9475006  66.2635017  58.0679987  10.6635006  66.1795017
  55.9449987  10.0775006  66.5105017  55.7679987  11.1345006  66.3265017
  55.3159987   9.5375006  65.8075017  55.4779987   9.6845006  68.0435017
  54.3939987   9.7665006  68.1025017  55.7149987   8.6435006  68.2485017
  56.0479987  10.4995006  69.0735017  57.1349987  10.4565006  69.0765017
  55.7869987  11.5475006  68.9365017  55.5219987  10.0405006  70.4215017
  55.6749987  10.8615006  71.1205017  54.4469987   9.9055006  70.3385017
  56.0989987   8.8325006  70.9695017  55.6849987   8.5545006  71.9315017
  55.9599987   7.9725006  70.3165017  57.6119987   9.1305006  71.0785017
  57.9819987   9.1925006  70.0665017  58.5089987   9.3275006  72.0775017
  59.5669987   9.4995006  71.9405017  58.0709987   9.3245006  73.5105017
  57.1229987   9.8355006  73.6685017  57.9789987   8.3575006  73.9915017
  59.1499987  10.1175006  74.1885017  60.1379987   9.7665006  73.8915017
  59.0959987  11.1625006  73.8885017  59.0119987  10.0235006  75.7035017
  59.0879987   8.9765006  75.9965017  59.8509987  10.5315006  76.1705017
  57.6989987  10.6045006  76.2415017  57.4479987  11.5145006  75.7015017
  56.8769987   9.9115006  76.0695017  57.8049987  10.9005006  77.7475017
  58.5919987  11.6305006  77.9275017  56.8889987  11.3545006  78.1155017
  58.1159987   9.7045006  78.5225017  59.0729987   9.2325006  78.3065017
  58.0719987   9.8175006  79.6045017  57.0079987   8.7645006  78.0925017
  57.0069987   8.7195006  77.0065017  57.3069987   7.7745006  78.4295017
  55.5619987   9.0515006  78.6015017  54.8819987   8.2615006  78.2975017
  55.1719987   9.9845006  78.2095017  55.5349987   9.1125006  79.6855017
  90.7929987  50.1335006  80.4815017  90.0449987  50.8295006  80.8485017
  91.5249987  49.9875006  81.2705017  90.3009987  49.1805006  80.3095017
  91.4369987  50.6375006  79.2335017  91.8999987  51.6035006  79.4285017
  90.6719987  50.8125006  78.4815017  92.4879987  49.6775006  78.6975017
  92.1179987  48.6645006  78.5365017  93.3499987  49.5825006  79.3555017
  92.9569987  50.2595006  77.3655017  92.9999987  51.3445006  77.4325017
  92.2429987  50.0345006  76.5755017  94.3229987  49.7455006  76.9675017
  94.2469987  48.6635006  76.9025017  94.9809987  49.9555006  77.8085017
  94.9669987  50.2795006  75.6725017  95.8479987  49.6565006  75.5315017
  95.3329987  51.2685006  75.9395017  94.1889987  50.3675006  74.3455017
  93.5749987  51.2665006  74.3185017  93.5029987  49.5275006  74.2455017
  95.1609987  50.3775006  73.1445017  95.7829987  49.4835006  73.1815017
  95.8389987  51.2235006  73.2395017  94.4539987  50.4465006  71.7825017
  93.7209987  51.2505006  71.7835017  93.8969987  49.5275006  71.6045017
  95.4549987  50.6685006  70.6255017  96.0489987  49.7605006  70.5475017
  96.1399987  51.4545006  70.9425017  94.8649987  51.0345006  69.2455017
  95.6789987  51.0505006  68.5235017  94.4789987  52.0515006  69.2875017
  93.7789987  50.1065006  68.7235017  92.9719987  50.0235006  69.4475017
  94.1799987  49.1025006  68.5985017  93.2249987  50.5915006  67.3605017
  92.8449987  49.7215006  66.8285017  94.0429987  50.9825006  66.7615017
  92.1079987  51.6325006  67.4185017  92.5709987  52.6065006  67.5395017
  91.5469987  51.4355006  68.3285017  91.0999987  51.6855006  66.2105017
  90.6499987  50.7145006  66.0495017  91.6119987  51.9855006  65.3045017
  91.0899987  52.9345006  65.2055017  91.3629987  54.1095006  65.3975017
  90.7659987  52.5515006  63.9775017  90.8199987  53.7685006  63.1665017
  90.4179987  54.5645006  63.7745017  90.1519987  53.5865006  62.3365017
  92.2489987  54.1415006  62.6625017  92.1719987  55.0405006  62.0745017
  92.8459987  53.0015006  61.8045017  92.1109987  52.6455006  61.0955017
  93.1159987  52.1855006  62.4635017  93.9949987  53.4915006  61.1265017
  94.6629987  52.7135006  59.9265017  95.3659987  51.4725006  60.6735017
  96.3909987  51.7515006  61.6365017  96.3299987  52.7755006  61.9825017
  97.3589987  51.6455006  61.1565017  96.4179987  50.7675006  62.8225017
  95.4139987  50.7545006  63.2275017  97.1029987  51.0735006  63.6005017
  96.7559987  49.3295006  62.5155017  95.6829987  48.6985006  61.6795017
  94.7269987  48.8745006  62.1545017  95.8769987  47.6375006  61.6335017
  95.7219987  49.1175006  60.6855017  98.0049987  49.2455006  61.6935017
  98.7679987  49.8435006  62.1675017  97.7939987  49.5935006  60.6985017
  98.3069987  48.2085006  61.6705017  96.9499987  48.5995006  63.8045017
  97.7379987  49.0765006  64.3685017  97.2229987  47.5765006  63.5945017
  96.0309987  48.6195006  64.3725017  93.6609987  52.2145006  58.9655017
  95.7139987  53.6115006  59.3975017  93.1629987  54.3305006  63.7495017
  93.8029987  55.4385006  63.7715017  93.5839987  56.4445006  63.1175017
  94.9959987  55.1595006  64.6255017  94.8329987  54.2565006  65.2045017
  95.8859987  54.9735006  64.0295017  95.1629987  56.2865006  65.4455017
  96.2329987  56.2875006  65.6205017  94.9699987  57.1085006  64.7635017
  94.4199987  56.5365006  66.8055017  94.4209987  57.5745006  67.1285017
  93.3779987  56.2285006  66.7775017  95.1409987  55.6885006  67.8045017
  94.9509987  54.6455006  67.5565017  96.2129987  55.8355006  67.6985017
  94.7609987  55.9095006  69.2405017  95.5929987  55.7285006  69.9185017
  94.4489987  56.9375006  69.4115017  93.5659987  54.9515006  69.6115017
  92.9589987  55.1785006  68.7365017  94.0719987  54.0135006  69.3995017
  92.5559987  54.7305006  70.9495017  92.2729987  55.6845006  71.3775017
  91.6309987  54.2465006  70.6405017  93.1769987  53.9365006  71.8785017
  93.0359987  52.8705006  71.7775017  93.9549987  54.3595006  72.8945017
  94.3959987  53.6235006  73.5515017  94.3069987  55.7895006  73.2445017
  94.0179987  56.4625006  72.4395017  93.8169987  56.1575006  74.1385017
  95.7599987  55.8755006  73.4145017  96.1999987  55.6595006  72.4415017
  95.9769987  56.9225006  73.6195017  96.4129987  55.0235006  74.4585017
  96.5809987  54.0415006  74.0165017  97.3969987  55.4395006  74.6585017
  95.6539987  54.8605006  75.7705017  95.5949987  55.7945006  76.3245017
  94.6269987  54.5315006  75.6185017  96.4099987  53.8005006  76.6025017
  96.6229987  52.9695006  75.9325017  97.3749987  54.2255006  76.8645017
  95.7389987  53.2425006  77.8355017  94.7009987  52.9545006  77.6755017
  96.2369987  52.3625006  78.2395017  95.7759987  54.2545006  78.7995017
  95.0109987  54.9825006  78.5425017  95.4429987  53.7905006  79.7255017
  97.1019987  54.9785006  79.0605017  97.0049987  55.6735006  79.8895017
  97.4309987  55.5465006  78.1965017  97.8889987  54.2735006  79.3105017
  21.2509987  37.9815006  79.1095017  20.1699987  38.0225006  79.1955017
  21.6459987  38.9415006  79.4315017  21.6099987  37.2285006  79.8055017
  21.6729987  37.6645006  77.7085017  21.2299987  38.4315006  77.0745017
  21.1779987  36.7325006  77.4505017  23.0059987  37.5765006  77.4405017
  23.4249987  38.2955006  78.1445017  23.0619987  38.0465006  76.4605017
  23.9349987  36.2365006  77.4245017  23.2419987  35.4305006  77.1915017
  24.2319987  36.0875006  78.4615017  25.1579987  36.1035006  76.5245017
  26.0629987  36.2085006  77.1175017  25.1629987  36.9265006  75.8115017
  25.2079987  34.9235006  75.8475017  24.2649987  34.5295006  75.4725017
  25.7109987  34.0935006  76.3385017  26.0979987  35.4265006  74.6165017
  26.5259987  34.4435006  74.4305017  26.8089987  35.9525006  75.2515017
  25.9569987  36.1745006  73.2915017  26.0249987  37.2125006  73.6135017
  24.9109987  36.0005006  73.0465017  26.8419987  35.9715006  71.9865017
  27.8729987  36.2575006  72.1815017  26.4919987  36.6245006  71.1875017
  26.7999987  34.4895006  71.4965017  25.7959987  34.0705006  71.5155017
  27.4189987  33.8265006  72.1005017  27.3019987  34.5065006  70.1465017
  27.7579987  33.5535006  69.8875017  28.0769987  35.2585006  70.0115017
  26.2369987  34.7585006  69.2325017  26.0919987  35.8365006  69.2375017
  25.3489987  34.3305006  69.6945017  26.3329987  34.2545006  67.8145017
  26.3809987  33.1665006  67.8045017  27.2359987  34.6035006  67.3215017
  25.1449987  34.6705006  67.0075017  25.0019987  35.7415006  67.1045017
  24.2639987  34.1965006  67.4325017  25.2279987  34.3015006  65.5065017
  25.4039987  33.2405006  65.3865017  26.0349987  34.8435006  65.0285017
  24.9979987  32.8025006  65.2155017  25.2379987  31.9045006  65.9975017
  24.4349987  32.6715006  64.0175017  23.7659987  31.4405006  63.6655017
  23.5779987  30.9275006  64.5945017  24.3929987  30.8235006  63.0395017
  22.4189987  31.7795006  62.9485017  21.8079987  30.8925006  62.9625017
  22.6369987  32.2645006  61.4845017  23.0689987  31.4525006  60.9155017
  23.3579987  33.0745006  61.5275017  21.4119987  32.7095006  60.8865017
  21.2659987  33.8515006  59.8075017  22.4009987  34.8845006  60.2585017
  22.2669987  35.4905006  61.5535017  22.2119987  34.8415006  62.4205017
  21.3309987  36.0205006  61.4745017  23.3799987  36.5415006  61.7295017
  23.2789987  37.2975006  60.9655017  24.7039987  35.8835006  61.5585017
  25.0739987  35.8605006  62.5105017  24.6429987  34.9405006  61.1225017
  25.3269987  36.4455006  61.0085017  23.2169987  37.3205006  63.0475017
  21.6569987  33.3665006  58.4685017  19.9489987  34.4875006  59.9495017
  21.7339987  32.8175006  63.6805017  21.1949987  32.4615006  64.8235017
  21.1739987  31.3275006  65.2755017  24.2309987  37.3855006  63.7975017
  22.0919987  37.8295006  63.2925017  20.6439987  33.6835006  65.5295017
  21.3899987  34.0675006  66.2175017  20.4459987  34.4885006  64.8265017
  19.3979987  33.2665006  66.2335017  18.6889987  32.8915006  65.5035017
  19.6139987  32.4355006  66.8965017  18.7749987  34.3595006  66.9905017
  18.4019987  34.9915006  66.1885017  17.9069987  33.8535006  67.4055017
  19.3979987  35.2075006  68.0695017  20.4089987  35.4985006  67.7905017
  18.8499987  36.1325006  68.2355017  19.4659987  34.4405006  69.3695017
  18.4809987  34.2905006  69.8065017  19.8839987  33.4475006  69.2165017
  20.3499987  35.1945006  70.3605017  21.2879987  35.4835006  69.8885017
  19.8789987  36.1145006  70.6945017  20.6449987  34.3255006  71.5805017
  19.6779987  34.0425006  71.9805017  21.0919987  33.4145006  71.1855017
  21.5419987  34.8735006  72.6625017  22.3609987  35.5245006  72.3935017
  21.3749987  34.6085006  73.9665017  22.0319987  35.0125006  74.7235017
  20.2739987  33.7415006  74.5105017  19.4679987  34.4315006  74.7535017
  19.9099987  33.1235006  73.6975017  20.5369987  32.8745006  75.7235017
  19.5899987  32.5805006  76.1745017  21.0179987  31.9535006  75.4015017
  21.4259987  33.5685006  76.7915017  22.4529987  33.6895006  76.4485017
  21.0709987  34.5635006  77.0445017  21.4139987  32.7205006  78.0005017
  20.5359987  32.1435006  77.7185017  22.2759987  32.1135006  77.7305017
  21.4189987  32.9565006  79.4965017  20.9419987  33.9155006  79.6905017
  20.7879987  32.2095006  79.9715017  22.8869987  32.9755006  80.2005017
  23.0289987  31.9045006  80.3375017  23.4889987  33.2515006  79.3365017
  23.4749987  33.7445006  81.5045017  24.3719987  34.2665006  81.1815017
  22.7439987  34.5195006  81.7225017  23.7519987  33.0235006  82.7065017
  24.0529987  33.6995006  83.5005017  24.5519987  32.3035006  82.5725017
  22.8739987  32.4825006  83.0485017  36.7269987  87.8175006  78.0685017
  37.4349987  88.6395006  78.0285017  36.6149987  87.5275006  79.1095017
  35.7659987  88.1925006  77.7265017  37.1659987  86.7095006  77.2645017
  38.1249987  86.3135006  77.5955017  37.2939987  86.9865006  76.2215017
  36.1119987  85.6305006  77.3905017  35.2409987  86.0085006  77.9255017
  36.4979987  84.8075006  77.9875017  35.6719987  85.0815006  76.0375017
  36.5439987  84.6755006  75.5285017  35.3139987  85.9005006  75.4155017
  34.6009987  83.9965006  76.1115017  33.6819987  84.3815006  76.5465017
  34.9289987  83.1845006  76.7585017  34.2949987  83.4395006  74.7195017
  35.0189987  82.6805006  74.4285017  34.3479987  84.2175006  73.9605017
  32.9009987  82.8315006  74.7175017  32.1839987  83.5465006  75.1165017
  32.8719987  81.9685006  75.3815017  32.4729987  82.4165006  73.3525017
  31.4519987  82.0415006  73.4065017  33.0889987  81.5775006  73.0335017
  32.5469987  83.5145006  72.3105017  32.4089987  83.0595006  71.3315017
  33.5589987  83.9185006  72.3175017  31.5729987  84.6275006  72.4785017
  31.7349987  85.1275006  73.4315017  30.5549987  84.2405006  72.5065017
  31.6959987  85.6195006  71.3475017  32.7419987  85.8695006  71.1815017
  31.1979987  86.5545006  71.5955017  31.1269987  85.0795006  70.0605017
  30.1659987  84.5935006  70.2115017  31.7819987  84.3295006  69.6205017
  30.9829987  86.2195006  69.0905017  30.7589987  87.1015006  69.6885017
  30.0999987  86.0285006  68.4875017  32.1619987  86.5625006  68.1595017
  32.5069987  85.6415006  67.7025017  32.9699987  86.9225006  68.7915017
  31.8939987  87.6285006  67.0355017  31.5159987  88.5465006  67.4665017
  31.1669987  87.2535006  66.3245017  31.4349987  87.0845006  65.6755017
  31.5149987  85.9085006  65.3895017  30.6689987  88.0065006  65.0645017
  29.9719987  87.5905006  63.8715017  29.1319987  88.2685006  63.8965017
  29.6069987  86.5745006  63.9175017  30.8109987  87.8215006  62.5895017
  30.1349987  88.0085006  61.7715017  31.6159987  86.5135006  62.3225017
  31.9179987  86.4995006  61.2845017  30.9389987  85.6875006  62.4975017
  32.7499987  86.4125006  63.1715017  33.7789987  85.2565006  62.9175017
  34.5859987  86.0405006  61.7795017  35.9919987  86.1245006  61.9305017
  36.4709987  85.1815006  61.6995017  36.2249987  86.3415006  62.9685017
  36.6249987  87.2825006  61.1215017  37.6829987  87.3225006  61.3495017
  36.1739987  88.2245006  61.3985017  36.5319987  87.2055006  59.6165017
  35.0819987  87.2245006  59.2825017  34.5819987  86.4675006  59.8715017
  34.9789987  86.9945006  58.2325017  34.6899987  88.2115006  59.4775017
  37.1769987  88.3765006  58.9455017  38.1659987  88.5055006  59.3575017
  36.5689987  89.2495006  59.1015017  37.2409987  88.1495006  57.8915017
  37.1759987  85.9395006  59.1645017  38.2039987  85.9255006  59.4955017
  37.1419987  85.8895006  58.0865017  36.6449987  85.0955006  59.5815017
  34.6479987  84.9885006  64.0855017  33.1449987  84.0855006  62.2635017
  31.5879987  89.0385006  62.7245017  32.3959987  89.3695006  61.7215017
  32.4139987  88.8575006  60.6125017  32.9309987  90.7895006  61.9605017
  32.6899987  91.3705006  61.0765017  32.3729987  91.2425006  62.7755017
  34.3589987  90.7905006  62.2395017  34.9059987  90.0805006  61.6295017
  34.8329987  91.7535006  62.0765017  34.4859987  90.3955006  63.6915017
  33.8259987  90.9785006  64.3285017  34.2029987  89.3555006  63.8315017
  35.9229987  90.5685006  64.1365017  36.5459987  89.9055006  63.5385017
  36.2579987  91.5795006  63.9175017  36.1829987  90.2725006  65.6085017
  37.2249987  89.9835006  65.7305017  36.0579987  91.1995006  66.1655017
  35.2829987  89.2015006  66.2325017  34.2769987  89.5955006  66.3715017
  35.1869987  88.3405006  65.5765017  35.8379987  88.7265006  67.5945017
  35.1219987  88.0245006  68.0055017  36.7409987  88.1555006  67.3835017
  36.1749987  89.8135006  68.5965017  37.1099987  90.3175006  68.4045017
  35.4649987  90.2255006  69.6605017  35.8699987  91.0225006  70.2675017
  34.1339987  89.7105006  70.1335017  33.4259987  90.5365006  70.0825017
  33.7589987  88.9475006  69.4605017  34.1359987  89.1705006  71.5625017
  34.7189987  88.2505006  71.5815017  34.6729987  89.8825006  72.1865017
  32.7689987  88.9145006  72.1625017  32.1979987  89.8285006  72.3245017
  32.1419987  88.2695006  71.5535017  33.0299987  88.2555006  73.4815017
  33.5309987  87.3015006  73.3315017  33.7019987  88.8605006  74.0875017
  31.7999987  88.0555006  74.1955017  31.2889987  88.9975006  74.3845017
  31.0939987  87.4395006  73.6455017  32.1179987  87.4055006  75.5605017
  31.3389987  86.6825006  75.7955017  33.0409987  86.8365006  75.4685017
  32.2569987  88.3635006  76.7335017  33.2209987  88.8635006  76.6755017
  31.5099987  89.1435006  76.6005017  32.0909987  87.7725006  78.0745017
  32.1189987  88.5415006  78.8405017  32.8749987  87.0575006  78.3025017
  31.1389987  87.2565006  78.1585017  71.6339987  22.5885006  77.8665017
  71.0599987  22.1655006  78.6855017  71.0729987  22.4275006  76.9505017
  71.6989987  23.6605006  78.0285017  73.0059987  21.9695006  77.7815017
  72.6989987  20.9265006  77.7295017  73.3059987  22.1485006  78.8105017
  74.1649987  22.1875006  76.8625017  75.0729987  21.6585006  77.1525017
  74.4449987  23.2345006  76.7615017  73.7129987  21.6945006  75.5455017
  72.8099987  22.2165006  75.2375017  73.4509987  20.6385006  75.5895017
  74.7609987  21.9005006  74.5055017  75.5149987  21.1175006  74.5245017
  75.2909987  22.8385006  74.6605017  74.0969987  21.9175006  73.1245017
  74.7229987  22.4495006  72.4105017  73.1539987  22.4585006  73.1645017
  73.8389987  20.4795006  72.6075017  73.1529987  20.4975006  71.7625017
  73.3569987  19.8795006  73.3785017  75.1469987  19.8015006  72.1835017
  75.0009987  18.7245006  72.1145017  75.9099987  19.9565006  72.9435017
  75.6519987  20.3235006  70.8555017  76.7219987  20.1465006  70.7735017
  75.5179987  21.4035006  70.8085017  74.9319987  19.6685006  69.6575017
  73.8669987  19.7445006  69.8655017  75.1749987  18.6065006  69.6935017
  75.2339987  20.2095006  68.2475017  76.2709987  19.9285006  68.0765017
  75.2289987  21.2915006  68.3655017  74.4379987  19.8415006  67.0305017
  74.9749987  20.2155006  66.1615017  73.5049987  20.3995006  67.0745017
  74.1069987  18.3365006  66.8475017  73.4419987  18.0025006  67.6415017
  74.9979987  17.7195006  66.9175017  73.4239987  18.0685006  65.5225017
  72.4489987  18.5425006  65.5645017  73.2509987  16.9965006  65.4855017
  74.1259987  18.4875006  64.2485017  75.1159987  18.0525006  64.2005017
  74.2179987  19.5665006  64.2055017  73.4509987  18.0375006  63.0415017
  73.4909987  16.9755006  62.4375017  72.6909987  18.9745006  62.8055017
  71.7599987  18.4685006  61.8685017  71.5319987  17.4275006  62.0395017
  72.2489987  18.5695006  60.9105017  70.4719987  19.3135006  61.9235017
  69.7879987  19.0025006  61.1515017  70.8139987  20.7745006  61.7485017
  69.8999987  21.3515006  61.7165017  71.3209987  20.8745006  60.7965017
  71.6559987  21.2295006  62.8125017  72.0009987  22.7615006  62.8385017
  73.3879987  22.7755006  62.0535017  74.3789987  21.7745006  62.2485017
  74.2669987  21.2695006  63.1995017  75.3629987  22.2335006  62.2575017
  74.4149987  20.7555006  61.0775017  73.4729987  20.2215006  61.0815017
  75.2119987  20.0555006  61.2845017  74.6259987  21.2165006  59.6335017
  74.6189987  20.0605006  58.7055017  75.3109987  19.3165006  59.0755017
  74.9429987  20.4095006  57.7365017  73.6129987  19.6745006  58.6335017
  73.4839987  22.0815006  59.1945017  73.3229987  22.8425006  59.9425017
  72.6099987  21.4685006  59.0615017  73.7659987  22.5375006  58.2565017
  75.9529987  21.8775006  59.5455017  75.9829987  22.7085006  60.2345017
  76.1039987  22.2365006  58.5385017  76.7269987  21.1665006  59.7955017
  70.9959987  23.4445006  61.9865017  72.1829987  23.1585006  64.2455017
  69.8689987  19.2685006  63.2035017  68.5799987  19.4215006  63.4345017
  67.7429987  19.7715006  62.6295017  68.2429987  19.0115006  64.8625017
  67.2699987  18.5365006  64.7855017  68.9399987  18.2195006  65.1255017
  68.2539987  20.1005006  65.8865017  67.6449987  20.9325006  65.5505017
  67.8099987  19.7595006  66.8165017  69.6829987  20.5965006  66.1435017
  70.2959987  19.8385006  66.6245017  70.1799987  20.8395006  65.2075017
  69.6309987  21.8505006  67.0055017  70.5409987  22.4375006  66.8915017
  68.8089987  22.5095006  66.7375017  69.4929987  21.4645006  68.4615017
  68.9639987  20.5145006  68.4915017  70.4999987  21.2615006  68.8205017
  68.8519987  22.4045006  69.3755017  69.5009987  23.2715006  69.4935017
  67.9279987  22.7705006  68.9365017  68.5399987  21.8155006  70.7525017
  69.5009987  21.5705006  71.1905017  68.1389987  22.6425006  71.3365017
  67.5929987  20.6595006  70.8475017  66.5219987  20.6355006  70.7135017
  68.1759987  19.5425006  71.1155017  67.6839987  18.5875006  71.2325017
  69.6539987  19.4885006  71.2865017  70.0589987  18.7105006  70.6415017
  70.1379987  20.4125006  70.9885017  70.0309987  19.1615006  72.7195017
  69.3499987  18.4045006  73.1065017  71.0209987  18.7105006  72.7245017
  70.0269987  20.3815006  73.6545017  70.8209987  21.0515006  73.3245017
  69.0939987  20.9185006  73.5045017  70.2089987  20.0795006  75.1505017
  71.2579987  19.8455006  75.3195017  70.0059987  20.9885006  75.7135017
  69.3319987  18.9515006  75.6845017  68.3399987  19.0145006  75.2425017
  69.7289987  17.9845006  75.3875017  69.1729987  19.0075006  77.2105017
  70.0629987  18.6005006  77.6865017  69.1079987  20.0455006  77.5305017
  67.9289987  18.2445006  77.7535017  67.6109987  18.1265006  78.7865017
  67.0959987  17.8975006  77.1455017  69.3899987  17.1605006  77.4325017
  69.1369987  16.1165006  77.5905017  70.2219987  17.3965006  78.0875017
  69.7369987  17.2655006  76.4085017  86.0869987  77.5715006  78.3105017
  87.1219987  77.8435006  78.4905017  85.6879987  77.1575006  79.2325017
  85.5379987  78.4845006  78.0945017  85.9379987  76.3245006  76.8715017
  86.5959987  75.5205006  77.1965017  86.4629987  76.8455006  76.0755017
  84.1739987  75.5105006  76.1495017  83.3539987  76.2225006  76.2415017
  83.8909987  74.6465006  76.7475017  84.2909987  75.0925006  74.7645017
  84.6849987  74.0815006  74.6825017  84.9659987  75.7265006  74.1915017
  82.8809987  75.1295006  74.1205017  82.4439987  76.1125006  73.9665017
  82.1199987  74.5315006  74.6195017  83.1799987  74.5415006  72.8305017
  84.1049987  74.9065006  72.3885017  82.4029987  74.7025006  72.0865017
  83.3069987  73.0745006  73.1015017  82.3469987  72.6135006  73.3255017
  83.9499987  72.8685006  73.9555017  83.8919987  72.4325006  71.8735017
  84.9139987  72.7765006  71.7185017  83.3339987  72.7305006  70.9885017
  83.8839987  70.9165006  71.9835017  83.1029987  70.6065006  72.6735017
  84.8239987  70.5775006  72.4175017  83.6749987  70.2335006  70.6505017
  82.6149987  70.2745006  70.4095017  83.9229987  69.1775006  70.7595017
  84.4849987  70.8185006  69.5185017  85.5349987  70.8305006  69.8025017
  84.2019987  71.8585006  69.3615017  84.3539987  70.0715006  68.2295017
  83.2829987  70.0395006  68.0465017  84.6499987  69.0545006  68.4805017
  85.1179987  70.5105006  66.9165017  84.8199987  69.7555006  66.1905017
  86.1649987  70.3225006  67.1385017  84.9949987  71.8055006  66.2885017
  85.7839987  72.0865006  65.5995017  84.8659987  72.6385006  66.9745017
  83.7209987  71.6145006  65.5265017  82.9259987  71.3015006  66.1905017
  83.8499987  70.8615006  64.7585017  83.1119987  72.9435006  65.2935017
  82.8539987  73.7225006  66.1835017  82.8499987  72.9825006  64.0215017
  82.1859987  74.0885006  63.4595017  82.1659987  74.7855006  64.2835017
  81.1769987  73.9265006  63.1095017  83.0719987  74.6185006  62.3415017
  82.5599987  75.5325006  62.0895017  83.2649987  73.7775006  61.0985017
  82.2999987  73.4575006  60.7295017  83.8349987  72.9025006  61.3835017
  83.9619987  74.5215006  60.0965017  85.5049987  74.2385006  59.8815017
  86.1259987  74.2635006  61.3475017  87.5389987  74.2915006  61.4125017
  87.9199987  75.3005006  61.4975017  87.9519987  73.8825006  60.4955017
  88.0719987  73.4245006  62.5025017  87.8379987  73.8585006  63.4665017
  89.1449987  73.3275006  62.4165017  87.5479987  72.0605006  62.5435017
  88.2399987  71.6075006  63.6265017  89.2889987  71.8245006  63.4815017
  88.0949987  70.5395006  63.6915017  87.8499987  72.0815006  64.5145017
  86.1169987  71.8295006  62.8035017  85.5419987  72.4575006  62.1405017
  85.9069987  72.0505006  63.8345017  85.9149987  70.7885006  62.5955017
  87.8989987  71.3725006  61.2695017  87.4839987  71.9255006  60.4405017
  87.4879987  70.3745006  61.2805017  88.9739987  71.3195006  61.1725017
  85.6569987  72.8835006  59.3355017  86.0989987  75.3305006  59.1095017
  84.3419987  74.9815006  62.9495017  84.5789987  75.6375006  64.0915017
  83.8209987  75.8025006  64.9935017  85.9469987  76.1785006  64.3215017
  86.6849987  75.4275006  64.0605017  86.1519987  77.0325006  63.6805017
  86.0259987  76.5735006  65.8205017  86.9869987  77.0445006  65.9955017
  85.2779987  77.3345006  66.0215017  85.8539987  75.3975006  66.8035017
  84.8009987  75.1865006  66.9745017  86.2779987  74.4945006  66.3715017
  86.5559987  75.6775006  68.1355017  87.3409987  76.4085006  67.9505017
  85.8559987  76.1505006  68.8205017  87.1749987  74.4755006  68.8205017
  87.2789987  74.5805006  69.8985017  86.6159987  73.5555006  68.6585017
  88.5699987  74.3225006  68.1855017  88.4289987  73.8845006  67.1985017
  88.9839987  75.3145006  68.0245017  89.5559987  73.5135006  68.9445017
  90.5279987  73.2855006  68.5235017  89.7229987  73.7385006  69.9975017
  88.7209987  72.4455006  68.8555017  88.1489987  72.0255006  68.0425017
  88.6489987  71.8525006  69.9845017  87.9129987  71.0905006  69.7725017
  89.1899987  71.8225006  71.4375017  89.8129987  70.9645006  71.6835017
  89.7049987  72.6935006  71.8285017  87.8979987  71.6675006  72.1275017
  87.2989987  72.5665006  71.9855017  87.3429987  70.8565006  71.6585017
  88.0379987  71.3855006  73.5955017  88.1639987  70.3225006  73.8005017
  88.8949987  71.8845006  74.0395017  86.7659987  71.8755006  74.2635017
  86.3939987  72.7625006  73.7555017  85.9789987  71.1275006  74.1855017
  87.0149987  72.1815006  75.7105017  86.0519987  72.2455006  76.2135017
  87.5289987  71.3375006  76.1625017  87.7619987  73.4425006  75.9875017
  88.7779987  73.4715006  75.5985017  87.2769987  74.3495006  75.6315017
  87.8219987  73.4915006  77.4605017  86.8899987  73.6475006  77.9985017
  88.2949987  72.6315006  77.9295017  88.6569987  74.6175006  77.6315017
  88.8939987  74.7655006  78.6805017  88.1889987  75.5275006  77.2725017
  89.5939987  74.4945006  77.0955017  13.8199987  60.8895006  77.9125017
  14.5829987  60.6895006  78.6585017  12.8929987  61.1045006  78.4365017
  14.1109987  61.7885006  77.3755017  13.6579987  59.7355006  76.9795017
  13.4109987  58.8615006  77.5795017  14.6319987  59.5385006  76.5405017
  12.6089987  59.9025006  75.8795017  11.9249987  60.7285006  76.0725017
  11.9879987  59.0155006  75.7745017  13.3119987  60.1395006  74.5955017
  14.1419987  59.4395006  74.5295017  13.7569987  61.1335006  74.6135017
  12.4129987  59.9885006  73.2905017  13.0459987  59.4655006  72.5785017
  12.3149987  61.0085006  72.9215017  11.0939987  59.3525006  73.3085017
  10.4529987  59.8345006  74.0445017  11.1809987  58.3125006  73.6145017
  10.4179987  59.4205006  71.9215017   9.6079987  58.6935006  71.9275017
  11.1459987  59.0595006  71.1955017   9.8659987  60.8015006  71.4535017
  10.7039987  61.4805006  71.3045017   9.2669987  61.2295006  72.2555017
   9.0279987  60.7445006  70.1725017   8.6699987  61.7415006  69.9275017
   8.1399987  60.1365006  70.3435017   9.7869987  60.1915006  69.0105017
   9.1049987  60.0355006  68.1775017  10.1829987  59.2095006  69.2685017
  10.8829987  61.0575006  68.6015017  11.7979987  60.9985006  69.1875017
  10.6729987  62.1185006  68.4745017  11.1499987  60.4205006  67.2175017
  10.3099987  60.5795006  66.5455017  11.2649987  59.3425006  67.3105017
  12.3449987  60.9605006  66.6475017  12.9439987  60.3605006  67.3305017
  12.1649987  61.9055006  67.1515017  13.5699987  61.3365006  64.7965017
  12.7679987  61.3295006  64.0655017  14.0569987  60.3665006  64.7385017
  14.7119987  62.5485006  64.3715017  15.5049987  62.5955006  65.1065017
  14.2309987  63.5175006  64.3165017  15.7339987  61.7655006  64.8775017
  15.7939987  61.2515006  65.9955017  16.4179987  61.5705006  63.8705017
  17.0729987  60.3545006  63.9645017  17.3879987  60.4055006  64.9955017
  17.9419987  60.4135006  63.3255017  16.3049987  59.0795006  63.7145017
  16.9639987  58.2285006  63.7635017  15.6719987  59.1685006  62.3205017
  15.3019987  58.1875006  62.0555017  16.4709987  59.4335006  61.6395017
  14.6159987  60.1385006  62.2535017  13.2959987  59.6395006  61.5505017
  12.9659987  58.3295006  62.3785017  11.6299987  58.0315006  62.7435017
  11.1839987  58.8365006  63.3135017  11.6229987  57.1565006  63.3875017
  10.7369987  57.6485006  61.5235017  10.7879987  58.4635006  60.8125017
   9.7279987  57.5835006  61.9055017  10.9619987  56.3695006  60.7095017
  12.3139987  56.2735006  60.0595017  12.4969987  57.1855006  59.5075017
  12.2979987  55.4345006  59.3805017  13.0589987  56.1075006  60.8235017
  10.7669987  55.1895006  61.6085017   9.8299987  55.3075006  62.1315017
  11.5939987  55.1295006  62.2925017  10.7339987  54.3085006  60.9835017
   9.9349987  56.4195006  59.6055017   8.9479987  56.4755006  60.0405017
  10.0159987  55.5255006  59.0055017  10.1119987  57.2875006  58.9865017
  12.1629987  60.5645006  61.7335017  13.6629987  59.1825006  60.1985017
  15.3619987  58.9175006  64.7765017  14.9219987  57.6925006  64.8815017
  15.3079987  56.7365006  64.2255017  13.9739987  57.6235006  66.0835017
  14.4349987  58.1955006  66.8815017  13.0539987  58.1465006  65.8345017
  13.6879987  56.1695006  66.5075017  13.3809987  55.6105006  65.6305017
  14.6109987  55.7105006  66.8485017  12.6119987  56.0365006  67.5875017
  11.6479987  56.0725006  67.0865017  12.7069987  55.0315006  67.9905017
  12.6359987  57.0365006  68.7555017  12.4059987  58.0055006  68.3175017
  11.7999987  56.7905006  69.4055017  13.8979987  57.1805006  69.6065017
  14.6909987  57.6325006  69.0145017  13.6959987  57.8735006  70.4215017
  14.3939987  55.8645006  70.1965017  13.6069987  55.3115006  70.7075017
  14.8159987  55.1865006  69.4605017  15.4719987  56.2325006  71.1895017
  16.1899987  56.7925006  70.6015017  14.9859987  56.9525006  71.8465017
  16.1189987  55.2515006  71.9895017  17.0389987  54.8415006  71.6025017
  15.6999987  54.7965006  73.1875017  16.4379987  54.0745006  73.5065017
  14.6379987  54.9775006  74.1025017  13.8809987  55.7005006  73.8035017
  14.1009987  54.1115006  74.4735017  15.4429987  55.5745006  75.2095017
  14.7959987  55.8645006  76.0365017  16.1299987  54.8305006  75.6085017
  16.2319987  56.7795006  74.7375017  17.1119987  56.4935006  74.1625017
  15.6499987  57.4355006  74.0955017  16.6589987  57.5225006  75.9445017
  16.7959987  58.5535006  75.6275017  15.8089987  57.5235006  76.6245017
  17.8699987  57.0495006  76.6735017  18.4929987  56.3145006  76.1665017
  18.5539987  57.7925006  77.0735017  17.1839987  56.3815006  77.7485017
  16.2309987  56.8305006  78.0235017  16.9789987  55.3285006  77.5635017
  18.0489987  56.4785006  78.8355017  18.9859987  55.9285006  78.7925017
  18.3139987  57.4915006  79.1305017  17.1789987  55.8905006  79.8815017
  17.6519987  55.9545006  80.8565017  16.9659987  54.8435006  79.6905017
  16.2289987  56.4145006  79.9395017  80.5589987  25.7325006  79.4975017
  80.8249987  25.0395006  80.2895017  79.5799987  25.4475006  79.1225017
  80.4659987  26.7205006  79.9405017  81.5649987  25.7265006  78.4215017
  81.6769987  24.7685006  77.9155017  82.5609987  26.0215006  78.7405017
  81.0329987  26.6975006  77.4895017  80.9209987  27.7265006  77.8325017
  80.0989987  26.4425006  76.9935017  82.1119987  26.6315006  76.5075017
  82.8479987  26.1245006  77.1285017  82.3899987  27.6845006  76.5095017
  82.2219987  26.0405006  74.9705017  81.1879987  26.1135006  74.6445017
  82.4019987  24.9875006  75.1795017  83.2099987  26.5285006  73.7345017
  84.2239987  26.1695006  73.9015017  83.2719987  27.6145006  73.7105017
  82.6979987  26.0085006  72.3465017  81.6109987  25.9685006  72.3725017
  83.0369987  24.9815006  72.2155017  83.1459987  26.8465006  71.1415017
  84.2139987  27.0555006  71.1775017  82.6479987  27.8135006  71.1215017
  82.8289987  26.0985006  69.8745017  81.7779987  25.8195006  69.8945017
  83.3909987  25.1655006  69.8765017  83.1239987  26.8585006  68.5915017
  84.1929987  27.0165006  68.4635017  82.6679987  27.8475006  68.5995017
  82.5709987  26.0625006  67.4185017  82.4269987  26.7335006  66.5745017
  81.5839987  25.6785006  67.6705017  83.4639987  24.9025006  66.9655017
  83.4199987  24.1355006  67.7345017  84.4889987  25.2685006  66.9595017
  83.1529987  24.2895006  65.5875017  83.9619987  23.6055006  65.3365017
  83.1709987  25.0715006  64.8335017  81.8409987  23.5255006  65.4785017
  81.7009987  23.1775006  64.4605017  81.0229987  24.2075006  65.6935017
  81.7469987  22.3465006  66.4255017  81.9169987  22.6655006  67.4455017
  82.4849987  21.5955006  66.1685017  80.5149987  21.5945006  66.2505017
  80.2289987  20.9515006  67.2135017  79.8549987  21.7635006  65.1145017
  78.4569987  21.4355006  65.1355017  78.1849987  21.6375006  66.1585017
  78.3049987  20.3865006  64.9275017  77.6249987  22.3215006  64.1685017
  76.5799987  22.0925006  64.2945017  78.0549987  22.0955006  62.6915017
  77.2589987  22.4005006  62.0255017  78.2329987  21.0345006  62.5495017
  79.2469987  22.8455006  62.4355017  79.3489987  23.7815006  61.1755017
  80.8999987  23.7165006  60.9135017  81.8189987  24.4525006  61.6935017
  82.6149987  23.8965006  62.1765017  81.2389987  24.9375006  62.4625017
  82.3929987  25.5485006  60.7915017  81.5939987  26.2555006  60.6245017
  82.8749987  25.0855006  59.4845017  83.8899987  25.1485006  59.5785017
  82.5469987  24.1285006  59.2395017  82.6029987  25.7105006  58.7485017
  83.4349987  26.1685006  61.6215017  78.6519987  23.1325006  60.0675017
  78.9589987  25.1785006  61.4715017  77.8019987  23.6975006  64.5815017
  77.0619987  24.5985006  63.9465017  76.0709987  24.3565006  63.2865017
  84.6449987  26.3125006  61.2965017  82.9249987  26.4685006  62.7015017
  77.5509987  26.0075006  64.2675017  78.6349987  25.9695006  64.2215017
  77.2409987  26.6645006  63.4585017  77.0519987  26.5265006  65.6235017
  76.9179987  27.5985006  65.5265017  76.0619987  26.1145006  65.7925017
  77.9399987  26.2435006  66.8235017  78.9609987  26.1345006  66.4665017
  77.9289987  27.1355006  67.4445017  77.5589987  25.0515006  67.6825017
  76.5099987  25.0825006  67.9725017  77.7089987  24.0945006  67.1885017
  78.4199987  25.0915006  68.9655017  79.4379987  25.3455006  68.6755017
  78.0589987  25.9245006  69.5655017  78.4389987  23.8345006  69.8355017
  79.1029987  23.1155006  69.3575017  78.8919987  24.0815006  70.7915017
  77.0809987  23.1755006  70.0925017  76.4809987  23.1725006  69.1895017
  77.2219987  22.1315006  70.3705017  76.3659987  23.8825006  71.2185017
  75.5119987  24.4885006  70.9555017  76.6909987  23.8145006  72.5235017
  76.0899987  24.3765006  73.2245017  77.8019987  23.0405006  73.1565017
  77.4029987  22.4925006  74.0085017  78.2109987  22.2965006  72.4825017
  78.9249987  23.9455006  73.6535017  79.4719987  24.3725006  72.8145017
  78.5079987  24.7865006  74.2035017  79.9039987  23.1755006  74.5695017
  80.3849987  23.9355006  75.1855017  79.2839987  22.5885006  75.2415017
  80.9839987  22.2705006  73.9445017  80.5329987  21.5925006  73.2235017
  81.7099987  22.8635006  73.3915017  81.7119987  21.4665006  75.0375017
  80.9789987  21.0395006  75.7195017  82.2329987  20.6215006  74.5945017
  82.6879987  22.3095006  75.8635017  83.7179987  22.0155006  75.6695017
  82.6179987  23.3615006  75.5915017  82.4199987  22.1785006  77.3575017
  83.0769987  22.8185006  77.9405017  81.4089987  22.5175006  77.5735017
  82.5609987  20.7795006  77.8175017  82.2819987  20.6875006  78.8625017
  83.5799987  20.4215006  77.7205017  81.9219987  20.1135006  77.2445017
  68.6929987  19.2245006  79.8855017  67.8629987  19.6995006  79.3715017
  69.6119987  19.5745006  79.4245017  68.6869987  19.5735006  80.9145017
  68.5549987  17.2315006  79.8015017  68.8199987  16.6265006  78.9365017
  67.8879987  16.6235006  80.4065017  69.7879987  17.5555006  80.5675017
  69.6219987  18.0965006  81.4995017  70.5169987  18.1375006  80.0075017
  70.3609987  16.2685006  80.8615017  69.5699987  15.6725006  81.3105017
  71.1059987  16.4165006  81.6415017  70.9759987  15.4795006  79.7235017
  70.1429987  15.1475006  79.1085017  71.3859987  14.5855006  80.1895017
  72.0479987  16.1165006  78.8125017  72.8069987  16.5715006  79.4465017
  71.5849987  16.9315006  78.2595017  72.6919987  15.1965006  77.8695017
  73.3719987  14.5605006  78.4335017  73.3139987  15.7865006  77.1985017
  71.7999987  14.3675006  77.0885017  71.0579987  14.0605006  77.8245017
  72.4089987  13.4885006  76.8855017  71.1049987  14.7865006  75.8315017
  71.8579987  15.3025006  75.2385017  70.3839987  15.5455006  76.1335017
  70.4189987  13.7655006  74.9815017  70.3319987  12.9935006  75.7425017
  71.2749987  13.4915006  74.3655017  69.1449987  13.7885006  74.1015017
  68.2689987  14.1225006  74.6535017  68.8899987  12.8125006  73.6915017
  69.3829987  14.7235006  73.0075017  69.4389987  15.7335006  73.4065017
  68.5229987  14.7075006  72.3405017  70.6349987  14.4095006  72.1965017
  70.5549987  13.4145006  71.7625017  71.5219987  14.3975006  72.8235017
  70.8399987  15.3905006  71.0735017  71.8829987  15.4345006  70.7765017
  70.5629987  16.3895006  71.3985017  69.9829987  15.0185006  69.8555017
  68.9409987  14.9365006  70.1365017  70.3069987  14.0715006  69.4405017
  70.2189987  16.0215006  68.7385017  70.2909987  17.2215006  68.9075017
  70.4119987  15.3765006  67.6085017  70.8819987  16.1305006  66.4845017
  71.7229987  15.5615006  66.1175017  71.2099987  17.1315006  66.7235017
  69.7769987  16.1545006  65.4555017  69.4279987  15.1655006  65.2075017
  70.2649987  16.8745006  64.1775017  71.2029987  16.4295006  63.8745017
  70.4429987  17.9055006  64.4545017  69.2929987  16.8005006  63.0955017
  69.5649987  15.8485006  61.8255017  68.1589987  15.8355006  61.1525017
  67.0919987  15.2795006  61.8475017  67.3809987  14.9275006  62.8295017
  66.7149987  14.4145006  61.3085017  65.9089987  16.2435006  61.9365017
  66.2989987  17.0935006  62.4825017  65.0619987  15.8435006  62.4755017
  65.3559987  16.8005006  60.6515017  64.8689987  15.7045006  59.7575017
  65.6529987  14.9665006  59.6575017  64.6489987  16.1355006  58.7915017
  63.9689987  15.2815006  60.1795017  64.1969987  17.6575006  60.9865017
  64.4919987  18.3425006  61.7665017  63.3779987  17.0345006  61.2995017
  63.9309987  18.2045006  60.0935017  66.2939987  17.6765006  59.9085017
  66.5839987  18.5035006  60.5395017  65.8029987  18.0515006  59.0235017
  67.1689987  17.1095006  59.6245017  70.3359987  16.4695006  60.7365017
  70.0389987  14.5675006  62.3585017  68.6849987  16.7695006  66.1635017
  67.6119987  16.1505006  66.4965017  67.3819987  14.9695006  66.3135017
  66.6089987  17.1835006  67.0775017  67.1929987  17.9795006  67.5275017
  66.0589987  17.6435006  66.2605017  65.6589987  16.5325006  68.0835017
  64.9049987  17.2585006  68.3665017  65.1269987  15.7195006  67.5995017
  66.3609987  16.0165006  69.3495017  66.8709987  15.0825006  69.1275017
  67.1359987  16.7265006  69.6275017  65.4109987  15.8275006  70.5535017
  64.5359987  15.2675006  70.2285017  65.8869987  15.2275006  71.3255017
  64.9319987  17.1565006  71.1795017  65.8019987  17.7995006  71.2955017
  64.2929987  17.6405006  70.4435017  64.1699987  17.0805006  72.5195017
  64.1399987  18.0895006  72.9275017  63.1409987  16.8045006  72.3085017
  64.7289987  16.1205006  73.5805017  64.0589987  16.0825006  74.4315017
  64.7599987  15.1125006  73.1695017  66.1189987  16.5105006  74.0025017
  66.5979987  17.2535006  73.3825017  66.8089987  16.0565006  75.0485017
  67.8039987  16.4185006  75.2665017  66.3059987  15.0295006  76.0175017
  65.4529987  14.5455006  75.5445017  67.0559987  14.2585006  76.1535017
  65.8689987  15.5445006  77.3625017  65.9419987  14.7485006  78.1025017
  66.5569987  16.3225006  77.6865017  64.4859987  16.0885006  77.3535017
  64.4109987  16.8995006  76.6285017  63.7809987  15.3265006  77.0315017
  64.0909987  16.5935006  78.6955017  63.1079987  17.0365006  78.5545017
  63.9409987  15.7085006  79.3125017  65.0059987  17.5755006  79.4355017
  65.9539987  17.0655006  79.5955017  65.2209987  18.3955006  78.7565017
  64.5519987  18.0995006  80.7265017  63.5159987  18.3115006  80.4665017
  64.5369987  17.1665006  81.2875017  65.0499987  19.1895006  81.6285017
  66.1359987  19.1445006  81.6165017  64.7859987  20.1185006  81.1265017
  64.5669987  19.2555006  83.0535017  64.9459987  20.1445006  83.5485017
  64.8919987  18.3975006  83.6325017  63.4819987  19.2905006  83.0965017
  27.3249987  25.1055006  79.2235017  28.3549987  24.9995006  79.5495017
  26.7669987  24.2565006  79.6075017  26.9219987  26.0015006  79.6885017
  27.2339987  25.1825006  77.7665017  27.7289987  24.2745006  77.4255017
  27.8979987  26.0055006  77.5155017  25.9879987  25.3265006  77.0755017
  25.4309987  26.2125006  77.3805017  25.3239987  24.4805006  77.2445017
  26.3029987  25.4155006  75.5235017  26.7459987  24.5075006  75.1195017
  26.9729987  26.2275006  75.2455017  24.8839987  25.6415006  74.8325017
  24.5999987  26.6645006  75.0665017  24.1969987  25.0005006  75.3825017
  24.6999987  25.4055006  73.3245017  25.4759987  24.7085006  73.0125017
  24.9169987  26.3465006  72.8235017  23.3219987  24.8815006  72.8515017
  22.7149987  24.3985006  73.6145017  23.3439987  24.1995006  72.0025017
  22.6899987  26.1195006  72.4525017  23.4619987  26.6665006  71.9135017
  22.5249987  26.6625006  73.3815017  21.4449987  26.1245006  71.6575017
  21.0219987  27.1265006  71.6565017  20.7069987  25.4835006  72.1385017
  21.6489987  25.6685006  70.2385017  20.6719987  25.3165006  69.9155017
  22.2829987  24.7855006  70.3105017  22.2299987  26.6175006  69.2005017
  23.2629987  26.7995006  69.4905017  21.7129987  27.5695006  69.3095017
  22.2089987  26.1895006  67.6995017  21.1989987  25.9525006  67.3735017
  22.7969987  25.2855006  67.5515017  22.7959987  27.3025006  66.8285017
  23.6339987  27.7405006  67.3675017  22.0609987  28.0945006  66.7135017
  23.2939987  26.8785006  65.4445017  22.5299987  26.2985006  64.9375017
  24.1539987  26.2255006  65.5675017  23.7039987  28.0685006  64.5525017
  24.4429987  28.6805006  65.0535017  22.8409987  28.6825006  64.3225017
  25.0599987  28.6425006  64.9395017  25.5119987  28.6285006  66.0695017
  25.5619987  29.2065006  63.8915017  26.8209987  29.8585006  64.0105017
  27.0249987  29.7345006  65.0635017  26.8669987  30.9095006  63.7635017
  27.8419987  29.0405006  63.1625017  28.7999987  29.4555006  63.4275017
  27.6379987  29.1185006  61.6095017  28.0549987  28.2025006  61.2135017
  28.2659987  29.9465006  61.3045017  26.3019987  29.3055006  61.1355017
  25.4409987  28.0965006  60.6295017  25.9019987  26.9055006  61.5805017
  26.4529987  25.7195006  61.0315017  27.2899987  25.3545006  61.6115017
  26.8339987  25.9235006  60.0355017  25.3759987  24.6045006  60.8375017
  25.8589987  23.7295006  60.4205017  24.6709987  24.9905006  60.1145017
  24.5399987  24.0985006  62.0085017  25.4449987  23.8115006  63.1635017
  26.2519987  23.1775006  62.8205017  24.8699987  23.2935006  63.9165017
  25.8089987  24.7455006  63.5645017  23.4879987  25.1035006  62.3745017
  22.9629987  25.3925006  61.4775017  23.9579987  25.9485006  62.8435017
  22.8079987  24.6235006  63.0635017  23.8639987  22.8045006  61.6505017
  23.2409987  22.9575006  60.7815017  23.2539987  22.4815006  62.4805017
  24.6119987  22.0535006  61.4375017  24.0089987  28.3635006  60.8555017
  25.8569987  27.7395006  59.2555017  27.8269987  27.7375006  63.7145017
  28.9349987  27.0775006  63.7145017  30.0019987  27.3655006  63.1905017
  28.6509987  25.7665006  64.4225017  28.0029987  25.2125006  63.7515017
  29.5849987  25.2115006  64.4605017  28.0349987  25.9125006  65.8285017
  28.7149987  26.4395006  66.4895017  27.1249987  26.5035006  65.8015017
  27.7389987  24.5275006  66.4135017  26.7829987  24.1605006  66.0495017
  28.4879987  23.8225006  66.0615017  27.7519987  24.5295006  67.9555017
  27.8039987  23.5155006  68.3485017  28.6049987  25.0605006  68.3715017
  26.4619987  25.1825006  68.4715017  26.2979987  26.1015006  67.9125017
  25.6359987  24.5215006  68.2155017  26.4009987  25.4835006  69.9775017
  25.3479987  25.5885006  70.2345017  26.7599987  24.6055006  70.5075017
  27.1549987  26.6865006  70.4725017  27.3269987  26.6055006  71.5395017
  28.1379987  26.7155006  70.0045017  26.4289987  27.9515006  70.1375017
  26.1619987  28.1075006  69.1025017  26.0699987  28.8995006  71.0075017
  25.5469987  29.7585006  70.6115017  26.2889987  28.9465006  72.4975017
  26.5199987  27.9515006  72.8725017  27.1169987  29.5815006  72.7915017
  24.9949987  29.4355006  73.1885017  24.7519987  30.4365006  72.8335017
  24.1699987  28.7955006  72.8805017  25.0819987  29.4425006  74.7155017
  25.6639987  28.5785006  75.0375017  25.6359987  30.3195006  75.0385017
  23.7019987  29.4175006  75.4165017  23.3619987  30.4505006  75.4335017
  23.0279987  28.8865006  74.7455017  23.6019987  28.8215006  76.7925017
  22.6679987  29.0895006  77.2835017  23.6319987  27.7355006  76.7855017
  24.6739987  29.3335006  77.5795017  25.5969987  28.9565006  77.1435017
  24.6879987  30.4115006  77.4305017  24.6949987  29.0565006  79.0545017
  24.6859987  27.9705006  79.0945017  25.7099987  29.3535006  79.3085017
  23.7799987  29.5895006  80.0705017  24.0899987  29.2855006  81.0655017
  22.7639987  29.2385006  79.9255017  23.7599987  30.6755006  80.0475017
  46.0769987   9.1975006  78.3895017  46.3619987   9.1375006  79.4355017
  46.9779987   9.3825006  77.8115017  45.6919987   8.2255006  78.0955017
  45.0499987  10.2795006  78.1625017  45.4229987  11.2615006  78.4505017
  44.1509987  10.1105006  78.7495017  44.7139987  10.2875006  76.6835017
  44.2519987  11.2365006  76.4115017  43.9689987   9.5205006  76.4805017
  45.9369987  10.0365006  75.7725017  46.0259987   8.9725006  75.5665017
  46.8559987  10.3225006  76.2825017  45.8419987  10.7825006  74.4475017
  46.7899987  10.7405006  73.9175017  45.6419987  11.8365006  74.6335017
  44.7409987  10.2105006  73.5425017  43.7959987  10.1485006  74.0795017
  44.9839987   9.1955006  73.2355017  44.5589987  11.0885006  72.2935017
  45.5589987  11.3445006  71.9495017  44.1079987  12.0195006  72.6355017
  43.7499987  10.5365006  71.1245017  42.6899987  10.7285006  71.2855017
  43.8589987   9.4545006  71.0765017  44.1829987  11.1555006  69.7655017
  45.2399987  10.9705006  69.5885017  44.0639987  12.2385006  69.7905017
  43.3849987  10.5975006  68.6305017  42.3809987  11.0115006  68.6835017
  43.2799987   9.5225006  68.7755017  43.9859987  10.8605006  67.2535017
  43.4339987  10.3165006  66.4895017  45.0119987  10.5025006  67.1975017
  43.9529987  12.2835006  66.9205017  44.3009987  12.4965006  65.9125017
  44.5689987  12.8825006  67.5885017  42.5679987  12.6985006  67.0695017
  42.1929987  12.6595006  68.0905017  41.8379987  12.1765006  66.4575017
  42.6149987  14.0375006  66.6795017  41.6529987  14.2015006  66.2055017
  43.3589987  14.0315006  65.8875017  42.9059987  15.1645006  67.5905017
  43.8479987  15.0055006  68.1005017  42.1209987  15.2635006  68.3315017
  44.3009987  15.5745006  67.4605017  45.0869987  15.3965006  68.3615017
  44.5009987  16.1485006  66.2825017  45.8299987  16.5355006  66.0235017
  46.1619987  16.6895006  67.0365017  45.9299987  17.4625006  65.4775017
  46.6479987  15.4105006  65.3575017  47.6549987  15.7945006  65.4005017
  46.2399987  15.1295006  63.8475017  46.1959987  16.0955006  63.3645017
  45.2409987  14.7185006  63.8835017  47.0999987  14.2155006  63.1225017
  46.9079987  14.1625006  61.5315017  45.3299987  14.0515006  61.4165017
  44.6779987  12.8775006  61.9065017  43.8539987  13.2055006  62.5275017
  45.3399987  12.2625006  62.5015017  44.1499987  12.0395006  60.7395017
  44.9539987  11.5475006  60.2135017  43.4369987  11.2995006  61.0765017
  43.4979987  12.9545006  59.7335017  42.8529987  13.5965006  60.1645017
  44.3189987  13.5235006  59.2955017  43.0139987  12.4445006  59.0145017
  47.3029987  15.4405006  60.9185017  47.4759987  12.9065006  61.0105017
  46.6209987  14.2635006  66.1765017  47.8549987  13.9015006  66.5805017
  48.9309987  14.3755006  66.3125017  47.7919987  12.7485006  67.4495017
  46.8849987  12.7775006  68.0445017  47.7509987  11.8175006  66.8905017
  49.0419987  12.8135006  68.3135017  49.9099987  12.6005006  67.6995017
  49.1799987  13.8235006  68.6875017  49.0009987  11.8365006  69.4715017
  48.1229987  12.0005006  70.0905017  48.9209987  10.8195006  69.0955017
  50.2969987  11.9465006  70.3395017  51.1029987  11.4095006  69.8425017
  50.6229987  12.9815006  70.4145017  50.1429987  11.4015006  71.6875017
  49.1649987  11.6445006  72.0985017  50.1989987  10.3145006  71.6615017
  51.1969987  11.9085006  72.5945017  51.3889987  11.2635006  73.4505017
  52.1599987  12.0875006  72.1245017  50.6459987  13.2185006  73.0745017
  51.2599987  13.6335006  73.8645017  50.6499987  13.9485006  72.2665017
  49.2219987  13.0205006  73.5385017  48.4589987  12.8915006  72.7855017
  48.8309987  12.9785006  74.8115017  47.7899987  12.8185006  75.0525017
  49.7269987  13.1325006  76.0205017  49.2269987  12.7075006  76.8895017
  50.6599987  12.5905006  75.9115017  50.0279987  14.6175006  76.3155017
  50.4509987  14.7085006  77.3155017  50.7989987  14.9605006  75.6285017
  48.7909987  15.5385006  76.1925017  49.1539987  16.5305006  75.9235017
  48.2029987  15.1905006  75.3475017  47.8919987  15.6485006  77.4285017
  48.4559987  15.4975006  78.3465017  47.4319987  16.6315006  77.5125017
  46.8189987  14.6105006  77.3105017  46.2989987  14.7765006  76.3695017
  47.2929987  13.6375006  77.2195017  45.7839987  14.5815006  78.4155017
  45.3009987  15.5535006  78.4975017  44.9959987  13.8735006  78.1635017
  46.3499987  14.2085006  79.7735017  47.1269987  13.4495006  79.7335017
  46.7999987  15.0665006  80.2665017  45.1869987  13.7025006  80.6315017
  45.5159987  13.5025006  81.6465017  44.7639987  12.7835006  80.2395017
  44.3889987  14.4385006  80.6815017  95.4229987  56.7755006  79.7395017
  95.5659987  55.7085006  79.8765017  94.7989987  57.1335006  80.5535017
  96.3939987  57.2545006  79.8345017  94.7859987  57.0825006  78.3735017
  93.8089987  56.6145006  78.2625017  95.3949987  56.7165006  77.5515017
  94.6389987  58.5115006  78.2835017  95.4979987  59.0385006  78.6995017
  93.7729987  58.8555006  78.8465017  94.4629987  58.9075006  76.8555017
  93.9449987  59.8615006  76.7835017  93.8489987  58.1895006  76.3145017
  95.8109987  59.0345006  76.1685017  96.3309987  58.0805006  76.2015017
  96.4269987  59.7375006  76.7275017  95.7129987  59.4935006  74.7205017
  95.2989987  60.5005006  74.6995017  94.9989987  58.8595006  74.1985017
  97.0479987  59.4785006  73.9655017  97.8479987  59.7995006  74.6295017
  97.0179987  60.2035006  73.1535017  97.3789987  58.1275006  73.4105017
  96.6639987  57.9825006  72.6015017  97.0939987  57.4315006  74.1975017
  98.7459987  57.7855006  72.9245017  98.9439987  56.7155006  72.9075017
  99.5409987  58.2325006  73.5195017  98.8129987  58.3325006  71.5065017
  98.5179987  59.3795006  71.5205017  98.0769987  57.8155006  70.8905017
 100.1729987  58.1895006  70.8765017 100.3939987  57.1245006  70.8515017
 100.8939987  58.6315006  71.5625017 100.3919987  58.7545006  69.4895017
  99.6239987  58.3725006  68.8215017 101.3409987  58.3845006  69.1055017
 100.4109987  60.2795006  69.4495017 101.3889987  60.6595006  69.7395017
  99.6969987  60.7195006  70.1395017 100.1079987  60.7835006  68.0215017
 100.0799987  59.9285006  67.3545017 100.9489987  61.3975006  67.7095017
  98.8039987  61.6075006  67.8505017  98.7949987  62.4485006  68.5315017
  97.9369987  60.9885006  68.0515017  97.6089987  60.6985006  67.9675017
  96.6029987  60.8255006  68.6425017  97.9989987  59.6865006  67.3005017
  97.2489987  58.5615006  67.4005017  96.7059987  58.8065006  68.3005017
  97.7769987  57.6305006  67.5485017  96.2969987  58.4645006  66.2225017
  96.0279987  57.4335006  66.3845017  96.8169987  58.6475006  64.8005017
  96.1989987  58.1265006  64.0825017  97.8269987  58.2645006  64.7315017
  96.7999987  60.0225006  64.5535017  97.1229987  60.4805006  63.1135017
  96.4219987  59.4085006  62.1895017  95.0979987  59.6265006  61.7225017
  94.6619987  60.5255006  62.1385017  94.4619987  58.8025006  62.0335017
  95.0219987  59.6365006  60.1745017  94.8919987  60.6575006  59.8375017
  94.1519987  59.0635006  59.8895017  96.1729987  59.0775006  59.3625017
  96.5659987  57.7275006  59.8945017  96.7179987  57.8085006  60.9625017
  97.4899987  57.4365006  59.4165017  95.7919987  57.0155006  59.6505017
  95.7559987  58.9515006  57.9295017  95.3219987  59.8885006  57.6155017
  95.0539987  58.1425006  57.8385017  96.6449987  58.7425006  57.3515017
  97.3619987  59.9655006  59.4885017  97.1029987  60.9575006  59.1485017
  98.1639987  59.5725006  58.8815017  97.6759987  60.0025006  60.5215017
  96.4699987  61.7775006  62.8605017  98.5699987  60.3455006  62.9525017
  95.1149987  59.2915006  66.4115017  93.8969987  59.1515006  65.7545017
  93.4199987  58.3615006  64.9915017  93.0359987  60.2225006  66.1205017
  92.1259987  60.2545006  65.5305017  92.7169987  60.2175006  67.1595017
  93.9339987  61.3975006  65.8345017  94.6509987  61.5505006  66.6335017
  94.5169987  61.2575006  64.9295017  93.0929987  62.5985006  65.7055017
  93.5929987  63.4165006  65.1935017  92.1859987  62.3965006  65.1415017
  92.7069987  63.0215006  67.1025017  92.1369987  63.9335006  66.9335017
  91.9899987  62.2705006  67.4235017  93.7029987  63.2775006  68.2455017
  93.8989987  62.3455006  68.7715017  94.6529987  63.5875006  67.8155017
  93.2439987  64.3535006  69.2605017  93.1649987  65.2925006  68.7145017
  92.2379987  64.1035006  69.5875017  94.0919987  64.5515006  70.4525017
  95.1249987  64.6225006  70.1315017  93.8389987  65.5175006  70.8875017
  93.9219987  63.4875006  71.5095017  92.9579987  63.0505006  71.7245017
  94.9619987  63.0365006  72.2085017  94.8209987  62.2695006  72.9565017
  96.3899987  63.4975006  72.0625017  97.0189987  62.6425006  71.8195017
  96.5149987  64.2065006  71.2525017  96.8989987  64.1095006  73.3495017
  97.9459987  64.3535006  73.1735017  96.3779987  65.0605006  73.4455017
  96.7639987  63.2985006  74.7145017  95.7079987  63.0505006  74.8195017
  97.2849987  62.3555006  74.5715017  97.2549987  63.9605006  76.0005017
  98.1109987  64.4545006  75.5475017  96.4669987  64.7095006  76.0595017
  97.5959987  63.5095006  77.3555017  98.4869987  62.8895006  77.4285017
  97.7089987  64.2805006  78.1125017  96.4189987  62.6575006  77.6685017
  95.4659987  63.1615006  77.5205017  96.3749987  61.7465006  77.0735017
  96.5359987  62.2785006  79.1055017  96.7659987  63.1415006  79.7255017
  95.5749987  61.9105006  79.4565017  97.5859987  61.1975006  79.3305017
  97.5919987  60.8755006  80.3675017  98.5849987  61.5465006  79.0935017
  97.3869987  60.3255006  78.7145017  65.3089987  94.8895006  77.8255017
  65.2849987  95.9745006  77.7955017  66.2699987  94.5905006  78.2335017
  64.5399987  94.5615006  78.5195017  65.0959987  94.3135006  76.4885017
  65.8589987  94.5995006  75.7665017  64.1409987  94.5875006  76.0485017
  65.1489987  92.9975006  76.6835017  65.3859987  92.8265006  77.7335017
  65.9999987  92.6235006  76.1185017  63.7919987  92.0925006  76.2655017
  63.3379987  92.7555006  75.5325017  63.1969987  92.1935006  77.1725017
  63.6849987  90.5375006  75.7095017  63.7769987  89.7615006  76.4645017
  64.3949987  90.2845006  74.9235017  62.2929987  90.5075006  75.1475017
  61.7849987  91.3195006  75.6655017  61.8719987  89.5855006  75.5415017
  62.0049987  90.5955006  73.6995017  61.6809987  91.6175006  73.5135017
  61.1359987  89.9645006  73.5215017  63.0639987  90.2415006  72.7465017
  63.0989987  89.1605006  72.6195017  64.0329987  90.5315006  73.1475017
  62.8759987  90.8635006  71.4635017  63.7379987  90.8755006  70.7995017
  62.4839987  91.8795006  71.4705017  61.9709987  90.0565006  70.9825017
  60.9759987  90.3085006  71.3425017  62.1499987  89.0235006  71.2785017
  62.0139987  90.1515006  69.5565017  61.4699987  89.3015006  69.1505017
  63.0469987  90.0315006  69.2335017  61.4549987  91.3925006  68.9605017
  61.7359987  91.3005006  67.9145017  62.0959987  92.1655006  69.3805017
  60.0039987  91.8465006  69.0765017  59.6659987  91.5675006  70.0735017
  59.4099987  91.2625006  68.3795017  59.7219987  93.2095006  68.8895017
  60.2699987  93.8805006  69.5425017  58.6679987  93.4505006  69.0045017
  60.1429987  93.4885006  67.3815017  59.6319987  92.8075006  66.7135017
  61.2119987  93.3605006  67.2585017  60.2019987  94.8595006  67.3705017
  59.4679987  95.1895006  68.2285017  61.0929987  95.4685006  66.6235017
  61.0679987  96.7915006  66.0745017  61.4339987  97.3375006  66.9285017
  60.0699987  97.1285006  65.8375017  62.0049987  96.9765006  64.8835017
  62.0299987  98.0125006  64.5915017  61.5649987  96.0795006  63.6765017
  62.0859987  96.4095006  62.7875017  60.5019987  96.2405006  63.5295017
  61.8309987  94.7155006  63.9375017  62.5539987  93.7405006  62.9505017
  63.9039987  94.5045006  62.6145017  64.6979987  94.0285006  61.5235017
  64.3559987  93.1715006  60.9535017  65.5729987  93.7305006  62.0785017
  65.1199987  95.1915006  60.5735017  65.9589987  95.6875006  61.0375017
  64.0369987  96.2155006  60.3435017  63.7459987  96.0305006  59.3815017
  63.2539987  96.1485006  61.0265017  64.4009987  97.1505006  60.3715017
  65.7759987  94.6265006  59.2885017  62.8269987  92.5005006  63.6835017
  61.7119987  93.6395006  61.7285017  63.3039987  96.7345006  65.4265017
  64.3549987  96.7925006  64.6655017  64.4339987  97.3185006  63.5595017
  65.4249987  95.1235006  58.1835017  66.6519987  93.7295006  59.4135017
  65.5539987  96.2585006  65.4245017  65.3779987  95.2005006  65.5875017
  66.4299987  96.3185006  64.7825017  65.7829987  97.0175006  66.7515017
  66.2059987  97.9995006  66.5695017  64.8529987  97.1855006  67.2855017
  66.7329987  96.2215006  67.6145017  66.3539987  95.2065006  67.7045017
  67.6779987  96.1465006  67.0815017  66.9999987  96.8035006  68.9975017
  67.4479987  97.7875006  68.8755017  66.0619987  96.9605006  69.5235017
  67.8789987  96.0005006  69.8335017  68.8229987  95.7385006  69.3605017
  68.1349987  96.4875006  70.7725017  67.1309987  94.7815006  70.1295017
  67.1059987  94.4845006  69.0825017  67.9889987  94.2805006  70.5695017
  65.9269987  94.3095006  70.7915017  65.0599987  94.7325006  70.2985017
  65.8589987  93.2305006  70.6605017  65.9169987  94.6095006  72.2285017
  66.7169987  94.2965006  72.8825017  64.9649987  95.2645006  72.7525017
  64.9269987  95.5115006  73.8035017  63.8029987  95.7655006  71.9695017
  64.0899987  95.7835006  70.9195017  62.9629987  95.0845006  72.0425017
  63.3549987  97.1655006  72.3645017  64.1219987  97.9165006  72.1775017
  62.4769987  97.4815006  71.8035017  63.0189987  97.1425006  73.8475017
  62.4049987  96.2675006  74.0595017  63.9309987  97.0195006  74.4245017
  62.3049987  98.3635006  74.3035017  63.0319987  99.1715006  74.3485017
  61.5869987  98.6425006  73.5345017  61.5779987  98.2365006  75.6535017
  61.2559987  99.2405006  75.9235017  60.6679987  97.6735006  75.4675017
  62.3269987  97.6435006  76.8525017  62.8019987  96.6965006  76.6045017
  63.1239987  98.3015006  77.1935017  61.3889987  97.4195006  77.9785017
  60.5009987  96.8265006  77.7745017  61.8419987  96.9785006  78.8635017
  60.9979987  98.7895006  78.2865017  60.3629987  98.8205006  79.1665017
  60.4469987  99.2465006  77.4715017  61.8679987  99.4085006  78.4845017
   9.8589987  50.6395006  80.9455017  10.0109987  51.4955006  80.2955017
  10.7739987  50.4865006  81.5105017   9.0749987  50.8965006  81.6525017
   9.5149987  49.4785006  80.1995017  10.3279987  49.3505006  79.4865017
   8.6449987  49.7735006  79.6195017   9.2509987  48.1495006  80.9035017
   8.2099987  47.8715006  81.0645017   9.7519987  48.0075006  81.8595017
   9.8299987  47.2665006  79.9565017   9.6509987  46.2235006  80.2065017
  10.9099987  47.3755006  79.8755017   9.1769987  47.5665006  78.5785017
   8.2049987  48.0125006  78.7735017   8.9819987  46.6005006  78.1145017
   9.9549987  48.4705006  77.5755017  11.0059987  48.2805006  77.7845017
   9.7589987  49.4885006  77.9045017   9.7149987  48.3725006  76.0805017
  10.1459987  49.2915006  75.6885017   8.6349987  48.4785006  75.9845017
  10.1509987  47.2755006  75.2895017   9.3259987  46.5675006  75.3585017
  10.9669987  46.8495006  75.8705017  10.6009987  47.4065006  73.7765017
   9.5829987  47.4845006  73.4005017  10.8769987  46.3565006  73.6875017
  11.4579987  48.1835006  72.9695017  12.4789987  48.1915006  73.3435017
  11.1449987  49.2255006  72.9155017  11.4179987  47.5555006  71.5255017
  11.9569987  46.6105006  71.5575017  11.9789987  48.2005006  70.8515017
  10.0339987  47.2995006  70.9395017   9.2459987  47.9215006  71.3585017
   9.6979987  46.2695006  71.0465017  10.2089987  47.6025006  69.4565017
  11.1919987  47.2125006  69.1965017  10.2759987  48.6825006  69.3655017
   9.2419987  47.0955006  68.4655017   8.3469987  47.6815006  68.6445017
   9.0329987  46.0875006  68.8145017   9.5199987  47.0415006  66.9425017
  10.4289987  46.4885006  66.7425017   9.6269987  48.0425006  66.5425017
   8.3069987  46.9425006  65.9305017   7.1659987  46.5225006  66.1265017
   8.5979987  47.4915006  64.8695017   7.3589987  47.5265006  64.0895017
   6.5399987  47.3445006  64.7685017   7.3419987  46.7805006  63.3075017
   7.2599987  48.9275006  63.5075017   6.3179987  49.0825006  63.0085017
   8.4219987  49.1275006  62.5095017   8.2719987  50.0585006  61.9805017
   8.3729987  48.3125006  61.7985017   9.6859987  49.1305006  63.1775017
  10.8189987  48.1045006  62.8205017  11.4729987  48.8835006  61.5855017
  12.5279987  49.7995006  61.8535017  13.3639987  49.3195006  62.3455017
  12.1729987  50.5705006  62.5315017  12.9889987  50.5545006  60.5865017
  13.3889987  49.7935006  59.9285017  13.7819987  51.2405006  60.8475017
  12.0109987  51.3505006  59.7485017  12.7419987  52.1735006  58.7525017
  13.5089987  52.7365006  59.2665017  12.0349987  52.8515006  58.2975017
  13.1569987  51.5235006  57.9975017  11.1729987  50.4075006  58.9825017
  10.7829987  49.6655006  59.6625017  11.7679987  49.9575006  58.2085017
  10.3619987  50.9745006  58.5485017  11.1439987  52.2535006  60.5565017
  10.5929987  51.6665006  61.2765017  10.4539987  52.7635006  59.9005017
  11.7579987  52.9795006  61.0695017  11.7649987  48.0935006  63.9595017
  10.2129987  46.8545006  62.3355017   7.3199987  49.8565006  64.6065017
   7.0029987  51.1095006  64.3715017   6.6499987  51.5815006  63.3065017
   7.1939987  51.8485006  65.6955017   6.7249987  52.8245006  65.6345017
   6.6979987  51.3305006  66.5125017   8.7069987  51.9525006  65.9435017
   9.1269987  50.9525006  65.9375017   9.1699987  52.4775006  65.1135017
   9.0719987  52.6445006  67.2685017  10.1109987  52.9625006  67.2385017
   8.4799987  53.5525006  67.3575017   8.8209987  51.7665006  68.5205017
   7.7879987  51.9115006  68.8335017   8.9139987  50.7155006  68.2565017
   9.7409987  52.0615006  69.7285017   9.7139987  51.2125006  70.4085017
  10.7649987  52.1275006  69.3665017   9.4109987  53.3435006  70.5015017
   9.9639987  54.1595006  70.0385017   8.3569987  53.5715006  70.3665017
   9.7209987  53.3115006  72.0205017   9.2489987  54.1985006  72.4275017
   9.1599987  52.4615006  72.4055017  11.1469987  53.1955006  72.4835017
  11.8739987  52.7205006  71.8415017  11.5839987  53.6635006  73.6555017
  12.6259987  53.5435006  73.9155017  10.7709987  54.3695006  74.6975017
  11.4479987  54.8005006  75.4335017  10.2119987  55.1985006  74.2785017
   9.8029987  53.4165006  75.4315017   9.3579987  53.9635006  76.2615017
   8.9889987  53.1895006  74.7465017  10.4129987  52.0925006  75.9535017
   9.6119987  51.5575006  76.4635017  10.6729987  51.4935006  75.0845017
  11.6379987  52.1945006  76.8945017  12.1639987  51.2425006  76.9145017
  12.3469987  52.9255006  76.5105017  11.2179987  52.5955006  78.3255017
  10.8459987  53.6185006  78.3225017  10.3889987  51.9785006  78.6615017
  12.3859987  52.5165006  79.3445017  12.8199987  51.5245006  79.2325017
  13.1409987  53.2175006  78.9915017  12.1449987  52.7715006  80.8095017
  11.5069987  52.0015006  81.2355017  13.0939987  52.6935006  81.3355017
  11.5939987  54.0225006  81.0655017  11.5189987  54.1995006  82.1345017
  10.5969987  54.1195006  80.6495017  12.2069987  54.8135006  80.6415017
  86.9099987  80.9555006  78.8795017  86.8319987  81.4185006  79.8585017
  87.5159987  80.0605006  78.9835017  85.9129987  80.6445006  78.5805017
  87.4689987  81.8435006  77.9355017  88.4019987  82.1155006  78.4255017
  86.8069987  82.6985006  78.0435017  87.7439987  81.5675006  76.4335017
  88.4319987  80.7255006  76.3535017  88.2709987  82.4275006  76.0245017
  86.5649987  81.3085006  75.6045017  86.0629987  82.2585006  75.4355017
  85.8679987  80.6965006  76.1755017  86.8229987  80.6605006  74.2785017
  85.8749987  80.2575006  73.9325017  87.4639987  79.8035006  74.4805017
  87.4239987  81.4775006  73.1915017  88.4629987  81.7365006  73.3855017
  86.9009987  82.4175006  73.0325017  87.3419987  80.6235006  71.9015017
  87.3779987  79.5715006  72.1775017  88.2319987  80.8115006  71.3015017
  86.1039987  80.8795006  71.0565017  85.5869987  81.6645006  71.6075017
  85.5169987  79.9735006  71.1955017  86.1299987  81.2465006  69.5415017
  86.6299987  82.2065006  69.4315017  85.1039987  81.3985006  69.2085017
  86.8039987  80.2205006  68.6405017  86.3109987  79.2525006  68.7025017
  87.8409987  80.0535006  68.9285017  86.7589987  80.7455006  67.1835017
  86.0759987  81.5915006  67.1565017  86.3129987  79.9765006  66.5545017
  88.0879987  81.1825006  66.5785017  88.6989987  80.2885006  66.6815017
  88.4599987  81.8915006  67.3155017  88.2669987  81.7785006  65.2035017
  89.3019987  82.0505006  65.0065017  87.6789987  82.6755006  65.0325017
  87.8699987  80.7435006  64.2155017  86.7969987  80.5855006  64.2465017
  88.3349987  79.7985006  64.4845017  88.2789987  81.0955006  62.8055017
  89.3429987  81.2905006  62.7565017  87.7479987  81.9775006  62.4675017
  88.2709987  79.8415006  61.8895017  88.2739987  78.6815006  62.2595017
  88.4039987  80.3185006  60.6455017  88.4849987  79.4205006  59.5185017
  89.1999987  78.6815006  59.8475017  88.8819987  79.9375006  58.6565017
  87.1569987  78.7585006  59.1925017  87.3049987  77.9855006  58.4565017
  86.2599987  79.8575006  58.6195017  85.5799987  79.4055006  57.9105017
  86.9109987  80.5415006  58.0895017  85.5289987  80.5545006  59.6445017
  85.0069987  81.9685006  59.1535017  84.0519987  82.3775006  60.3335017
  83.3729987  81.3755006  61.0605017  83.3069987  80.4275006  60.5425017
  82.3529987  81.6785006  61.2795017  84.0519987  81.2085006  62.4415017
  85.1039987  81.0415006  62.2495017  83.6549987  80.3535006  62.9695017
  83.9889987  82.3765006  63.4265017  85.1209987  83.3355006  63.1665017
  86.0469987  82.7775006  63.1365017  85.1499987  84.0445006  63.9805017
  84.9339987  83.8555006  62.2385017  82.6559987  83.0485006  63.3465017
  81.8869987  82.2945006  63.4165017  82.5909987  83.5905006  62.4205017
  82.5859987  83.7285006  64.1835017  84.0529987  81.8795006  64.8255017
  83.2339987  81.1975006  64.9985017  83.9759987  82.7165006  65.5035017
  84.9929987  81.3715006  64.9845017  86.1449987  82.9085006  59.1625017
  84.2419987  81.7905006  57.8955017  86.5989987  78.1255006  60.3525017
  85.3779987  77.7025006  60.2345017  84.6969987  77.5815006  59.2315017
  84.8809987  77.2865006  61.5935017  85.1469987  76.2455006  61.7465017
  85.4029987  77.8435006  62.3675017  83.3539987  77.5115006  61.6795017
  83.2239987  78.5055006  61.2665017  82.9489987  76.8255006  60.9425017
  82.5489987  77.4015006  62.9995017  81.5099987  77.6315006  62.7755017
  82.5699987  76.3555006  63.2955017  83.0229987  78.2335006  64.1505017
  84.0909987  78.0725006  64.2845017  82.9009987  79.2915006  63.9315017
  82.3129987  77.9145006  65.4825017  81.2829987  78.2645006  65.4925017
  82.2709987  76.8415006  65.6595017  83.0769987  78.5645006  66.6225017
  83.9429987  77.9465006  66.8545017  83.4649987  79.5265006  66.2995017
  82.2569987  78.7695006  67.8805017  81.8109987  77.8235006  68.1635017
  82.9349987  79.0425006  68.6875017  81.2159987  79.8385006  67.7475017
  80.3719987  79.6145006  67.1125017  81.2269987  81.0425006  68.3525017
  80.3839987  81.6875006  68.1475017  82.2519987  81.6445006  69.2955017
  83.2109987  81.2195006  69.0045017  82.3209987  82.7095006  69.1025017
  82.0599987  81.4105006  70.8035017  82.6509987  82.1155006  71.3865017
  81.0219987  81.5795006  71.0835017  82.4519987  79.9935006  71.1755017
  81.7489987  79.2935006  70.7235017  83.4269987  79.7575006  70.7575017
  82.4789987  79.7765006  72.6625017  82.8749987  80.6685006  73.1435017
  81.4619987  79.6575006  73.0325017  83.2909987  78.5795006  73.0565017
  82.8579987  77.6205006  72.7795017  84.3169987  78.5565006  72.6985017
  83.2709987  78.6805006  74.5675017  83.4699987  79.7035006  74.8815017
  82.2809987  78.4355006  74.9475017  84.2129987  77.8285006  75.1895017
  84.1399987  76.7975006  74.8525017  85.2279987  78.1445006  74.9565017
  84.0009987  77.8885006  76.8305017  84.7679987  77.3125006  77.3395017
  83.0389987  77.4865006  77.1305017  84.0589987  78.9105006  77.1945017
  12.5969987  63.6135006  78.6165017  12.9229987  64.1575006  79.4975017
  13.4619987  63.1035006  78.2025017  11.8909987  62.8535006  78.9395017
  11.9799987  64.5265006  77.6155017  12.6949987  65.2915006  77.3175017
  11.1409987  65.0515006  78.0645017  11.5249987  63.7695006  76.3925017
  10.8239987  64.3975006  75.8425017  10.9539987  62.9075006  76.7325017
  12.6009987  63.2905006  75.4565017  13.1649987  62.5285006  75.9905017
  13.2899987  64.1195006  75.2985017  12.1759987  62.7285006  74.1165017
  11.5009987  63.4105006  73.6065017  11.6229987  61.8015006  74.2595017
  13.4479987  62.4475006  73.1685017  13.3609987  61.3885006  72.9345017
  14.2949987  62.5415006  73.8445017  13.7229987  63.1835006  71.9555017
  14.7899987  63.0755006  71.7695017  13.5599987  64.2335006  72.1935017
  12.9509987  62.8285006  70.6835017  11.8679987  62.9105006  70.7595017
  13.1529987  61.8395006  70.2765017  13.4629987  63.8725006  69.7265017
  14.2339987  64.4455006  70.2365017  12.6509987  64.5695006  69.5235017
  13.9999987  63.3595006  68.4425017  14.2539987  62.3025006  68.4175017
  14.8599987  63.8895006  68.0345017  12.7979987  63.6215006  67.5725017
  12.5739987  64.6855006  67.5535017  11.9119987  63.1335006  67.9755017
  13.0109987  63.1775006  66.2145017  13.7859987  62.4195006  66.2965017
  13.4719987  64.0315006  65.7225017  11.4969987  62.5035006  65.0535017
  10.5839987  62.2895006  65.6065017  11.7139987  61.6135006  64.4695017
  11.2659987  63.4445006  64.2845017  12.0299987  63.8095006  63.6055017
  10.7359987  64.3165006  64.6585017  10.3779987  62.6575006  63.5865017
   9.6249987  62.2545006  64.2515017  10.8969987  61.8345006  63.1095017
  10.1429987  63.4805006  62.7225017   9.1819987  62.8385006  62.5015017
  10.5819987  65.0095006  62.9415017  10.2229987  66.5525006  62.6215017
   9.2049987  66.4715006  62.9675017  10.2229987  66.7385006  61.5575017
  10.8809987  67.5545006  63.2975017  10.5599987  68.5775006  63.1935017
  12.2589987  67.3785006  62.7245017  12.8349987  68.2885006  62.8275017
  12.1729987  67.1455006  61.6685017  12.8699987  66.3215006  63.4155017
  14.4209987  66.2005006  63.3175017  14.6219987  65.4755006  61.9135017
  13.6149987  64.6855006  61.2925017  12.6049987  65.0275006  61.4915017
  13.7219987  63.7005006  61.7185017  13.8599987  64.5625006  59.7755017
  14.7549987  63.9815006  59.6105017  14.0729987  65.9255006  59.1865017
  13.2089987  66.0885006  58.6665017  14.2639987  66.6585006  59.9015017
  14.8259987  65.9275006  58.5235017  12.6259987  63.8165006  59.2425017
  15.0889987  67.5045006  63.2715017  14.8209987  65.3805006  64.4175017
  10.5339987  67.3205006  64.6765017  10.9169987  68.3095006  65.3525017
  11.3579987  69.2885006  64.8255017  11.8629987  64.4245006  58.4615017
  12.3819987  62.6635006  59.6475017  10.7349987  68.0255006  66.8265017
   9.7879987  68.4885006  67.0845017  10.5779987  66.9545006  66.9225017
  11.8589987  68.4945006  67.7265017  11.7529987  69.5715006  67.7925017
  11.6369987  68.1105006  68.7165017  13.2579987  68.1655006  67.3605017
  13.4119987  67.1015006  67.5195017  13.3609987  68.3305006  66.2905017
  14.3309987  68.9565006  68.0755017  14.5619987  69.9015006  67.5875017
  14.1119987  69.1955006  69.1135017  15.5739987  68.0745006  68.0255017
  15.5489987  67.5015006  67.1015017  16.4379987  68.7315006  67.9515017
  15.7839987  67.1155006  69.2175017  14.8299987  66.6175006  69.3815017
  16.4809987  66.3455006  68.8975017  16.2839987  67.7105006  70.5505017
  17.2249987  68.2205006  70.3825017  15.5769987  68.4715006  70.8785017
  16.4129987  66.6785006  71.6315017  17.0699987  65.8635006  71.3695017
  15.8419987  66.6405006  72.8605017  16.0959987  65.7825006  73.4655017
  14.8969987  67.6175006  73.5375017  15.4449987  68.1805006  74.2905017
  14.4929987  68.3485006  72.8455017  13.7309987  66.8745006  74.2405017
  13.3929987  66.0655006  73.5945017  14.1249987  66.4015006  75.1385017
  12.5459987  67.7535006  74.6165017  12.2729987  68.3865006  73.7715017
  11.6749987  67.1405006  74.8305017  12.8489987  68.6125006  75.7945017
  13.8109987  69.0765006  75.5885017  12.1159987  69.4175006  75.7905017
  12.8689987  67.9855006  77.1175017  11.8739987  68.0215006  77.5575017
  13.1199987  66.9315006  77.0365017  13.8399987  68.6855006  78.0845017
  14.8459987  68.8315006  77.6945017  13.5069987  69.6615006  78.4335017
  13.9169987  67.7335006  79.2955017  13.9369987  68.4925006  80.0745017
  12.8859987  67.3895006  79.2435017  14.7299987  66.6595006  79.6715017
  14.3709987  66.2075006  80.5915017  15.7559987  66.9675006  79.8395017
  14.7379987  65.8885006  78.9055017  90.5339987  44.3555006  77.9665017
  90.2899987  43.5135006  78.6075017  90.5819987  43.9915006  76.9445017
  89.7119987  45.0635006  78.0245017  91.8419987  45.0025006  78.3805017
  92.5729987  44.1965006  78.3495017  91.7029987  45.2475006  79.4295017
  92.4009987  46.2265006  77.6185017  93.1609987  46.7185006  78.2245017
  91.6029987  46.9545006  77.4865017  92.9969987  45.8895006  76.2215017
  92.2609987  45.2855006  75.6955017  93.8629987  45.2465006  76.3725017
  93.3889987  47.0635006  75.3325017  94.2949987  47.4375006  75.8025017
  92.6089987  47.7905006  75.5505017  93.6039987  46.9965006  73.8425017
  93.8289987  47.9765006  73.4255017  92.7159987  46.6415006  73.3245017
  94.7209987  46.0855006  73.5685017  94.5359987  45.1095006  74.0125017
  95.6389987  46.4575006  74.0225017  94.9309987  45.9245006  72.0745017
  95.9899987  45.7755006  71.8675017  94.6469987  46.8425006  71.5625017
  94.1319987  44.7525006  71.4915017  94.0899987  44.8825006  70.4125017
  93.1059987  44.8375006  71.8475017  94.6719987  43.3335006  71.8185017
  93.9669987  42.5905006  71.4525017  94.7189987  43.2045006  72.8995017
  96.0799987  43.0745006  71.2115017  96.7919987  43.6575006  71.7915017
  96.0919987  43.4955006  70.2075017  96.5809987  41.6015006  71.1575017
  95.6869987  41.0015006  71.0045017  96.9249987  41.3835006  72.1665017
  97.6909987  41.1765006  70.1505017  97.7239987  40.0885006  70.1775017
  98.6419987  41.5195006  70.5485017  97.5769987  41.6125006  68.6735017
  98.3759987  42.3045006  68.4285017  96.6419987  42.1505006  68.5385017
  97.6099987  40.4235006  67.6805017  96.8409987  39.7025006  67.9275017
  98.5739987  39.9295006  67.7145017  97.3089987  40.8645006  66.2455017
  96.9659987  41.9855006  65.9305017  97.3679987  39.8145006  65.4255017
  96.9039987  40.1015006  64.0945017  97.4569987  39.4335006  63.4555017
  97.1509987  41.1205006  63.8325017  95.3769987  39.8435006  63.9525017
  95.1669987  38.8855006  64.4005017  94.9309987  39.8425006  62.4835017
  93.8579987  39.7155006  62.4455017  95.3929987  38.9995006  61.9895017
  95.3369987  41.0465006  61.8265017  94.4119987  41.5425006  60.6475017
  93.2769987  42.4025006  61.4015017  93.6839987  43.2845006  62.4355017
  94.7659987  43.2515006  62.4575017  93.3049987  42.9655006  63.3975017
  93.2089987  44.7235006  62.1735017  93.5509987  45.3735006  62.9645017
  93.6029987  45.0715006  61.2285017  91.7109987  44.8335006  62.1695017
  91.2799987  44.1305006  61.5925017  91.4129987  44.6675006  63.2055017
  91.3979987  45.7395006  61.8645017  95.1209987  42.4875006  59.7805017
  93.7129987  40.3785006  60.0665017  94.6579987  40.8535006  64.6735017
  93.4329987  40.5535006  65.0295017  92.8179987  39.5405006  64.7535017
  92.9049987  41.6365006  65.9525017  93.2709987  41.4335006  66.9535017
  93.3229987  42.6005006  65.6725017  91.3799987  41.6625006  65.8965017
  91.0359987  42.6215006  66.2675017  91.0579987  41.6085006  64.8615017
  90.7149987  40.5425006  66.7085017  89.6649987  40.5055006  66.4285017
  91.1509987  39.6055006  66.3715017  90.8509987  40.6245006  68.2465017
  91.8369987  40.2595006  68.5295017  90.8039987  41.6595006  68.5765017
  89.7999987  39.8145006  69.0095017  88.8249987  40.2595006  68.8235017
  89.7689987  38.8205006  68.5675017  90.0139987  39.6725006  70.5215017
  89.2119987  39.0655006  70.9375017  90.9379987  39.1365006  70.7195017
  90.0619987  41.0375006  71.2625017  91.0929987  41.3595006  71.1695017
  89.4739987  41.7045006  70.6335017  89.5849987  41.1645006  72.6665017
  88.5299987  41.3005006  72.8495017  90.3959987  41.1065006  73.7495017
  89.8749987  41.2235006  74.6895017  91.8609987  40.9085006  73.8895017
  92.0749987  39.8435006  73.9615017  92.4139987  41.2715006  73.0305017
  92.3829987  41.5855006  75.1485017  92.2599987  42.6675006  75.1315017
  91.8739987  41.2365006  76.0445017  93.8719987  41.2425006  75.2495017
  93.9979987  40.1655006  75.3625017  94.3869987  41.5135006  74.3325017
  94.5329987  41.9575006  76.4385017  94.0969987  42.9535006  76.4605017
  94.1779987  41.4505006  77.3335017  96.0729987  42.0555006  76.4855017
  96.4979987  41.0595006  76.3795017  96.4339987  42.6245006  75.6335017
  96.6159987  42.6675006  77.8005017  96.1079987  42.3125006  78.6955017
  97.6769987  42.4845006  77.9635017  96.3959987  44.1775006  77.6825017
  96.8649987  44.5185006  76.7635017  95.3269987  44.3175006  77.5385017
  96.8529987  45.0545006  78.8405017  96.5639987  46.0885006  78.6785017
  97.9299987  45.0335006  78.9645017  96.4069987  44.7295006  79.7765017
  28.3689987  86.5985006  77.7085017  28.3879987  85.6935006  78.3085017
  27.3949987  86.6585006  77.2315017  28.4569987  87.4445006  78.3845017
  29.4239987  86.6025006  76.7375017  29.3489987  85.7625006  76.0485017
  30.4029987  86.5275006  77.2035017  29.3129987  87.9275006  75.9395017
  30.3169987  88.0875006  75.5465017  29.1669987  88.6815006  76.7105017
  28.3069987  88.1645006  74.8435017  28.5549987  89.1015006  74.3495017
  27.3239987  88.3095006  75.2885017  28.2259987  87.0435006  73.7715017
  27.8969987  86.1055006  74.2115017  29.2119987  86.8545006  73.3515017
  27.2609987  87.4285006  72.6435017  27.4269987  86.8105006  71.7625017
  27.4219987  88.4575006  72.3285017  25.8179987  87.2655006  73.1085017
  25.5209987  88.1825006  73.6145017  25.7929987  86.4795006  73.8625017
  24.8029987  86.9435006  72.0105017  23.7929987  87.1005006  72.3865017
  24.8689987  85.8895006  71.7455017  25.0109987  87.7905006  70.7585017
  25.9449987  87.4975006  70.2835017  25.1329987  88.8325006  71.0515017
  23.8769987  87.6825006  69.7495017  22.9529987  88.0755006  70.1685017
  23.6799987  86.6405006  69.4985017  24.2409987  88.4475006  68.4735017
  24.3089987  89.5005006  68.7375017  23.4039987  88.3625006  67.7825017
  25.5389987  88.0435006  67.7505017  26.3169987  87.9355006  68.5025017
  25.8359987  88.8825006  67.1235017  25.4679987  86.7945006  66.8885017
  24.7309987  86.9045006  66.0955017  25.1809987  85.9095006  67.4495017
  26.8089987  86.5565006  66.2465017  27.3089987  87.4525006  65.8925017
  26.7679987  85.8665006  65.4075017  27.6319987  85.9305006  67.3425017
  27.1359987  85.0515006  67.7345017  27.7819987  86.6355006  68.1515017
  28.6999987  85.3155006  66.6575017  29.5209987  86.1305006  66.7135017
  28.6369987  84.1375006  66.1365017  29.7179987  83.5435006  65.3845017
  30.1399987  82.9055006  66.1465017  30.4859987  84.2055006  65.0125017
  29.1279987  82.6985006  64.2535017  29.9249987  82.1105006  63.8305017
  28.4359987  83.5655006  63.1185017  28.2919987  82.9255006  62.2585017
  29.1479987  84.3385006  62.8595017  27.2059987  84.1415006  63.5195017
  25.9829987  84.5265006  62.5845017  26.6019987  85.4725006  61.4505017
  27.4079987  86.6135006  61.6875017  28.3679987  86.3955006  62.1355017
  26.9109987  87.3155006  62.3505017  27.5779987  87.3655006  60.3575017
  27.6309987  86.6345006  59.5605017  28.4949987  87.9375006  60.3655017
  26.4949987  88.3275006  59.9575017  26.4859987  88.5645006  58.4865017
  27.4869987  88.8275006  58.1735017  25.8139987  89.3855006  58.2855017
  26.1289987  87.6745006  57.9905017  25.1629987  87.7515006  60.3015017
  25.1889987  87.4175006  61.3275017  24.9469987  86.9405006  59.6295017
  24.4309987  88.5375006  60.1855017  26.7299987  89.6085006  60.6495017
  26.7339987  89.4405006  61.7165017  25.9399987  90.2995006  60.3945017
  27.6809987  90.0165006  60.3395017  25.3969987  83.3255006  61.9505017
  25.0879987  85.3705006  63.4075017  28.3479987  81.7345006  64.9775017
  27.5239987  80.9245006  64.3715017  27.3269987  80.8955006  63.1765017
  26.9239987  80.0335006  65.4795017  27.2759987  79.0275006  65.2755017
  27.3809987  80.3235006  66.4225017  25.4109987  80.0985006  65.5625017
  24.9639987  79.6285006  64.6935017  25.0419987  79.5505006  66.4235017
  24.9549987  81.5385006  65.6365017  25.4459987  82.0275006  66.4745017
  25.3009987  82.0505006  64.7415017  23.4849987  81.7065006  65.7395017
  23.0249987  81.3925006  64.8045017  23.0769987  81.0585006  66.5115017
  23.0649987  83.1185006  66.0205017  23.9759987  83.7115006  66.0645017
  22.5289987  83.4525006  65.1345017  22.2069987  83.4145006  67.2515017
  21.6109987  84.2675006  66.9315017  21.5269987  82.5685006  67.3075017
  22.7709987  83.6865006  68.6585017  23.2499987  84.6585006  68.6745017
  21.9439987  83.7405006  69.3645017  23.6759987  82.6565006  69.0885017
  22.9209987  81.8885006  69.0185017  24.8689987  82.2855006  69.4725017
  25.2569987  81.3125006  69.7395017  25.8239987  83.3295006  69.5505017
  26.4209987  83.3545006  68.6405017  25.3759987  84.3125006  69.6475017
  26.7499987  83.0845006  70.7145017  27.5349987  82.4195006  70.3575017
  27.2319987  84.0375006  70.9245017  26.1509987  82.5195006  72.0215017
  25.2199987  83.0215006  72.2835017  25.9119987  81.4625006  71.9365017
  27.1659987  82.7235006  73.1455017  28.1559987  82.5795006  72.7195017
  27.1179987  83.7655006  73.4565017  26.9919987  81.8425006  74.3435017
  25.9679987  81.8935006  74.7095017  27.1679987  80.7985006  74.0975017
  27.9269987  82.2795006  75.4895017  28.9849987  82.1195006  75.2905017
  27.8269987  83.3265006  75.7705017  27.5419987  81.4595006  76.6245017
  28.1259987  81.4895006  77.5405017  26.5009987  81.4985006  76.9365017
  27.7809987  80.1795006  75.9315017  27.4769987  79.3425006  76.5525017
  28.8289987  80.0395006  75.6875017  27.2169987  80.1255006  75.0045017
  45.9189987 100.9235006  77.4145017  46.0079987 101.9575006  77.7335017
  46.3109987 100.8535006  76.4035017  46.5569987 100.3235006  78.0575017
  44.3359987 100.4015006  77.4855017  43.7769987 101.0995006  76.8645017
  44.0269987 100.5905006  78.5105017  43.9869987  99.0165006  77.0955017
  42.9529987  98.8195006  76.8135017  44.2629987  98.2315006  77.7975017
  44.8529987  98.8995006  75.8945017  45.9099987  98.7755006  76.1195017
  44.7889987  99.7325006  75.1955017  44.3609987  97.6655006  75.2345017
  43.2849987  97.6955006  75.0835017  44.5579987  96.7935006  75.8555017
  45.0339987  97.4885006  73.9045017  46.0339987  97.0785006  74.0315017
  45.1589987  98.4475006  73.4055017  44.2189987  96.5605006  73.0115017
  43.2629987  97.0105006  72.7515017  43.9869987  95.6295006  73.5265017
  44.9929987  96.2505006  71.7335017  45.9299987  95.7885006  72.0435017
  45.2579987  97.2095006  71.2915017  44.3279987  95.3765006  70.6755017
  43.3229987  95.7405006  70.4715017  44.2119987  94.3605006  71.0525017
  45.1279987  95.3435006  69.3735017  45.9919987  94.6995006  69.5235017
  45.5199987  96.3425006  69.1855017  44.3449987  94.8835006  68.1675017
  43.4959987  95.5565006  68.0675017  43.9299987  93.9045006  68.4015017
  45.0669987  94.8165006  66.8205017  44.3749987  94.5035006  66.0425017
  45.8429987  94.0545006  66.8615017  45.6999987  96.1265006  66.4525017
  46.3149987  95.9485006  65.5725017  46.3819987  96.4145006  67.2475017
  44.7669987  97.2985006  66.1465017  44.4589987  97.8005006  67.0575017
  43.8619987  96.9345006  65.6665017  45.4459987  98.3235006  65.2045017
  45.7919987  97.8365006  64.3015017  46.2929987  98.7855006  65.6975017
  46.3639987  99.2855006  65.9495017  46.5589987  99.2875006  67.1535017
  46.8869987 100.1505006  65.0695017  48.0859987 100.8595006  65.4575017
  47.9659987 101.0265006  66.5155017  48.1939987 101.8105006  64.9565017
  49.2829987  99.9705006  65.1965017  50.1549987 100.3485006  65.7035017
  49.5839987  99.7685006  63.6725017  50.6029987  99.4225006  63.5645017
  49.5019987 100.7425006  63.2025017  48.6739987  98.8495006  63.0825017
  49.1469987  97.8715006  61.9435017  48.0739987  98.2365006  60.8335017
  46.6889987  98.3725006  61.1165017  46.2419987  99.3025006  60.7825017
  46.5569987  98.3045006  62.1845017  45.9659987  97.1555006  60.4795017
  46.5769987  96.2765006  60.6165017  45.7909987  97.3775006  59.0065017
  44.7889987  97.5565006  58.9185017  46.3779987  98.1525006  58.6335017
  45.9929987  96.5465006  58.4815017  44.6169987  96.9315006  61.1545017
  50.4839987  98.2655006  61.4545017  48.9529987  96.4815006  62.3955017
  48.9209987  98.7395006  65.8875017  49.9699987  98.0715006  66.0505017
  51.0239987  98.6875006  66.2035017  43.5869987  97.1115006  60.4575017
  44.6329987  96.5395006  62.3425017  49.6219987  96.5035006  66.0805017
  49.7439987  96.3555006  67.1485017  48.5499987  96.5615006  65.9085017
  50.2689987  95.3295006  65.2435017  49.8319987  95.4085006  64.2545017
  51.3169987  95.5885006  65.1295017  50.1409987  93.8815006  65.7355017
  49.2239987  93.4705006  65.3205017  50.9559987  93.3225006  65.2825017
  50.1779987  93.6575006  67.2545017  50.3909987  92.6105006  67.4605017
  50.9809987  94.2275006  67.7145017  48.9219987  94.0055006  67.9045017
  48.6119987  95.0065006  67.6115017  48.1389987  93.3335006  67.5585017
  48.9969987  93.9255006  69.3965017  47.9409987  93.7705006  69.6125017
  49.4789987  92.9585006  69.5125017  49.5639987  94.8545006  70.3845017
  49.4679987  94.4605006  71.3895017  50.6299987  94.9885006  70.2085017
  48.8939987  96.1715006  70.2595017  48.5369987  96.4895006  69.2915017
  48.6889987  96.9935006  71.2785017  48.1859987  97.9285006  71.0795017
  49.0659987  96.7975006  72.7125017  48.1579987  96.7895006  73.3135017
  49.5469987  95.8395006  72.8765017  49.9799987  97.9255006  73.2335017
  51.0179987  97.6555006  73.0415017  49.7859987  98.8205006  72.6465017
  49.8019987  98.2515006  74.7255017  50.7009987  98.7525006  75.0855017
  48.9899987  98.9635006  74.8425017  49.5319987  97.0325006  75.5845017
  48.5389987  96.6475006  75.3645017  50.2299987  96.2365006  75.3305017
  49.6489987  97.3455006  77.0615017  49.9449987  96.4595006  77.6205017
  50.4179987  98.0885006  77.2535017  48.3059987  97.8255006  77.6175017
  48.4869987  98.4615006  78.4815017  47.8229987  98.4565006  76.8735017
  47.3219987  96.7115006  78.0265017  47.8609987  96.3435006  78.8955017
  46.5439987  97.3645006  78.4155017  46.6929987  95.5945006  77.3375017
  45.9819987  95.0915006  77.9865017  47.4189987  94.8555006  77.0165017
  46.1549987  95.9325006  76.4565017  92.5079987  32.7145006  82.2125017
  92.5189987  32.0725006  83.0875017  93.3709987  32.4595006  81.6035017
  91.6169987  32.4745006  81.6375017  92.5269987  34.2175006  82.6145017
  93.4139987  34.1025006  83.2355017  91.6729987  34.1005006  83.2765017
  92.5249987  35.5425006  82.0275017  91.9299987  36.2475006  82.6075017
  92.0909987  35.5325006  81.0295017  93.7799987  35.9925006  81.9395017
  94.4229987  35.7315006  82.7775017  93.8959987  37.0655006  81.7925017
  94.2629987  35.2745006  80.7285017  93.6349987  34.4035006  80.5585017
  95.2629987  34.8955006  80.9345017  94.2949987  36.0845006  79.5035017
  94.9269987  36.9585006  79.6515017  93.2999987  36.4635006  79.2815017
  94.7829987  35.3265006  78.3665017  95.8629987  35.4575006  78.3955017
  94.4319987  35.8825006  77.4985017  94.4639987  33.8645006  78.1835017
  93.5279987  33.5945006  78.6715017  95.2299987  33.2285006  78.6225017
  94.3569987  33.5645006  76.6795017  94.9899987  34.3465006  76.2665017
  93.3299987  33.8685006  76.4795017  94.6439987  32.2435006  75.9555017
  94.4989987  31.5265006  76.7605017  95.7199987  32.3105006  75.7965017
  94.0369987  31.7815006  74.7905017  93.0109987  31.4625006  74.9645017
  94.5499987  30.9255006  74.3565017  94.0209987  32.8845006  73.8135017
  93.9389987  33.8325006  74.3395017  93.1259987  32.7995006  73.1995017
  95.1259987  32.8945006  72.9845017  94.9399987  32.0805006  72.2855017
  95.9549987  32.5745006  73.6095017  95.5409987  34.0865006  72.2005017
  96.4779987  34.0525006  71.6555017  95.5049987  35.0485006  72.7045017
  94.2979987  34.0085006  71.1395017  93.3509987  34.0075006  71.6645017
  94.3659987  33.1055006  70.5435017  94.4379987  34.4635006  69.6865017
  95.0279987  35.5015006  69.5175017  94.0029987  33.6215006  68.6355017
  94.0179987  34.1095006  67.2165017  95.0249987  34.4815006  67.1045017
  93.3299987  34.9425006  67.2035017  93.6819987  33.0785006  66.0615017
  94.4379987  32.3115006  66.0865017  93.6649987  33.7655006  64.6475017
  94.5829987  34.3225006  64.5145017  92.8339987  34.4595006  64.6385017
  93.5139987  32.7865006  63.6015017  93.6369987  33.2405006  62.0795017
  92.4739987  34.3195006  62.0205017  91.1489987  33.8315006  62.1985017
  90.9359987  33.5195006  63.2125017  90.9709987  32.9665006  61.5665017
  90.1379987  34.8965006  61.7215017  90.5479987  35.8415006  62.0545017
  89.1679987  34.7595006  62.1775017  89.8789987  35.0595006  60.2335017
  89.3719987  33.7565006  59.7015017  90.0479987  32.9715006  60.0105017
  89.3559987  33.8205006  58.6235017  88.3699987  33.5935006  60.0695017
  88.8399987  36.1285006  60.1375017  89.1579987  36.9705006  60.7325017
  87.8999987  35.7365006  60.4825017  88.7669987  36.4155006  59.0985017
  91.1299987  35.5155006  59.5285017  91.4589987  36.4505006  59.9575017
  90.9149987  35.6545006  58.4795017  91.9019987  34.7675006  59.6435017
  94.9079987  33.9685006  61.8745017  93.2669987  32.1375006  61.1625017
  92.3859987  32.4835006  66.2805017  92.3929987  31.3225006  66.9145017
  93.3479987  30.8265006  67.4815017  91.0239987  30.6295006  66.7955017
  90.5869987  30.9675006  65.8615017  91.1879987  29.5615006  66.6785017
  90.1069987  30.9215006  68.0005017  89.2799987  30.2205006  67.9665017
  90.6529987  30.6975006  68.9115017  89.5519987  32.3485006  68.0645017
  90.2869987  33.0715006  67.7195017  88.6969987  32.4445006  67.4005017
  89.1049987  32.6925006  69.4905017  88.1479987  32.2125006  69.6875017
  89.8029987  32.2885006  70.2195017  88.9499987  34.1865006  69.7345017
  89.8399987  34.7085006  69.3885017  88.1259987  34.5575006  69.1275017
  88.6839987  34.5505006  71.1945017  88.7749987  35.6355006  71.1845017
  87.6269987  34.3325006  71.3225017  89.4439987  33.9925006  72.3895017
  88.8599987  34.0875006  73.2975017  89.6269987  32.9275006  72.2525017
  90.7809987  34.7025006  72.5215017  91.4889987  34.5465006  71.7215017
  91.1569987  35.5035006  73.5165017  92.1359987  35.9595006  73.5005017
  90.3459987  35.8605006  74.6955017  90.9649987  36.6925006  75.0265017
  89.4979987  36.2985006  74.1805017  89.8799987  35.1455006  75.8695017
  89.0519987  35.5755006  76.4325017  89.6469987  34.0895006  75.7455017
  91.1269987  35.2785006  76.6485017  91.9629987  34.8515006  76.0945017
  91.3699987  36.3255006  76.8075017  91.0119987  34.6055006  77.9385017
  92.0079987  34.4815006  78.3575017  90.4689987  35.2465006  78.6305017
  90.3329987  33.2945006  77.8535017  90.0259987  33.1035006  78.8805017
  89.4199987  33.5155006  77.3065017  90.9269987  32.1095006  77.3485017
  90.7799987  31.9105006  76.2885017  91.9939987  31.9935006  77.5315017
  90.1979987  31.0735006  78.1305017  90.2529987  30.9955006  79.2135017
  89.1779987  30.8045006  77.8655017  90.9599987  30.2655006  77.6265017
  90.6869987  29.2525006  77.9055017  91.9859987  30.4245006  77.9415017
  90.9339987  30.3275006  76.5425017  63.2619987   6.1515006  80.6825017
  63.3409987   5.5135006  81.5575017  62.2729987   6.6015006  80.6895017
  63.9879987   6.9525006  80.7905017  63.5009987   5.3635006  79.3985017
  62.7779987   4.5565006  79.2915017  64.4819987   4.8955006  79.4065017
  63.3879987   6.2445006  78.2855017  64.0789987   7.0865006  78.3225017
  62.3929987   6.6745006  78.1885017  63.6689987   5.4375006  77.0815017
  62.8809987   4.7205006  76.8615017  64.5909987   4.8615006  77.1445017
  63.7659987   6.4095006  75.9415017  64.0939987   7.3695006  76.3315017
  62.7609987   6.5655006  75.5525017  64.6589987   6.0115006  74.8375017
  65.6689987   5.9335006  75.2355017  64.6789987   6.8235006  74.1135017
  64.2899987   4.6905006  74.1145017  63.6139987   4.1425006  74.7685017
  65.1989987   4.0945006  74.0475017  63.6699987   4.8085006  72.7435017
  62.8029987   5.4495006  72.8965017  63.2799987   3.8135006  72.5385017
  64.4489987   5.2985006  71.5365017  63.9339987   4.8845006  70.6725017
  65.4119987   4.7915006  71.5875017  64.6779987   6.7935006  71.3205017
  64.8769987   7.2685006  72.2785017  63.7659987   7.2505006  70.9365017
  65.8249987   7.0715006  70.3505017  66.7079987   7.0265006  70.9845017
  65.6959987   8.1195006  70.0865017  66.0999987   6.2625006  69.0835017
  66.1369987   5.1825006  69.2035017  67.0029987   6.5395006  68.5435017
  64.9309987   6.6425006  68.2715017  64.7149987   7.6965006  68.4355017
  64.0489987   6.0975006  68.5975017  65.1149987   6.4375006  66.8325017
  66.1579987   6.4835006  66.5385017  64.5929987   7.1995006  66.2595017
  64.5579987   5.0985006  66.4635017  63.5249987   5.0175006  66.7775017
  65.1279987   4.3085006  66.9375017  63.3159987   4.8795006  65.8015017
  62.3219987   4.6585006  66.4435017  63.4689987   4.8965006  64.4785017
  62.3279987   4.6745006  63.7065017  61.6759987   4.2785006  64.4675017
  62.4419987   3.9435006  62.9195017  61.7709987   5.9845006  63.1585017
  60.8679987   5.6895006  62.6505017  62.6839987   6.8055006  62.2065017
  62.0719987   7.4715006  61.6135017  63.1729987   6.1045006  61.5385017
  63.6429987   7.5355006  62.9545017  65.0549987   7.8665006  62.3435017
  65.0609987   9.4465006  62.2755017  63.8789987  10.1595006  61.9465017
  63.9249987  11.1895006  62.2825017  63.0759987   9.6725006  62.4765017
  63.5489987  10.0905006  60.4385017  63.4959987   9.0695006  60.0915017
  64.7189987  10.7455006  59.7805017  64.3349987  11.6385006  59.4665017
  65.5399987  10.8535006  60.4115017  65.0119987  10.2415006  58.9635017
  62.1989987  10.8195006  60.2105017  66.1009987   7.4605006  63.2865017
  65.1329987   7.3935006  60.9555017  61.3439987   6.6955006  64.3145017
  60.5549987   7.6635006  64.0865017  59.9419987   7.9135006  63.0625017
  62.2029987  11.8465006  59.4775017  61.1739987  10.3515006  60.7685017
  60.3009987   8.3325006  65.3825017  59.3619987   8.8565006  65.2335017
  60.0899987   7.5395006  66.0955017  61.3859987   9.2515006  65.8955017
  62.2719987   8.6555006  66.0865017  61.6569987   9.9475006  65.1075017
  61.0149987  10.0255006  67.1715017  60.3409987  10.8455006  66.9395017
  60.4729987   9.3695006  67.8485017  62.2579987  10.5555006  67.8955017
  63.0759987   9.8605006  67.7125017  62.5599987  11.5025006  67.4565017
  62.1089987  10.7375006  69.4115017  62.9909987  11.2515006  69.7875017
  61.2699987  11.4095006  69.5845017  61.8849987   9.4575006  70.2195017
  60.8879987   9.0505006  70.0575017  62.5849987   8.6685006  69.9595017
  62.0589987   9.7975006  71.7075017  61.4039987  10.6395006  71.8975017
  61.6379987   8.9525006  72.2515017  63.4369987  10.0595006  72.2235017
  64.2299987   9.3605006  72.0045017  63.7599987  11.1415006  72.9475017
  64.7909987  11.2135006  73.2615017  62.8969987  12.2975006  73.3975017
  63.2459987  13.2155006  72.9275017  61.8589987  12.1835006  73.1065017
  62.9839987  12.4755006  74.9295017  64.0449987  12.4935006  75.1775017
  62.6079987  13.4765006  75.1335017  62.2589987  11.4645006  75.8435017
  61.2519987  11.3135006  75.4535017  62.7609987  10.5035006  75.7675017
  62.1719987  11.8835006  77.3275017  61.6069987  12.8115006  77.3805017
  61.5849987  11.1385006  77.8625017  63.5319987  12.0565006  78.0285017
  64.0059987  12.9525006  77.6325017  63.3589987  12.2535006  79.0835017
  64.5269987  10.8795006  77.8645017  64.8189987  10.8685006  76.8165017
  65.4189987  11.1555006  78.4235017  64.1139987   9.4425006  78.2755017
  63.2069987   9.1355006  77.7605017  64.8879987   8.7495006  77.9515017
  63.9379987   9.3045006  79.6335017  63.7369987   8.2695006  79.8925017
  63.1059987   9.8985006  79.9975017  64.8269987   9.6145006  80.1755017
  11.5969987  77.2915006  80.8165017  11.2229987  77.3115006  81.8355017
  10.7899987  76.9505006  80.1745017  11.8349987  78.3125006  80.5315017
  13.0829987  76.1945006  80.6655017  12.6939987  75.2605006  81.0675017
  13.7209987  76.6165006  81.4375017  14.0689987  75.8385006  79.1535017
  13.5239987  75.2255006  78.4365017  14.9789987  75.2895006  79.3885017
  14.4379987  77.0955006  78.5265017  15.3359987  77.4155006  79.0515017
  13.6569987  77.8005006  78.8075017  14.6829987  77.1905006  77.0655017
  15.3239987  76.3375006  76.8575017  15.3139987  78.0745006  76.9835017
  13.5519987  77.2565006  75.9715017  12.7819987  77.9935006  76.1945017
  13.0349987  76.3095006  75.8305017  14.2639987  77.6455006  74.6625017
  14.7529987  76.7415006  74.3045017  15.0609987  78.3315006  74.9445017
  13.4959987  78.2245006  73.5935017  14.1259987  78.4315006  72.7295017
  13.0679987  79.1795006  73.8935017  12.4989987  77.3835006  73.2285017
  11.5959987  77.9425006  73.4635017  12.5599987  76.5815006  73.9635017
  12.3769987  76.8125006  71.9115017  13.0799987  75.9825006  71.9385017
  12.8229987  77.5695006  71.2665017  10.0299987  76.0025006  70.8405017
   9.4699987  76.6275006  70.1475017   9.2899987  75.4255006  71.3925017
  11.4429987  74.4735006  69.5365017  11.0859987  74.2545006  68.5335017
  11.6229987  73.5115006  70.0125017  12.8219987  75.2735006  69.4665017
  13.7319987  74.8395006  69.8765017  12.8919987  76.3445006  69.6365017
  12.8089987  74.9815006  67.8155017  11.7679987  74.8095006  67.5615017
  13.3209987  74.0295006  67.7055017  13.4719987  76.0765006  66.7205017
  14.5029987  76.2895006  66.9745017  12.9129987  77.0045006  66.7295017
  14.7159987  76.2155006  66.8235017  15.3539987  75.6095006  67.6255017
  15.0019987  77.2285006  65.9985017  16.2709987  77.4435006  65.7835017
  16.7549987  77.1415006  66.6965017  16.5039987  78.4805006  65.5905017
  16.7209987  76.5575006  64.6275017  17.7819987  76.7245006  64.5255017
  15.9929987  76.9525006  63.3095017  16.1879987  77.9865006  63.0625017
  14.9269987  76.8235006  63.4245017  16.4559987  76.0815006  62.2895017
  15.4839987  75.2475006  61.3685017  16.5479987  74.4845006  60.4645017
  17.7259987  73.8795006  60.9825017  17.8469987  74.1755006  62.0175017
  18.6259987  74.1345006  60.4385017  17.5129987  72.3555006  60.8945017
  16.6379987  72.0855006  61.4655017  17.3629987  72.0815006  59.8595017
  18.6419987  71.5555006  61.4715017  19.5389987  71.8645006  61.1345017
  18.5919987  71.7315006  62.5465017  18.5459987  70.5725006  61.2815017
  14.7939987  74.2125006  62.1755017  14.6539987  76.1715006  60.5675017
  16.5169987  75.1545006  64.9335017  17.3799987  74.6625006  65.8125017
  18.2609987  75.2925006  66.3715017  17.1749987  73.1675006  65.9765017
  16.1309987  72.9675006  65.7595017  17.7429987  72.6505006  65.2075017
  17.5739987  72.6815006  67.3805017  18.6469987  72.7315006  67.5315017
  17.1319987  73.2825006  68.1685017  17.1159987  71.2265006  67.5165017
  16.0329987  71.1495006  67.4695017  17.4979987  70.6365006  66.6865017
  17.6289987  70.6195006  68.8225017  17.4269987  69.5505006  68.7975017
  18.7099987  70.7235006  68.8735017  17.0189987  71.1935006  70.0965017
  17.4989987  70.7175006  70.9495017  17.2909987  72.2465006  70.1445017
  15.5089987  71.0745006  70.2355017  15.0459987  71.5325006  69.3625017
  15.2239987  70.0265006  70.2195017  14.9429987  71.7145006  71.5005017
  13.9269987  71.3765006  71.6665017  15.5209987  71.3855006  72.3635017
  15.0099987  73.2215006  71.4215017  14.4089987  73.6745006  70.6475017
  15.7199987  74.0495006  72.2105017  15.6799987  75.1165006  72.0465017
  16.6089987  73.6355006  73.3605017  16.6719987  72.5485006  73.3515017
  17.6189987  73.9995006  73.2115017  16.1019987  74.0795006  74.7545017
  16.7639987  73.7005006  75.5315017  16.1419987  75.1645006  74.8255017
  14.6839987  73.6135006  75.0255017  14.2739987  74.1015006  75.9105017
  14.0169987  73.8635006  74.2045017  14.6829987  72.1175006  75.2365017
  15.0289987  71.5755006  74.3595017  15.3229987  71.8055006  76.0595017
  13.2899987  71.7475006  75.5385017  12.6119987  72.2125006  74.8265017
  13.1369987  70.6765006  75.4375017  12.8969987  72.1915006  76.9005017
  13.6289987  71.9875006  77.6795017  12.6549987  73.2495006  76.9835017
  11.7279987  71.4415006  77.1745017  11.1219987  71.4305006  76.2715017
  12.0619987  70.4165006  77.3195017  10.9399987  71.8105006  78.2545017
  10.1299987  71.1025006  78.4005017  10.4939987  72.7895006  78.1155017
  11.5229987  71.8405006  79.1705017  19.2029987  79.8315006  77.9425017
  18.6869987  79.1575006  78.6195017  18.6619987  79.8315006  77.0005017
  19.1379987  80.8325006  78.3595017  20.6059987  79.4275006  77.7515017
  20.7579987  78.4555006  77.2855017  21.2239987  79.4375006  78.6455017
  20.9949987  80.3685006  76.9235017  20.9609987  79.7385006  76.0345017
  22.0309987  80.3655006  77.2545017  20.4369987  82.4505006  76.3695017
  20.2889987  82.8145006  77.3835017  19.4449987  82.2225006  75.9835017
  21.1289987  83.6915006  75.4425017  21.1509987  83.1935006  74.4765017
  22.1419987  83.6375006  75.8375017  20.7749987  85.0455006  75.2515017
  21.4159987  85.5745006  74.5485017  20.7729987  85.6355006  76.1655017
  19.4049987  84.9835006  74.7105017  18.9369987  85.9605006  74.8115017
  18.8129987  84.2985006  75.3165017  19.3439987  84.5415006  73.2375017
  19.4399987  83.4625006  73.1245017  20.1389987  84.9815006  72.6385017
  18.0249987  84.9765006  72.6995017  17.9829987  86.0595006  72.6105017
  17.2199987  84.6965006  73.3775017  17.7759987  84.3495006  71.3385017
  18.0069987  83.2885006  71.3975017  18.4759987  84.7755006  70.6205017
  16.3989987  84.5395006  70.8445017  16.2999987  85.6225006  70.8725017
  15.8029987  84.1605006  71.6735017  15.8179987  84.0435006  69.5475017
  16.4059987  84.3075006  68.6715017  14.8109987  84.4125006  69.3605017
  15.7609987  82.5605006  69.7005017  15.1979987  82.2915006  70.5925017
  16.7479987  82.1235006  69.8205017  15.0979987  81.9385006  68.5405017
  14.1719987  82.4845006  68.3945017  14.8259987  80.9395006  68.8715017
  15.8049987  81.8285006  67.2505017  16.7499987  81.3155006  67.3785017
  15.9969987  82.8125006  66.8405017  15.3289987  82.8125006  66.5165017
  14.7489987  83.7395006  67.0015017  16.2179987  82.6745006  65.4565017
  16.5209987  83.7705006  64.7235017  16.4729987  84.3085006  65.6585017
  15.6269987  83.9755006  64.1515017  17.9169987  84.2195006  63.8555017
  18.1679987  85.1705006  64.2955017  17.6869987  84.3855006  62.3655017
  18.5889987  84.4055006  61.7695017  17.0959987  85.2615006  62.1305017
  16.9669987  83.2375006  62.1115017  17.0999987  82.6825006  60.6875017
  18.4559987  81.8845006  60.7975017  18.8259987  81.1995006  61.9705017
  18.1239987  80.4235006  62.2455017  18.8689987  81.8875006  62.8095017
  20.2539987  80.6325006  61.8385017  20.2039987  80.0295006  60.9405017
  20.5429987  80.0005006  62.6665017  21.4179987  81.6025006  61.6245017
  22.6249987  80.8755006  61.1265017  22.8159987  80.0355006  61.7795017
  23.4609987  81.5575006  61.1575017  22.4499987  80.5625006  60.1075017
  21.0779987  82.6225006  60.5925017  20.1179987  83.0515006  60.8375017
  21.0629987  82.1525006  59.6255017  21.8439987  83.3835006  60.6265017
  21.7149987  82.3965006  62.8635017  20.8319987  82.9455006  63.1545017
  22.5189987  83.0865006  62.6585017  22.0079987  81.7265006  63.6595017
  15.9319987  81.7995006  60.5895017  17.2599987  83.8275006  59.7435017
  18.9539987  83.3595006  64.3635017  19.2559987  83.1105006  65.6555017
  19.4879987  83.8005006  66.6055017  19.5499987  81.7565006  65.8095017
  18.8419987  81.2065006  65.1975017  20.5299987  81.5575006  65.3825017
  19.4889987  81.3105006  67.3375017  20.3719987  81.7455006  67.7925017
  18.6409987  81.8395006  67.7615017  19.4129987  79.8145006  67.7095017
  18.4599987  79.4355006  67.3495017  20.1789987  79.3105006  67.1255017
  19.5969987  79.4555006  69.1495017  20.5159987  79.8905006  69.5385017
  18.7929987  79.8335006  69.7765017  19.6769987  77.9385006  69.3115017
  18.6559987  77.5925006  69.4595017  19.9889987  77.5565006  68.3415017
  20.5599987  77.3455006  70.3655017  20.4529987  76.2665006  70.4655017
  21.6209987  77.5375006  70.2295017  20.1079987  78.0125006  71.6425017
  20.9989987  77.9815006  72.2585017  19.9809987  79.0515006  71.3405017
  18.9339987  77.6005006  72.3965017  18.7639987  76.5375006  72.4795017
  18.0509987  78.4135006  73.0085017  17.2319987  77.9495006  73.5385017
  18.0449987  79.9285006  73.0645017  18.8529987  80.2045006  73.7395017
  18.3189987  80.3145006  72.0895017  16.7899987  80.6035006  73.5335017
  16.5959987  81.4825006  72.9195017  15.9469987  79.9325006  73.3775017
  16.8429987  81.0165006  75.0245017  16.8169987  80.1465006  75.6815017
  17.7559987  81.5535006  75.2675017  15.6319987  81.9085006  75.3205017
  15.7299987  82.8135006  74.7255017  14.7369987  81.4035006  74.9615017
  15.4459987  82.2775006  76.8205017  14.7969987  83.1505006  76.8565017
  14.8869987  81.4725006  77.2905017  16.6779987  82.5845006  77.6225017
  17.2949987  81.6995006  77.7655017  17.3099987  83.3135006  77.1185017
  16.2969987  83.1395006  78.9965017  17.1889987  83.5315006  79.4775017
  15.6529987  83.9985006  78.8215017  15.5809987  82.1725006  79.9555017
  15.2769987  82.6845006  80.8635017  16.2179987  81.3445006  80.2475017
  14.6889987  81.7565006  79.4965017  19.5839987  27.5085006  78.4355017
  20.4859987  27.9945006  78.7955017  19.8529987  26.9095006  77.5705017
  19.2419987  26.8295006  79.2115017  18.5499987  28.4885006  78.1005017
  19.0269987  29.1455006  77.3755017  18.4369987  29.0705006  79.0115017
  17.2629987  28.0945006  77.6045017  16.5509987  28.9165006  77.5305017
  16.7859987  27.3365006  78.2225017  17.4929987  27.5235006  76.2535017
  18.0499987  26.5895006  76.2485017  17.9979987  28.1795006  75.5465017
  16.1039987  27.2545006  75.7735017  15.4829987  28.1425006  75.8585017
  15.6339987  26.4925006  76.3935017  16.1059987  26.7995006  74.3495017
  16.9769987  26.1795006  74.1435017  16.1689987  27.6485006  73.6725017
  14.8919987  26.0395006  74.0575017  14.6149987  25.3165006  74.8225017
  14.9159987  25.4915006  73.1165017  13.8339987  27.1165006  73.9815017
  14.1639987  27.9995006  73.4355017  13.5119987  27.4675006  74.9605017
  12.7689987  26.5555006  73.3305017  12.0489987  26.9825006  74.0245017
  12.9949987  25.5575006  73.7035017  12.1479987  26.4465006  71.9805017
  11.2419987  27.0395006  72.0875017  11.8289987  25.4055006  71.9405017
  12.7669987  26.7595006  70.8405017  13.8429987  26.6775006  70.9785017
  12.5739987  27.7985006  70.5805017  12.3739987  25.8895006  69.7045017
  11.4529987  25.3375006  69.8735017  13.1309987  25.1485006  69.4535017
  12.2129987  26.8085006  68.5555017  11.2819987  27.3595006  68.6775017
  12.1129987  26.2425006  67.6335017  13.3419987  27.8215006  68.3975017
  14.3169987  27.3505006  68.3295017  13.3799987  28.5035006  69.2425017
  13.0849987  28.6405006  67.1175017  12.1019987  29.0935006  67.1485017
  13.1469987  28.0035006  66.2435017  14.0629987  29.8175006  66.9525017
  14.7989987  30.1705006  67.8565017  13.9089987  30.4465006  65.7885017
  14.6789987  31.6705006  65.5905017  14.8599987  32.1065006  66.5615017
  13.9979987  32.3035006  65.0405017  16.0239987  31.4925006  64.8185017
  16.4189987  32.4835006  64.6685017  15.8899987  30.7795006  63.4785017
  16.8109987  30.8625006  62.9175017  15.0969987  31.2565006  62.9165017
  15.5719987  29.4035006  63.7205017  16.5469987  28.2435006  63.3025017
  16.5819987  28.4745006  61.7255017  15.4569987  28.0765006  60.9365017
  15.1799987  28.8255006  60.2055017  14.5899987  27.9345006  61.5755017
  15.6939987  26.7025006  60.2625017  14.8399987  26.5535006  59.6145017
  15.6959987  25.9295006  61.0175017  16.9139987  26.4465006  59.4015017
  18.1309987  26.3965006  60.2885017  18.1399987  27.2795006  60.9125017
  19.0049987  26.3905006  59.6545017  18.1009987  25.4895006  60.8735017
  16.7219987  25.1075006  58.7635017  15.7409987  25.0795006  58.3145017
  16.8349987  24.3425006  59.5115017  17.4809987  25.0005006  58.0025017
  17.1319987  27.4765006  58.3375017  16.2619987  27.5175006  57.6985017
  17.9979987  27.2045006  57.7525017  17.2939987  28.4405006  58.7965017
  17.9059987  28.4195006  63.8445017  15.8749987  26.9565006  63.5835017
  16.9409987  30.6455006  65.5215017  17.3909987  31.1395006  66.6045017
  17.0879987  32.2135006  67.0665017  18.3119987  30.1945006  67.2815017
  17.7619987  29.2635006  67.3675017  19.1329987  29.9925006  66.5975017
  18.8399987  30.6885006  68.6605017  19.6739987  30.0515006  68.9335017
  19.2529987  31.6825006  68.5235017  17.8219987  30.7015006  69.8085017
  17.1429987  31.5445006  69.7105017  17.2049987  29.8075006  69.7575017
  18.5179987  30.7405006  71.1855017  19.1769987  29.8815006  71.2945017
  19.1459987  31.6215006  71.2955017  17.4929987  30.7135006  72.3355017
  16.7989987  31.5435006  72.2165017  16.8989987  29.8065006  72.2445017
  18.1039987  30.7595006  73.7395017  18.8139987  29.9345006  73.7865017
  18.6899987  31.6725006  73.8055017  17.1699987  30.6905006  74.9465017
  16.6149987  29.7705006  74.8075017  17.8349987  30.5225006  75.7925017
  16.3109987  31.7585006  75.2555017  15.9399987  32.0985006  74.3005017
  15.8879987  32.3685006  76.2945017  15.2149987  33.1945006  76.4735017
  16.4739987  31.7765006  77.5415017  17.0919987  30.9235006  77.2665017
  17.1289987  32.4745006  78.0515017  15.4509987  31.3175006  78.4595017
  15.8789987  30.7535006  79.2875017  14.9239987  32.1585006  78.9065017
  14.5289987  30.5085006  77.7655017  13.5749987  31.0135006  77.6165017
  14.8819987  30.2285006  76.7765017  14.3169987  29.3085006  78.5625017
  15.2299987  28.7405006  78.7275017  13.9019987  29.5105006  79.5485017
  13.3589987  28.5045006  77.7885017  12.5199987  29.1305006  77.4895017
  13.8179987  28.1615006  76.8655017  12.7939987  27.2965006  78.5815017
  12.7129987  27.5445006  79.6385017  11.7839987  27.0695006  78.2465017
  13.6269987  26.0625006  78.4455017  13.3699987  25.6025006  77.4945017
  14.6499987  26.4175006  78.3355017  13.5899987  25.0095006  79.5435017
  14.3089987  24.2205006  79.3455017  12.6129987  24.5455006  79.6275017
  13.8329987  25.4435006  80.5095017  76.0289987  89.4895006  80.8445017
  75.9919987  88.4215006  80.6545017  76.1999987  89.6315006  81.9075017
  76.8909987  89.8885006  80.3165017  74.7619987  90.1675006  80.4025017
  73.9129987  89.7345006  80.9285017  74.5989987  89.9725006  79.3465017
  74.7939987  91.5685006  80.6415017  75.6679987  91.9065006  81.1975017
  73.9279987  91.9305006  81.1915017  74.7949987  92.1935006  79.3095017
  73.9099987  91.9565006  78.7225017  75.6489987  91.9255006  78.6895017
  74.8149987  93.6605006  79.5685017  75.7389987  93.9495006  80.0625017
  74.0079987  93.9255006  80.2495017  74.6739987  94.4475006  78.3085017
  75.5299987  94.0925006  77.7365017  74.9299987  95.4485006  78.6495017
  73.4699987  94.5225006  77.4075017  72.5799987  94.6655006  78.0175017
  73.3439987  93.5645006  76.9055017  73.5489987  95.6475006  76.3485017
  74.4999987  95.5975006  75.8195017  73.5209987  96.6215006  76.8325017
  72.4029987  95.5535006  75.3375017  72.4179987  96.4715006  74.7545017
  71.4739987  95.5705006  75.9065017  72.3919987  94.3555006  74.3935017
  71.5509987  94.4795006  73.7145017  72.1789987  93.4655006  74.9845017
  73.7009987  94.1305006  73.5845017  74.4869987  93.8495006  74.2825017
  74.0109987  95.0775006  73.1455017  73.6269987  93.0635006  72.4855017
  73.0999987  92.1905006  72.8635017  74.6349987  92.7305006  72.2465017
  72.9619987  93.5655006  71.2045017  73.6409987  94.2245006  70.6655017
  72.0729987  94.1525006  71.4175017  72.5839987  92.4045006  70.2675017
  71.9409987  92.7725006  69.4745017  72.0019987  91.6825006  70.8345017
  73.7929987  91.6785006  69.6435017  74.4669987  91.3305006  70.4165017
  74.3349987  92.3465006  68.9845017  73.2829987  90.6105006  68.6895017
  73.2269987  89.4135006  68.9125017  72.8889987  91.2125006  67.5825017
  72.2729987  90.2935006  66.6905017  71.6149987  89.5745006  67.1545017
  73.1579987  89.7845006  66.3365017  71.5099987  91.0515006  65.4705017
  71.0229987  90.2495006  64.9405017  72.4519987  91.7545006  64.5655017
  73.1799987  91.0425006  64.1995017  72.9649987  92.5005006  65.1605017
  71.7669987  92.3715006  63.4785017  71.0999987  91.6155006  62.2775017
  71.6709987  92.3825006  61.0265017  72.1849987  93.6925006  61.1595017
  71.6899987  94.2745006  61.9255017  72.0709987  94.2445006  60.2315017
  73.6989987  93.6285006  61.4075017  73.8469987  93.0265006  62.2955017
  74.0769987  94.6235006  61.5945017  74.6099987  93.0285006  60.3435017
  74.2399987  93.5615006  58.9815017  73.1759987  93.4305006  58.8365017
  74.7799987  92.9895006  58.2415017  74.5309987  94.5995006  58.9205017
  75.9939987  93.4355006  60.7125017  76.1539987  93.2005006  61.7535017
  76.1129987  94.4875006  60.5245017  76.6739987  92.8665006  60.0945017
  74.4729987  91.5165006  60.3515017  74.7279987  91.1415006  61.3315017
  75.1429987  91.0955006  59.6175017  73.4559987  91.2455006  60.1095017
  71.6359987  90.2315006  62.2325017  69.6349987  91.7895006  62.2955017
  70.6699987  92.3235006  65.7055017  69.6959987  91.9445006  66.4095017
  69.9009987  90.9255006  66.9515017  68.3269987  92.6605006  66.5165017
  68.0519987  93.2285006  65.6335017  67.4719987  92.0275006  66.7405017
  68.6589987  93.5525006  67.6785017  69.3859987  94.2705006  67.3155017
  67.7639987  94.1215006  67.9075017  69.2009987  92.8895006  68.9625017
  68.7289987  91.9185006  68.8405017  70.2319987  92.7685006  68.6385017
  69.1979987  93.2835006  70.4035017  69.9559987  94.0455006  70.2325017
  68.2379987  93.7855006  70.3145017  69.3499987  92.7725006  71.8085017
  70.1939987  92.0865006  71.7855017  69.6749987  93.6325006  72.3905017
  68.1879987  92.1155006  72.5235017  67.5089987  92.8775006  72.9035017
  67.6079987  91.5015006  71.8405017  68.6469987  91.2725006  73.6405017
  69.5159987  91.7595006  74.0665017  67.8679987  91.3145006  74.4005017
  68.9359987  89.8175006  73.3225017  68.0809987  89.1885006  73.1265017
  70.1189987  89.2565006  73.2505017  70.2749987  88.2125006  73.0185017
  71.3799987  90.0245006  73.4825017  71.9549987  89.9835006  72.5595017
  71.1539987  91.0715006  73.6535017  72.2589987  89.5035006  74.6165017
  72.5289987  88.4755006  74.3765017  73.1849987  90.0745006  74.5875017
  71.6759987  89.5615006  76.0295017  70.9579987  88.7435006  76.0925017
  72.4859987  89.3075006  76.7075017  71.0039987  90.8635006  76.4985017
  71.7139987  91.5405006  76.9695017  70.5539987  91.4175006  75.6765017
  69.9109987  90.4705006  77.5015017  69.1049987  90.0055006  76.9365017
  70.3119987  89.6905006  78.1435017  69.3099987  91.5795006  78.3445017
  68.5779987  91.1945006  79.0525017  70.0689987  92.0845006  78.9395017
  68.6479987  92.5795006  77.4825017  69.3239987  93.0065006  76.7455017
  67.8459987  92.1135006  76.9145017  68.0799987  93.6545006  78.3045017
  67.5149987  94.3505006  77.6915017  68.8489987  94.2225006  78.8165017
  67.4069987  93.2555006  79.0585017  39.7309987  14.3145006  81.3415017
  40.1399987  14.2255006  82.3425017  40.1909987  13.5465006  80.7265017
  38.6679987  14.0975006  81.3985017  39.9709987  15.6715006  80.7775017
  41.0189987  15.9375006  80.6525017  39.5149987  16.4845006  81.3365017
  39.3389987  15.5515006  79.4485017  39.2369987  16.5625006  79.0535017
  38.3269987  15.1925006  79.6225017  39.9949987  14.6605006  78.3925017
  39.9599987  13.6225006  78.7145017  41.0499987  14.9075006  78.2845017
  39.2949987  14.7755006  77.0105017  38.3029987  14.3365006  77.0875017
  39.8489987  14.1575006  76.3055017  39.1669987  16.2015006  76.4435017
  40.0979987  16.7365006  76.6225017  38.3979987  16.7345006  76.9985017
  38.8349987  16.2485006  74.9465017  39.6049987  15.7075006  74.3995017
  38.8899987  17.2815006  74.6075017  37.4639987  15.6735006  74.5905017
  36.6909987  16.1485006  75.1935017  37.4279987  14.6125006  74.8315017
  37.1379987  15.8645006  73.1145017  37.6179987  16.7455006  72.6935017
  36.0699987  15.9865006  72.9365017  37.6299987  14.6235006  72.3835017
  37.1079987  13.7585006  72.7855017  38.6849987  14.4775006  72.6135017
  37.4519987  14.6845006  70.8755017  36.5969987  15.2945006  70.5905017
  37.2859987  13.7055006  70.4295017  38.6969987  15.3005006  70.2785017
  39.5269987  14.6425006  70.5265017  38.8739987  16.2295006  70.8165017
  38.6919987  15.5935006  68.8015017  38.2209987  16.5585006  68.6245017
  38.0999987  14.8615006  68.2595017  40.0939987  15.6385006  68.2045017
  40.6339987  14.7055006  68.3235017  40.6999987  16.4135006  68.6655017
  39.9489987  15.9605006  66.6735017  39.3829987  16.8725006  66.5295017
  39.4399987  15.1515006  66.1645017  40.8259987  15.4875006  65.3975017
  41.9239987  15.9235006  65.0565017  40.3499987  14.3235006  65.0105017
  41.1409987  13.3715006  64.2435017  42.0419987  13.1255006  64.7845017
  41.4079987  13.8595006  63.3175017  40.3119987  12.0975006  63.9775017
  40.9479987  11.3115006  63.6065017  39.3189987  12.5125006  62.8995017
  38.9569987  11.6205006  62.4065017  39.8709987  13.1065006  62.1815017
  38.2229987  13.2695006  63.4385017  37.9579987  14.7515006  62.9375017
  37.7369987  14.4805006  61.3825017  36.4449987  14.0305006  60.9485017
  35.6959987  14.1155006  61.7255017  36.4929987  12.9795006  60.6795017
  35.9919987  14.7605006  59.6565017  35.0069987  14.3755006  59.4255017
  36.6439987  14.5745006  58.8155017  35.8379987  16.2565006  59.7375017
  35.1929987  16.7165006  58.4805017  35.7419987  16.3095006  57.6425017
  35.2399987  17.7955006  58.4575017  34.1609987  16.3985006  58.4795017
  34.9269987  16.5655006  60.8805017  35.2749987  16.0305006  61.7505017
  33.9239987  16.2785006  60.6175017  34.9769987  17.6305006  61.0555017
  37.1039987  16.9745006  59.9675017  37.5499987  16.6235006  60.8865017
  36.9029987  18.0325006  60.0435017  37.7769987  16.7925006  59.1415017
  36.7029987  15.2825006  63.5095017  39.1629987  15.5955006  63.0785017
  39.5389987  11.6185006  65.0935017  40.0639987  10.8715006  66.0225017
  41.1649987  10.3665006  66.0365017  39.0629987  10.6515006  67.1225017
  38.0779987  10.9285006  66.7615017  38.9999987   9.5975006  67.3825017
  39.4889987  11.4945006  68.3325017  40.5469987  11.3195006  68.4905017
  39.3959987  12.5405006  68.0595017  38.7379987  11.2295006  69.6355017
  39.0939987  11.9355006  70.3815017  37.6929987  11.4745006  69.4605017
  38.8169987   9.8475006  70.1655017  37.9679987   9.2695006  69.8065017
  39.7069987   9.3365006  69.8055017  38.8109987   9.8115006  71.7125017
  38.7709987   8.7775006  72.0485017  39.7589987  10.2095006  72.0705017
  37.6689987  10.6025006  72.3645017  37.9559987  11.6495006  72.2865017
  36.7969987  10.4755006  71.7285017  37.2699987  10.2935006  73.8095017
  36.2849987  10.6455006  74.0915017  37.2969987   9.2315006  74.0505017
  38.2909987  10.9595006  74.5615017  38.6539987  11.9135006  74.2095017
  38.8159987  10.4915006  75.6725017  39.5899987  11.0595006  76.1675017
  38.4569987   9.2225006  76.3655017  37.5349987   8.7745006  75.9995017
  39.1989987   8.4315006  76.3665017  38.2249987   9.6905006  77.7745017
  38.1149987   8.8145006  78.4125017  39.1289987  10.1965006  78.1075017
  36.9669987  10.6655006  77.9835017  37.3709987  11.5915006  77.5745017
  36.2849987  10.2745006  77.2335017  36.2149987  10.9665006  79.2245017
  36.3699987   9.9595006  79.6045017  37.0259987  11.5715006  79.6265017
  35.0769987  11.4335006  79.6535017  34.3919987  10.5995006  79.7925017
  35.2179987  11.8695006  80.6385017  34.4749987  12.3385006  78.8235017
  34.4689987  12.0095006  77.7865017  33.4339987  12.5125006  79.0905017
  35.1969987  13.6165006  78.9035017  35.3789987  13.9965006  79.9055017
  36.1689987  13.5935006  78.4155017  34.3179987  14.5575006  78.1705017
  34.7869987  15.5325006  78.0815017  33.3669987  14.6985006  78.6725017
  34.1109987  14.1965006  77.1665017  97.0819987  81.4005006  79.0515017
  97.2629987  82.4465006  79.2785017  97.7199987  81.1275006  78.2165017
  97.3979987  80.8165006  79.9115017  95.6429987  81.1555006  78.7345017
  95.2469987  81.6385006  77.8425017  94.9269987  81.3475006  79.5295017
  95.7409987  79.8685006  78.5185017  96.3749987  79.5185006  79.3335017
  96.3499987  79.8135006  77.6185017  94.1589987  78.6015006  78.3065017
  93.8479987  78.8165006  77.2865017  93.4139987  79.0645006  78.9525017
  94.1349987  76.7705006  78.5585017  93.8459987  76.5745006  79.5875017
  95.1599987  76.4165006  78.4565017  93.2949987  76.0245006  77.6955017
  92.7819987  76.8105006  77.1455017  92.5649987  75.6135006  78.3895017
  93.7269987  74.9525006  76.7405017  92.8829987  74.2915006  76.5525017
  94.4889987  74.3425006  77.2225017  94.2639987  75.4715006  75.4145017
  95.2589987  75.0665006  75.2375017  94.3799987  76.5525006  75.4615017
  93.3509987  75.1105006  74.2295017  92.4929987  75.7785006  74.2335017
  92.9549987  74.1075006  74.3855017  94.0459987  75.1765006  72.8475017
  95.0079987  74.6735006  72.9225017  94.2639987  76.2185006  72.6165017
  93.2149987  74.5615006  71.6925017  92.9519987  73.5245006  71.8875017
  93.7439987  74.5655006  70.7405017  91.9159987  75.3735006  71.5545017
  92.1539987  76.3545006  71.9585017  91.2249987  74.9145006  72.2595017
  91.2149987  75.5155006  70.2065017  90.8709987  76.5475006  70.1765017
  90.3229987  74.8985006  70.2625017  91.9429987  75.2225006  68.8935017
  91.2409987  75.0215006  68.0905017  92.5609987  74.3355006  69.0005017
  92.8259987  76.3765006  68.5015017  93.5129987  76.6165006  69.3025017
  92.2269987  77.2525006  68.2825017  92.0599987  77.3895006  67.6545017
  90.9979987  77.9185006  67.9345017  92.7299987  77.5345006  66.5325017
  92.1719987  78.4735006  65.6105017  91.7039987  79.2895006  66.1365017
  91.4289987  77.9565006  65.0225017  93.3349987  79.0025006  64.7055017
  92.9129987  79.7385006  64.0425017  93.9589987  77.8615006  63.9045017
  93.2199987  77.4435006  63.2345017  94.2609987  77.0905006  64.6055017
  95.0799987  78.3455006  63.1795017  95.0809987  78.8305006  61.6895017
  93.5429987  78.9755006  61.4065017  93.0529987  79.4485006  60.1425017
  92.7119987  78.5945006  59.5675017  93.8669987  79.9075006  59.6045017
  91.9299987  80.5035006  60.2745017  91.5559987  80.6885006  59.2785017
  92.3819987  81.8035006  60.8495017  91.9749987  81.7945006  61.7865017
  93.4169987  81.9145006  60.8555017  91.9839987  82.5825006  60.3575017
  91.0489987  79.7615006  61.2245017  95.6199987  80.2125006  61.6335017
  95.6649987  77.7415006  60.8785017  94.4809987  79.5505006  65.4475017
  94.1189987  80.5685006  66.1385017  92.9689987  80.9375006  66.1945017
  90.8519987  80.3005006  62.3375017  90.6979987  78.5925006  60.9245017
  95.2259987  81.2025006  67.0055017  95.9359987  80.4285006  67.2795017
  95.7889987  81.9325006  66.4295017  94.5679987  81.8615006  68.2575017
  94.0259987  82.7305006  67.8995017  93.8169987  81.1695006  68.6245017
  95.4889987  82.2825006  69.4015017  96.3349987  82.8335006  68.9975017
  94.9479987  82.9805006  70.0355017  95.9829987  81.1225006  70.2655017
  96.0629987  80.2355006  69.6395017  96.9859987  81.3285006  70.6305017
  95.0779987  80.7895006  71.4635017  95.0839987  81.5785006  72.2125017
  94.0409987  80.6755006  71.1525017  95.5469987  79.4705006  72.1065017
  95.3689987  78.6535006  71.4085017  96.6189987  79.4985006  72.2775017
  94.8449987  79.1635006  73.4375017  95.3759987  78.3625006  73.9385017
  94.9319987  80.0385006  74.0805017  93.3719987  78.8255006  73.2735017
  93.1629987  77.9145006  72.7325017  92.3279987  79.5125006  73.7285017
  91.3049987  79.2015006  73.5725017  92.4679987  80.7805006  74.5055017
  93.4789987  81.1425006  74.3245017  91.7989987  81.5295006  74.0955017
  92.2589987  80.6845006  76.0075017  93.1439987  80.2555006  76.4765017
  92.1549987  81.6875006  76.4185017  91.0409987  79.8645006  76.3805017
  90.1439987  80.2535006  75.8985017  91.1379987  78.8325006  76.0535017
  90.8569987  79.9015006  77.8675017  91.6409987  79.3365006  78.3665017
  90.9259987  80.9185006  78.2485017  89.5119987  79.3315006  78.2175017
  88.7219987  79.9685006  77.8245017  89.3689987  78.3605006  77.7525017
  89.3179987  79.2215006  79.7245017  89.9829987  79.8425006  80.3215017
  88.3099987  79.4375006  80.0735017  89.5879987  77.9475006  79.9795017
  90.5169987  77.7675006  79.4435017  89.8549987  77.9785006  81.0335017
  88.6439987  76.7885006  79.7525017  89.0739987  75.8625006  80.1235017
  88.4229987  76.6455006  78.7005017  87.7009987  76.9455006  80.2685017
  33.3969987  92.8385006  79.5065017  34.0289987  92.0745006  79.9485017
  32.3659987  92.5965006  79.7485017  33.6349987  93.7825006  79.9885017
  33.5979987  92.9225006  78.0445017  33.2989987  92.0735006  77.4315017
  34.5689987  93.2385006  77.6745017  32.6179987  94.0055006  77.8815017
  31.6819987  93.7915006  78.3975017  32.3589987  94.1485006  76.8345017
  33.2039987  95.3165006  78.4205017  34.2089987  95.4695006  78.0345017
  33.2979987  95.2905006  79.5055017  32.3379987  96.5105006  78.0155017
  32.6809987  97.3925006  78.5505017  31.3209987  96.3225006  78.3565017
  32.3189987  96.8135006  76.5265017  32.0819987  95.9015006  75.9825017
  33.3179987  97.1055006  76.2105017  31.3179987  97.9175006  76.1305017
  31.1339987  97.6315006  75.0965017  31.9949987  98.7695006  76.0945017
  30.0429987  98.3325006  76.7565017  29.6219987  99.2065006  76.2615017
  30.1819987  98.6115006  77.7995017  29.0859987  97.2235006  76.6765017
  28.1929987  97.4875006  77.2385017  29.5119987  96.3535006  77.1755017
  28.6909987  96.8425006  75.2415017  28.1409987  95.9045006  75.2565017
  29.5889987  96.6605006  74.6515017  27.8649987  97.9155006  74.5715017
  28.4969987  98.7985006  74.5065017  27.0559987  98.1725006  75.2535017
  27.2809987  97.6335006  73.1745017  26.8319987  98.5365006  72.7685017
  26.4769987  96.9045006  73.2555017  28.3249987  97.0975006  72.2215017
  28.6569987  96.1105006  72.5385017  29.2129987  97.7225006  72.1955017
  27.7659987  96.9745006  70.8175017  27.4759987  97.9445006  70.4265017
  26.8699987  96.3595006  70.8295017  28.7799987  96.3365006  69.8735017
  29.1099987  95.3805006  70.2615017  29.6429987  96.9805006  69.7555017
  28.2019987  96.2895006  68.4755017  27.2049987  96.8665006  68.0735017
  28.9509987  95.4605006  67.8265017  28.7089987  95.2635006  66.4345017
  27.7199987  95.6535006  66.2465017  28.7309987  94.2155006  66.1735017
  29.7689987  96.0635006  65.6195017  29.5089987  97.1045006  65.7195017
  29.7769987  95.6605006  64.1085017  28.8189987  95.9145006  63.6745017
  29.9019987  94.5855006  64.0685017  30.8349987  96.3115006  63.4015017
  31.9069987  95.5405006  62.4975017  30.9429987  94.7835006  61.4765017
  31.4819987  94.2195006  60.2825017  32.4029987  93.6815006  60.4665017
  31.7239987  95.0135006  59.5825017  30.4419987  93.3165006  59.5355017
  30.9779987  92.8745006  58.7055017  29.6509987  93.9405006  59.1455017
  29.7469987  92.1545006  60.2475017  28.9859987  92.5415006  61.4835017
  29.6369987  93.1215006  62.1225017  28.6919987  91.6345006  61.9915017
  28.1059987  93.0965006  61.1945017  28.9549987  91.3625006  59.3165017
  29.5709987  91.1165006  58.4655017  28.0879987  91.9275006  59.0235017
  28.6569987  90.4605006  59.8315017  30.6869987  91.2105006  60.6155017
  31.2079987  90.8655006  59.7345017  30.1879987  90.3785006  61.0895017
  31.3899987  91.6515006  61.3075017  32.7219987  96.5765006  61.8165017
  32.6279987  94.5475006  63.3245017  31.0789987  95.8595006  66.1725017
  31.5429987  96.8525006  66.9085017  30.9169987  97.7985006  67.3515017
  33.0039987  96.6605006  67.0635017  33.3389987  96.1235006  66.1815017
  33.4839987  97.6345006  67.0195017  33.3649987  95.9325006  68.3405017
  34.4489987  95.9285006  68.3215017  33.0809987  96.6325006  69.1195017
  32.8809987  94.5765006  68.6825017  31.7999987  94.5865006  68.7985017
  33.0899987  93.9085006  67.8505017  33.5409987  94.0075006  69.9455017
  34.5029987  93.5415006  69.7405017  33.7199987  94.7405006  70.7285017
  32.6069987  92.9535006  70.4705017  31.6099987  93.3745006  70.5835017
  32.5199987  92.1635006  69.7275017  33.0469987  92.3335006  71.7915017
  32.3959987  91.4755006  71.9525017  34.0469987  91.9365006  71.6425017
  33.0499987  93.2065006  73.0435017  33.3669987  92.5845006  73.8725017
  33.8279987  93.9565006  72.9075017  31.7559987  93.9075006  73.3555017
  31.6269987  94.8735006  72.8905017  30.7549987  93.4635006  74.1265017
  29.8559987  94.0395006  74.2925017  30.7709987  92.1405006  74.8265017
  30.3279987  91.4355006  74.1255017  31.8039987  91.8345006  74.9525017
  30.0379987  92.0125006  76.1595017  29.9859987  90.9485006  76.3895017
  30.6919987  92.4525006  76.9095017  28.6539987  92.6255006  76.2825017
  28.6529987  93.6875006  76.0365017  27.9289987  92.1595006  75.6205017
  28.2089987  92.4445006  77.7305017  28.0449987  91.3885006  77.9355017
  28.9959987  92.7675006  78.4105017  26.9439987  93.2305006  78.0205017
  27.1959987  94.2775006  78.1755017  26.2829987  93.2085006  77.1585017
  26.2079987  92.7405006  79.2515017  25.9239987  91.6925006  79.1705017
  26.8179987  92.8185006  80.1495017  24.9379987  93.5755006  79.4525017
  25.1879987  94.6085006  79.6805017  24.3889987  93.6035006  78.5135017
  24.0139987  93.0195006  80.5475017  23.0899987  93.5865006  80.5965017
  24.4749987  93.0645006  81.5285017  23.7559987  91.9825006  80.3515017
  31.1349987  18.7885006  80.5355017  31.5849987  18.5565006  81.4955017
  31.9119987  19.1945006  79.8945017  30.7989987  17.8545006  80.0935017
  30.0189987  19.7355006  80.6835017  30.2729987  20.7245006  81.0605017
  29.1739987  19.3925006  81.2735017  29.6319987  19.8425006  79.2485017
  29.3429987  18.8835006  78.8195017  30.4509987  20.2125006  78.6355017
  28.4919987  20.7935006  79.1365017  28.8729987  21.8125006  79.1345017
  27.8499987  20.7135006  80.0125017  27.6469987  20.5805006  77.8625017
  27.0329987  19.6955006  78.0075017  28.3349987  20.3455006  77.0525017
  26.7419987  21.7515006  77.4365017  27.2199987  22.6865006  77.7235017
  25.8129987  21.7005006  77.9995017  26.4239987  21.7845006  75.9415017
  26.0119987  20.8135006  75.6725017  27.3689987  21.8725006  75.4075017
  25.5239987  22.8265006  75.4945017  26.0889987  23.7565006  75.4525017
  24.7679987  22.9655006  76.2655017  24.8569987  22.6005006  74.1915017
  24.0759987  23.3525006  74.1005017  24.3469987  21.6405006  74.2585017
  25.7529987  22.6225006  72.9015017  26.5499987  21.8855006  72.9765017
  26.2419987  23.5895006  72.7855017  24.9049987  22.3455006  71.6825017
  24.1769987  23.1385006  71.5245017  24.3319987  21.4255006  71.7875017
  25.7689987  22.2515006  70.4695017  26.6029987  21.5875006  70.6815017
  26.2019987  23.2315006  70.2775017  25.0539987  21.8005006  69.2465017
  24.1459987  22.3975006  69.1805017  24.7329987  20.7755006  69.4075017
  25.7729987  21.8915006  67.9085017  26.1369987  22.9015006  67.7545017
  25.0579987  21.6905006  67.1155017  26.9319987  20.9165006  67.7735017
  26.5979987  19.9035006  67.9565017  27.7139987  21.1585006  68.4835017
  27.9249987  21.3415006  66.7355017  28.9909987  21.8315006  67.0285017
  27.3909987  21.1905006  65.5575017  28.0599987  21.5505006  64.3575017
  29.0899987  21.8385006  64.4915017  27.5019987  22.3915006  63.9745017
  27.9589987  20.3285006  63.3945017  28.5159987  20.5495006  62.4995017
  26.5619987  19.9195006  63.0505017  26.0039987  20.7595006  62.6585017
  26.0669987  19.5695006  63.9505017  26.6469987  18.8795006  62.0905017
  26.0069987  17.4575006  62.3905017  27.1509987  16.4915006  61.8935017
  27.6639987  16.4655006  60.5765017  26.8629987  16.5865006  59.8555017
  28.0839987  15.4815006  60.4445017  28.8109987  17.5065006  60.3135017
  28.5999987  18.4135006  60.8605017  28.8469987  17.8425006  58.8445017
  29.6939987  17.3715006  58.5225017  27.9919987  17.5415006  58.3315017
  28.9759987  18.8265006  58.6945017  30.1429987  16.8845006  60.7815017
  25.7749987  17.2425006  63.8295017  24.8559987  17.3865006  61.4645017
  28.4069987  19.1235006  64.0475017  29.6569987  19.1555006  63.9975017
  30.1939987  20.1955006  63.5365017  31.0069987  16.6135006  59.8975017
  30.3119987  16.6455006  61.9955017  30.1479987  17.8275006  64.8095017
  29.5159987  17.0185006  64.4575017  31.1529987  17.5895006  64.4705017
  30.0979987  17.9755006  66.3995017  30.7879987  17.2455006  66.8095017
  30.5049987  18.9495006  66.6535017  28.8039987  17.8065006  67.0235017
  28.0079987  18.2465006  66.4275017  28.5619987  16.7515006  67.1205017
  28.8219987  18.4335006  68.4195017  29.1059987  19.4785006  68.3105017
  27.8149987  18.4335006  68.8285017  29.7689987  17.7795006  69.4345017
  30.5849987  17.2605006  68.9345017  30.2319987  18.5385006  70.0625017
  29.0219987  16.8035006  70.3245017  28.2999987  17.3595006  70.9195017
  28.4479987  16.1135006  69.7125017  29.9329987  15.9905006  71.2595017
  30.6109987  15.3475006  70.7105017  30.5559987  16.6445006  71.8685017
  29.0349987  15.1815006  72.1785017  28.4689987  14.3795006  71.7275017
  28.8899987  15.3645006  73.5055017  28.2269987  14.7415006  74.0895017
  29.6139987  16.4215006  74.3125017  30.6739987  16.2535006  74.1305017
  29.3839987  17.3935006  73.8895017  29.3849987  16.4595006  75.8425017
  29.3009987  15.4475006  76.2365017  30.2509987  16.9035006  76.3305017
  28.1249987  17.2635006  76.2165017  28.1259987  17.3895006  77.2995017
  28.2249987  18.2595006  75.7945017  26.7789987  16.6535006  75.7785017
  26.7939987  16.4955006  74.7025017  26.6589987  15.6695006  76.2295017
  25.5759987  17.5385006  76.1635017  25.7959987  18.5505006  75.8295017
  24.7189987  17.2135006  75.5805017  25.2089987  17.6015006  77.6365017
  24.6449987  16.7245006  77.9485017  26.0949987  17.6305006  78.2675017
  24.3659987  18.8515006  77.9235017  24.9179987  19.7835006  77.8295017
  23.5299987  18.9325006  77.2325017  23.8289987  18.7285006  79.3175017
  23.1509987  19.5465006  79.5435017  24.6199987  18.7475006  80.0595017
  23.2799987  17.7995006  79.4435017  83.4419987  89.9715006  78.1995017
  83.9549987  89.1085006  78.6135017  82.4579987  90.0225006  78.6555017
  83.9909987  90.8585006  78.5025017  83.3459987  89.8845006  76.7375017
  82.7799987  89.0245006  76.3845017  84.3099987  89.8405006  76.2385017
  82.6299987  91.1305006  76.3575017  83.1879987  92.0175006  76.6565017
  81.6699987  91.1925006  76.8665017  82.3869987  91.1735006  74.8745017
  81.8269987  90.2915006  74.5715017  83.3309987  91.1315006  74.3335017
  81.6109987  92.4175006  74.4435017  82.1699987  93.3225006  74.6695017
  80.6769987  92.4875006  74.9995017  81.3079987  92.3855006  72.9615017
  80.5979987  93.1685006  72.6985017  80.8379987  91.4435006  72.6865017
  82.5769987  92.5665006  72.1495017  83.2139987  91.6845006  72.1855017
  83.1819987  93.3935006  72.5175017  82.1809987  92.8375006  70.7185017
  81.5329987  93.7125006  70.6825017  81.5879987  92.0055006  70.3435017
  83.3709987  93.0575006  69.8015017  83.9249987  93.9335006  70.1305017
  83.0179987  93.2815006  68.7955017  84.3099987  91.8565006  69.7485017
  83.9499987  91.0885006  70.4295017  85.2959987  92.1475006  70.1095017
  84.4419987  91.2815006  68.3315017  85.0639987  91.9465006  67.7365017
  83.4669987  91.2675006  67.8485017  85.0559987  89.8655006  68.2805017
  84.7159987  89.3185006  69.1565017  86.1339987  89.9675006  68.3865017
  84.7629987  89.0615006  67.0085017  85.1919987  89.5355006  66.1275017
  83.7019987  88.9475006  66.8065017  85.3949987  87.6755006  67.1535017
  85.1029987  87.2095006  68.0895017  86.4779987  87.7645006  67.1715017
  84.9979987  86.7545006  65.9835017  85.2499987  87.2145006  65.0365017
  83.9319987  86.5585006  66.0025017  83.4889987  86.4485006  65.9135017
  82.8929987  85.7405006  66.7035017  83.0009987  86.8885006  64.7555017
  81.6559987  86.5155006  64.4095017  81.3739987  85.8445006  65.2065017
  81.6379987  85.9775006  63.4725017  80.6919987  87.7405006  64.3685017
  79.7029987  87.3375006  64.2265017  81.0279987  88.7225006  63.2235017
  80.3169987  89.5375006  63.2325017  80.9229987  88.1815006  62.2915017
  82.3529987  89.2175006  63.3625017  82.6309987  90.7705006  63.4655017
  81.9649987  91.2365006  62.0805017  82.6769987  91.1815006  60.8495017
  83.2229987  90.2585006  60.7045017  83.4069987  91.9835006  60.7905017
  81.6909987  91.4385006  59.6705017  82.2579987  91.5725006  58.7585017
  81.1869987  92.3645006  59.9055017  80.5879987  90.4355006  59.3305017
  81.1559987  89.0825006  59.2615017  82.0169987  89.1025006  58.6075017
  80.4029987  88.4255006  58.8515017  81.4149987  88.7595006  60.2585017
  79.5439987  90.4785006  60.3975017  79.2639987  91.5075006  60.5625017
  79.9379987  90.0295006  61.2925017  78.6939987  89.9155006  60.0405017
  79.9909987  90.6845006  57.9665017  79.5899987  91.6865006  57.9315017
  79.1999987  89.9715006  57.7905017  80.7559987  90.5695006  57.2115017
  81.8529987  91.3535006  64.5815017  84.0909987  91.0095006  63.3985017
  80.7219987  88.4195006  65.6515017  79.5949987  89.0185006  66.0135017
  78.5519987  88.9615006  65.3795017  79.6909987  89.7455006  67.3865017
  80.5739987  90.3725006  67.3205017  78.8469987  90.4275006  67.4525017
  79.7419987  88.7865006  68.6295017  78.8759987  88.1355006  68.5715017
  80.6089987  88.1425006  68.5205017  79.7679987  89.4695006  70.0095017
  80.4759987  90.2925006  69.9475017  78.7879987  89.9215006  70.1445017
  80.0809987  88.5925006  71.2445017  80.0199987  89.2095006  72.1395017
  79.3309987  87.8135006  71.3605017  81.4759987  87.9375006  71.2005017
  81.3889987  86.9925006  70.6685017  82.1129987  88.5725006  70.5875017
  82.1719987  87.7005006  72.5515017  83.0519987  87.0875006  72.3615017
  82.5369987  88.6535006  72.9245017  81.3219987  87.0415006  73.6415017
  81.9009987  87.0635006  74.5575017  80.4629987  87.6905006  73.8065017
  80.8249987  85.6505006  73.3465017  79.8709987  85.5345006  72.8545017
  81.4989987  84.5305006  73.6445017  81.1099987  83.5485006  73.4175017
  82.8619987  84.5175006  74.3175017  83.2449987  83.5085006  74.1735017
  83.5199987  85.1745006  73.7605017  82.9509987  84.8585006  75.8265017
  83.9649987  84.6925006  76.1885017  82.7459987  85.9175006  75.9715017
  81.9739987  84.0415006  76.6595017  81.0849987  83.8455006  76.0605017
  82.4149987  83.0725006  76.8755017  81.5609987  84.7145006  77.9655017
  81.0529987  85.6505006  77.7465017  80.8399987  84.0935006  78.4935017
  82.7179987  84.9635006  78.8395017  83.2869987  84.0475006  78.9895017
  83.4089987  85.6715006  78.3895017  82.2639987  85.4755006  80.2305017
  81.9939987  86.5275006  80.1535017  81.3549987  84.9515006  80.5215017
  83.3219987  85.3145006  81.3815017  82.8599987  85.5035006  82.3475017
  83.6409987  84.2745006  81.4045017  84.3679987  86.0685006  81.2495017
  85.0999987  85.8515006  82.0215017  84.1199987  87.1225006  81.3235017
  84.8459987  85.9085006  80.2865017  93.9729987  27.3515006  78.6315017
  95.0369987  27.2235006  78.4595017  93.5769987  26.4015006  78.9785017
  93.8529987  28.0715006  79.4365017  93.2479987  27.8255006  77.3465017
  93.3699987  27.1085006  76.5365017  93.6619987  28.7645006  76.9885017
  91.7899987  27.9865006  77.6465017  91.7509987  29.0495006  77.4085017
  91.9009987  27.9245006  78.7275017  90.6089987  27.4045006  77.2995017
  90.3819987  27.1805006  78.3395017  91.1209987  26.5275006  76.9065017
  89.3689987  27.5925006  76.5865017  89.6009987  27.9685006  75.5935017
  88.8199987  28.3845006  77.0925017  88.4739987  26.3665006  76.4535017
  88.1289987  26.0495006  77.4355017  89.0419987  25.5325006  76.0475017
  87.3569987  26.6175006  75.6245017  87.6629987  26.7235006  74.5855017
  86.8769987  27.5565006  75.8975017  86.3479987  25.4865006  75.7365017
  85.4769987  25.7745006  75.1495017  86.0179987  25.4515006  76.7735017
  86.8069987  24.0935006  75.3065017  85.9749987  23.3935006  75.3525017
  87.5599987  23.7165006  75.9975017  87.3839987  24.1035006  73.8855017
  88.0409987  23.2435006  73.7765017  88.0149987  24.9845006  73.7725017
  86.3239987  24.0975006  72.7785017  85.5049987  24.7315006  73.1125017
  85.9169987  23.0895006  72.7095017  86.7599987  24.5655006  71.3785017
  85.9359987  24.3735006  70.6955017  87.5759987  23.9195006  71.0605017
  87.2169987  26.0285006  71.2585017  88.1549987  26.1765006  71.7905017
  86.5029987  26.7155006  71.7045017  87.4389987  26.4215006  69.7855017
  87.0809987  27.4285006  69.5985017  86.8649987  25.7595006  69.1425017
  88.9199987  26.3285006  69.3845017  89.3079987  25.3395006  69.5935017
  89.5059987  27.0555006  69.9345017  89.0339987  26.6365006  67.9035017
  88.0959987  26.9165006  67.1775017  90.3069987  26.5965006  67.5455017
  90.5389987  26.7895006  66.1335017  91.3779987  27.4665006  66.0815017
  89.6789987  27.2565006  65.6755017  90.8819987  25.4595006  65.4345017
  91.7949987  25.0465006  65.8305017  91.0179987  25.6665006  63.9135017
  91.5239987  26.6015006  63.7155017  90.0209987  25.7155006  63.4935017
  91.7359987  24.5885006  63.3525017  91.8109987  24.1635006  61.8425017
  91.0179987  25.3685006  61.1785017  89.6489987  25.1395006  60.8815017
  89.0469987  24.9135006  61.7525017  89.5369987  24.2985006  60.2025017
  89.0879987  26.3435006  60.1245017  88.0549987  26.1205006  59.8895017
  89.6319987  26.4845006  59.2015017  89.0719987  27.7065006  60.8145017
  90.4499987  28.0655006  61.2735017  90.8499987  27.2385006  61.8435017
  90.3739987  28.9385006  61.9035017  91.0589987  28.2925006  60.4115017
  88.6279987  28.7555006  59.8465017  87.7189987  28.4205006  59.3705017
  89.4099987  28.9225006  59.1275017  88.4399987  29.6575006  60.4115017
  88.1399987  27.6525006  61.9925017  87.1519987  27.3785006  61.6525017
  88.1049987  28.6245006  62.4615017  88.4979987  26.9215006  62.7025017
  93.1959987  24.2085006  61.3195017  91.0069987  22.9495006  61.6065017
  89.8339987  24.5585006  65.7635017  90.1369987  23.3095006  65.6905017
  91.1259987  22.7605006  65.2745017  89.0689987  22.6105006  66.4055017
  88.4369987  23.3705006  66.8525017  88.4439987  22.0915006  65.6835017
  89.6229987  21.6445006  67.4465017  88.8409987  20.9775006  67.7925017
  90.3909987  21.0095006  67.0175017  90.1929987  22.4145006  68.6445017
  90.8079987  23.2145006  68.2405017  89.3429987  22.8965006  69.1215017
  90.9699987  21.6425006  69.7025017  91.5239987  20.8345006  69.2285017
  91.7099987  22.2755006  70.1865017  90.0629987  21.0405006  70.7705017
  89.4799987  21.8355006  71.2315017  89.3459987  20.3845006  70.2795017
  90.7919987  20.2405006  71.8655017  90.0589987  20.1645006  72.6665017
  90.9039987  19.2405006  71.4565017  92.0979987  20.6715006  72.4335017
  92.5679987  19.9395006  73.0795017  92.8339987  20.9265006  71.6725017
  91.7559987  21.8715006  73.1675017  91.9139987  22.8285006  72.6925017
  91.2489987  21.8815006  74.3795017  91.0209987  22.8115006  74.8805017
  90.9279987  20.6455006  75.1955017  90.0239987  20.9375006  75.7275017
  90.6259987  19.8965006  74.4725017  91.8719987  20.0345006  76.1775017
  91.7199987  18.9845006  76.4235017  92.9319987  20.1445006  75.9585017
  91.5839987  20.7345006  77.1575017  92.5349987  20.7485006  77.6895017
  91.4789987  21.7135006  76.6975017  90.1009987  20.4515006  78.4685017
  89.3979987  19.9025006  77.8465017  90.5539987  19.7195006  79.1345017
  89.0989987  21.8585006  79.5885017  88.4099987  22.1675006  78.8045017
  88.5519987  21.1475006  80.2005017  89.4839987  23.1895006  80.4785017
  89.7029987  22.5225006  81.3105017  90.4029987  23.2615006  79.8995017
  89.0589987  24.9715006  81.2005017  88.5669987  25.4435006  80.3535017
  88.2649987  24.7125006  81.8975017  90.1299987  26.1275006  81.9715017
  89.5729987  26.9835006  82.3385017  90.8849987  26.5005006  81.2875017
  90.6439987  25.6795006  82.8175017  77.6929987  10.9945006  78.0435017
  77.3409987   9.9825006  78.2205017  77.4479987  11.2565006  77.0185017
  77.1319987  11.6585006  78.6955017  79.1599987  11.1095006  78.2945017
  79.7029987  10.4235006  77.6465017  79.3819987  10.8065006  79.3145017
  79.6559987  12.5295006  78.0495017  80.5579987  12.7125006  78.6325017
  78.9129987  13.2355006  78.4155017  79.9319987  12.8345006  76.5955017
  79.9649987  11.8945006  76.0495017  80.9259987  13.2705006  76.5055017
  78.9309987  13.7385006  75.9355017  78.9599987  14.7065006  76.4285017
  77.9399987  13.3295006  76.1235017  79.1139987  13.9415006  74.4405017
  80.1719987  14.0235006  74.1975017  78.6559987  14.8775006  74.1275017
  78.5019987  12.7915006  73.6465017  78.7409987  11.8345006  74.1065017
  78.9139987  12.7565006  72.6385017  76.9779987  12.9475006  73.5655017
  76.7409987  13.8185006  72.9565017  76.5869987  13.1565006  74.5595017
  76.2709987  11.7295006  72.9945017  76.5839987  10.8685006  73.5815017
  76.6599987  11.5695006  71.9895017  74.7359987  11.7785006  72.9415017
  74.3179987  12.0645006  73.9045017  74.3149987  10.8025006  72.7035017
  74.3139987  12.7835006  71.8685017  74.8669987  13.7075006  72.0205017
  73.2629987  13.0345006  72.0025017  74.5409987  12.3195006  70.4375017
  74.1659987  11.3155006  70.2535017  75.5959987  12.3035006  70.1715017
  73.8129987  13.3405006  69.5175017  74.0689987  14.3465006  69.8465017
  72.7369987  13.2465006  69.6355017  74.1629987  13.2265006  68.0375017
  73.6979987  14.0475006  67.5015017  73.7149987  12.3115006  67.6605017
  75.6399987  13.2025006  67.7245017  76.1309987  12.4105006  68.2745017
  76.0979987  14.1475006  67.9925017  76.0149987  13.3685006  66.2735017
  77.0119987  12.8635006  65.8055017  75.0859987  14.0315006  65.6325017
  75.4409987  14.4035006  64.3025017  74.5649987  14.1565006  63.7235017
  76.2959987  13.8865006  63.8925017  75.6649987  15.9005006  64.3085017
  74.7539987  16.3305006  64.6905017  75.9089987  16.3625006  62.8335017
  75.6649987  17.4165006  62.8285017  75.1449987  15.8315006  62.2755017
  77.1489987  16.1465006  62.2825017  77.3659987  16.8615006  60.8755017
  78.1489987  15.7355006  60.1225017  77.8079987  14.3595006  60.3645017
  77.2929987  13.7845006  59.6025017  77.1299987  14.4965006  61.1915017
  79.0359987  13.5885006  60.8945017  79.8479987  13.6935006  60.1905017
  78.7029987  12.1405006  61.0075017  78.6329987  11.9995006  62.0165017
  77.8349987  11.8755006  60.4965017  79.4529987  11.5625006  60.6755017
  79.7239987  14.1875006  62.1435017  76.0969987  17.0175006  60.1235017
  78.1109987  18.1115006  61.0965017  76.7389987  16.3345006  65.1815017
  76.9739987  17.6105006  65.5515017  76.4769987  18.6595006  65.2855017
  79.7909987  13.4995006  63.1995017  80.2779987  15.3055006  61.9915017
  78.0169987  17.8305006  66.5225017  77.9759987  16.9785006  67.1935017
  78.9689987  17.7545006  66.0035017  77.9039987  19.1625006  67.2775017
  78.8279987  19.7035006  67.1055017  77.1219987  19.7445006  66.8015017
  77.6439987  19.0785006  68.7935017  77.6219987  20.1345006  69.0515017
  76.6089987  18.7445006  68.7925017  78.3759987  18.3265006  69.8155017
  77.8289987  18.2765006  70.7545017  78.5909987  17.2985006  69.5345017
  79.6729987  19.0435006  70.0615017  80.4239987  18.3275006  70.3895017
  80.0299987  19.4445006  69.1155017  79.5849987  20.1775006  71.0675017
  80.5869987  20.5665006  71.2415017  79.0059987  20.9965006  70.6495017
  78.9559987  19.7665006  72.4155017  79.0129987  20.6865006  72.9855017
  77.9079987  19.6345006  72.1505017  79.3969987  18.5825006  73.2455017
  80.3669987  18.1415006  73.0705017  78.6379987  18.0365006  74.2275017
  79.0079987  17.1895006  74.7865017  77.2739987  18.5015006  74.6515017
  77.3889987  18.8195006  75.6865017  77.0329987  19.3935006  74.0845017
  76.0909987  17.5125006  74.5795017  75.1499987  18.0585006  74.6415017
  76.0939987  17.0235006  73.6075017  76.1369987  16.4555006  75.6705017
  75.5079987  15.5915006  75.4585017  77.1329987  16.0655006  75.8615017
  75.6089987  17.1725006  76.9425017  76.1179987  18.1335006  76.9155017
  74.5639987  17.3745006  76.7125017  75.7059987  16.5865006  78.3025017
  74.9519987  17.1065006  78.8895017  75.3519987  15.5645006  78.2035017
  77.1239987  16.6145006  79.1555017  77.8639987  16.0355006  78.6065017
  77.4909987  17.6395006  79.1685017  77.0739987  16.0955006  80.6045017
  76.1779987  16.4395006  81.1145017  77.0069987  15.0095006  80.5895017
  78.2489987  16.4815006  81.3755017  78.2279987  16.0295006  82.3625017
  78.3099987  17.5565006  81.5115017  79.1619987  16.1595006  80.8835017
  14.0299987  35.8625006  80.4135017  14.5109987  35.4135006  81.2775017
  13.2709987  35.1705006  80.0605017  13.5239987  36.7635006  80.7485017
  15.0019987  36.1645006  79.3605017  15.4749987  35.1985006  79.1935017
  15.7289987  36.7725006  79.8925017  14.6739987  36.7955006  78.0245017
  15.6199987  36.9475006  77.5055017  14.2879987  37.7895006  78.2435017
  13.6869987  36.0845006  77.0825017  13.7579987  35.0105006  77.2425017
  13.9799987  36.2545006  76.0475017  12.2289987  36.5125006  77.2745017
  12.1609987  37.4915006  77.7425017  11.7119987  35.8205006  77.9375017
  11.5029987  36.5565006  75.9215017  11.9209987  37.3655006  75.3245017
  10.4589987  36.8115006  76.0905017  11.5819987  35.2405006  75.1225017
  11.1439987  34.4505006  75.7305017  12.6329987  34.9835006  75.0005017
  10.8979987  35.2575006  73.7395017   9.8249987  35.3735006  73.8835017
  11.0379987  34.2865006  73.2685017  11.4019987  36.3525006  72.7965017
  12.4289987  36.1375006  72.5095017  11.4279987  37.3035006  73.3275017
  10.5419987  36.5015006  71.5345017  10.7769987  37.4685006  71.0955017
   9.4999987  36.5545006  71.8505017  10.6939987  35.3915006  70.4765017
  10.3969987  34.4465006  70.9255017  11.7459987  35.2855006  70.2195017
   9.8739987  35.5965006  69.1885017   8.8189987  35.5515006  69.4465017
  10.0629987  34.7475006  68.5345017  10.1729987  36.8805006  68.4195017
   9.9149987  37.7175006  69.0665017   9.5079987  36.9415006  67.5625017
  11.6039987  37.0755006  67.9505017  12.0469987  36.2245006  67.4435017
  12.2919987  37.3645006  68.7415017  11.4819987  38.2145006  66.9855017
  11.0109987  39.0655006  67.4615017  10.8869987  37.9215006  66.1285017
  12.7679987  38.7095006  66.8765017  13.5589987  38.7425006  67.7915017
  12.7259987  39.0695006  65.7305017  13.7539987  39.2545006  65.0225017
  14.1279987  39.9865006  65.7225017  13.3439987  39.7645006  64.1625017
  15.2869987  37.9405006  64.4555017  16.0539987  38.6255006  64.1325017
  14.8879987  37.2075006  63.4425017  15.6719987  36.7585006  62.8485017
  14.1989987  37.7165006  62.7795017  14.2179987  36.2325006  64.1855017
  13.4599987  35.4215006  63.1915017  14.7199987  34.8865006  62.4045017
  14.4779987  34.0325006  61.3035017  13.7709987  33.2585006  61.5725017
  15.4059987  33.5275006  61.0525017  14.0429987  34.7575006  60.0005017
  13.1269987  35.2645006  60.2765017  13.8299987  34.0695006  59.1955017
  14.9409987  35.8235006  59.4095017  16.2399987  35.2685006  58.8815017
  16.6959987  34.6625006  59.6525017  16.8859987  36.1005006  58.6435017
  16.0399987  34.6985006  57.9865017  14.2089987  36.4015006  58.2495017
  13.2119987  36.6625006  58.5695017  14.1899987  35.6805006  57.4515017
  14.7429987  37.2885006  57.9395017  15.1879987  36.8955006  60.4175017
  14.2439987  37.3195006  60.7245017  15.8029987  37.6645006  59.9745017
  15.6959987  36.4755006  61.2735017  12.7579987  34.3405006  63.8795017
  12.7549987  36.3145006  62.2545017  15.8309987  37.1555006  65.4895017
  16.9639987  36.7025006  65.4745017  17.9569987  36.8705006  64.7675017
  16.6129987  35.7495006  66.5085017  16.4329987  34.9085006  65.8465017
  17.6059987  35.5945006  66.9235017  15.5829987  35.8385006  67.5935017
  15.7999987  36.7125006  68.1985017  14.6119987  36.0185006  67.1435017
  15.5169987  34.6165006  68.4915017  15.5389987  33.6835006  67.9345017
  16.3599987  34.5805006  69.1775017  14.2439987  34.7085006  69.2975017
  14.3169987  35.5135006  70.0265017  13.3829987  34.9405006  68.6745017
  13.9749987  33.4095006  70.0435017  12.9739987  33.4655006  70.4665017
  13.9459987  32.6125006  69.3025017  14.9609987  33.0255006  71.1315017
  14.9349987  31.9715006  71.4045017  15.9999987  33.2625006  70.9215017
  14.5019987  33.8615006  72.3125017  14.3179987  34.8915006  72.0315017
  13.5649987  33.4825006  72.7185017  15.4999987  33.7755006  73.3175017
  15.1519987  33.0615006  74.0485017  16.7139987  34.3455006  73.5375017
  17.3759987  34.1505006  74.3695017  17.2349987  35.3355006  72.5725017
  18.2829987  35.1455006  72.3475017  16.7179987  35.3485006  71.6195017
  17.1279987  36.7105006  73.2255017  17.0899987  37.4865006  72.4615017
  16.1909987  36.7795006  73.7745017  18.2929987  36.9905006  74.1815017
  18.1219987  36.4185006  75.0935017  19.2019987  36.5915006  73.7395017
  18.5009987  38.4385006  74.5355017  18.9419987  38.9425006  73.6785017
  17.5319987  38.9075006  74.6985017  19.3789987  38.6485006  75.7765017
  20.2729987  38.0395006  75.6595017  19.7209987  39.6795006  75.7855017
  18.7359987  38.2925006  77.1355017  18.4549987  37.2405006  77.1385017
  19.4769987  38.4095006  77.9245017  17.5859987  39.0705006  77.4745017
  17.7759987  40.0845006  77.1325017  16.7889987  38.6885006  76.8405017
  17.0819987  39.1065006  78.9425017  16.1549987  39.6665006  79.0185017
  17.7999987  39.5755006  79.6065017  16.8939987  38.1035006  79.3155017
  85.5039987  19.8925006  78.4745017  85.8509987  19.6925006  79.4835017
  84.4289987  20.0405006  78.5175017  85.9519987  20.8275006  78.1505017
  85.7989987  18.9665006  77.7045017  85.3429987  18.0025006  77.9255017
  86.8619987  18.7795006  77.5765017  85.2239987  19.5005006  76.4545017
  85.7509987  20.3155006  75.9585017  84.1759987  19.7925006  76.4825017
  85.3429987  18.3075006  75.6625017  84.5649987  17.5845006  75.8985017
  86.2899987  17.7915006  75.8145017  85.2149987  18.6955006  74.2205017
  85.8629987  19.5315006  73.9715017  84.1999987  19.0185006  73.9955017
  85.5719987  17.5175006  73.3375017  85.0399987  16.6425006  73.7055017
  86.6309987  17.3045006  73.4635017  85.2689987  17.7045006  71.8485017
  84.1899987  17.6635006  71.7115017  85.6769987  16.8525006  71.3065017
  85.8079987  19.0005006  71.2325017  86.8969987  18.9845006  71.2175017
  85.5249987  19.8545006  71.8455017  85.2859987  19.2075006  69.8055017
  84.2029987  19.3055006  69.8295017  85.4969987  18.3185006  69.2125017
  85.8949987  20.4415006  69.1075017  86.9609987  20.4515006  69.3235017
  85.4799987  21.3325006  69.5775017  85.6629987  20.5185006  67.5725017
  84.5979987  20.4385006  67.3635017  86.1329987  19.6695006  67.0785017
  86.1859987  21.8295006  66.9415017  87.1719987  22.0215006  67.3565017
  85.5449987  22.6345006  67.2955017  86.2389987  21.8825006  65.3945017
  86.6969987  22.8165006  65.0735017  85.2419987  21.8685006  64.9635017
  87.0659987  20.7135006  64.7945017  86.4229987  19.8475006  64.6775017
  87.8319987  20.4415006  65.5155017  87.7529987  21.0255006  63.4385017
  88.3749987  21.9075006  63.5225017  87.0089987  21.1965006  62.6695017
  89.0149987  20.1995006  63.1685017  90.0219987  20.6195006  62.6425017
  88.8339987  18.9875006  63.6005017  89.7589987  18.0235006  63.0755017
  90.7679987  18.2855006  63.3515017  89.6679987  18.0405006  61.9995017
  89.3979987  16.6605006  63.6285017  89.9229987  15.7945006  63.2615017
  87.9529987  16.6705006  63.1075017  87.7829987  15.6715006  62.7295017
  87.9909987  17.3525006  62.2655017  86.9279987  17.0485006  64.0105017
  85.5339987  17.3975006  63.3445017  86.0309987  18.3835006  62.1875017
  85.2229987  18.7525006  61.0855017  84.2799987  19.2035006  61.3725017
  85.0069987  17.8235006  60.5815017  85.9929987  19.6715006  60.0705017
  86.5069987  20.4485006  60.6165017  85.0029987  20.3265006  59.1425017
  85.1579987  19.8375006  58.2595017  84.0189987  20.2625006  59.4775017
  85.2229987  21.2935006  58.9915017  87.0609987  18.8615006  59.3015017
  84.9799987  16.1565006  62.7635017  84.7589987  18.1335006  64.3625017
  89.4299987  16.5995006  65.0645017  90.6019987  16.3395006  65.6145017
  91.6429987  16.1385006  65.0245017  86.9209987  18.7375006  58.0525017
  88.0239987  18.3865006  59.9435017  90.4139987  16.4945006  67.0945017
  89.3559987  16.3745006  67.3035017  90.9139987  15.6785006  67.6105017
  90.9239987  17.8065006  67.5535017  91.9199987  17.6445006  67.9515017
  91.0489987  18.4405006  66.6815017  90.1309987  18.4825006  68.5355017
  89.8829987  19.5155006  68.3065017  89.1889987  17.9875006  68.7605017
  90.9799987  18.4225006  69.7155017  91.8879987  18.8965006  69.3465017
  90.5089987  19.1425006  70.3805017  91.3759987  17.1935006  70.5235017
  90.5889987  16.4575006  70.3765017  92.2619987  16.7905006  70.0375017
  91.6689987  17.3425006  72.0575017  92.5499987  17.9695006  72.1825017
  90.8479987  17.8685006  72.5375017  91.8869987  16.0185006  72.7775017
  92.6839987  15.4475006  72.3165017  92.1909987  16.1915006  73.8085017
  90.5939987  15.2435006  72.7805017  90.2919987  14.8945006  71.8045017
  89.8079987  14.9335006  73.8025017  88.9039987  14.3635006  73.6415017
  90.0509987  15.3035006  75.2385017  90.9039987  14.7795006  75.6655017
  90.2099987  16.3565006  75.4405017  88.8149987  14.8425006  75.9475017
  87.9509987  15.2875006  75.4555017  88.7279987  13.7675006  75.7985017
  88.7649987  15.1335006  77.3755017  88.0849987  14.3635006  77.7405017
  89.7579987  14.8445006  77.7075017  88.3839987  16.4935006  78.0115017
  89.1639987  17.1665006  77.6615017  87.4739987  16.7865006  77.4905017
  88.1799987  16.6685006  79.5265017  87.8559987  15.6775006  79.8375017
  89.1969987  16.7775006  79.8935017  87.2929987  17.6655006  80.1815017
  87.6879987  18.6365006  79.8885017  86.3329987  17.5655006  79.6785017
  87.0479987  17.6745006  81.7065017  86.4349987  18.5455006  81.9245017
  86.4129987  16.8115006  81.8955017  88.2299987  17.6325006  82.6685017
  87.8879987  17.5555006  83.6965017  88.8439987  18.5235006  82.5955017
  88.8669987  16.7755006  82.4675017 107.1689987  55.1905006  82.2965017
 107.6169987  54.8475006  83.2235017 107.9549987  55.6375006  81.6945017
 106.8029987  54.3175006  81.7635017 105.6439987  56.5355006  82.6535017
 106.1809987  57.2605006  83.2625017 105.0489987  55.9405006  83.3415017
 104.6809987  57.3185006  81.6205017 104.9709987  58.3475006  81.4085017
 103.6369987  57.3565006  81.9265017 104.7869987  56.4385006  80.2545017
 104.3169987  55.5015006  80.5445017 105.8529987  56.2305006  80.1815017
 104.2339987  56.8645006  78.8245017 105.0039987  57.5115006  78.4135017
 103.3859987  57.5075006  79.0545017 103.8409987  55.8935006  77.8095017
 102.9769987  55.3125006  78.1275017 104.6349987  55.1765006  77.6155017
 103.5099987  56.6175006  76.5425017 104.3799987  57.0265006  76.0325017
 102.8199987  57.4485006  76.6815017 102.8579987  55.5665006  75.6585017
 101.9319987  55.2305006  76.1235017 103.5039987  54.6925006  75.6025017
 102.5619987  56.0635006  74.2495017 103.4979987  56.1335006  73.6995017
 102.1699987  57.0775006  74.3115017 101.5779987  55.1875006  73.4665017
 100.5859987  55.3005006  73.8975017 101.8489987  54.1405006  73.5965017
 101.5409987  55.5135006  71.9785017 102.4609987  55.2005006  71.4885017
 101.4539987  56.5845006  71.8015017 100.3489987  54.7825006  71.2965017
  99.4659987  55.3945006  71.4615017 100.1889987  53.8615006  71.8535017
 100.4839987  54.4345006  69.7915017 101.3509987  53.7855006  69.6815017
 100.7109987  55.3415006  69.2385017  99.2749987  53.7305006  69.1325017
  98.4079987  54.3825006  69.1595017  99.0239987  52.8485006  69.7165017
  99.5399987  53.2925006  67.6625017 100.4219987  52.6675006  67.6065017
  99.6879987  54.1605006  67.0305017  99.6439987  54.4775006  66.6675017
  98.7639987  54.7565006  65.8705017 100.8169987  55.1165006  66.7535017
 101.1529987  56.0465006  65.6845017 100.7479987  57.0025006  65.9815017
 100.6629987  55.7225006  64.7775017 102.7109987  56.1545006  65.4765017
 103.1079987  56.7325006  66.2945017 103.1509987  56.7915006  64.1105017
 104.1789987  57.1165006  64.1965017 102.5239987  57.6605006  63.9535017
 103.0049987  55.8645006  63.0185017 103.0139987  56.3435006  61.4945017
 102.8099987  54.9595006  60.7495017 103.8329987  54.3285006  60.0015017
 104.4649987  55.0445006  59.4925017 103.3879987  53.7075006  59.2295017
 104.6779987  53.3575006  60.8695017 104.8809987  53.9265006  61.7685017
 105.6169987  53.0995006  60.4025017 104.0609987  52.0245006  61.3465017
 102.8529987  52.1905006  62.2345017 103.1019987  52.8775006  63.0315017
 102.6089987  51.2235006  62.6495017 102.0259987  52.5475006  61.6385017
 103.6289987  51.2875006  60.1385017 104.4489987  51.2685006  59.4375017
 102.7649987  51.7735006  59.7205017 103.3799987  50.2815006  60.4455017
 105.1239987  51.2325006  62.0195017 105.9359987  51.0665006  61.3275017
 104.7149987  50.2835006  62.3315017 105.4839987  51.7725006  62.8835017
 101.8429987  57.1965006  61.2055017 104.3389987  56.8925006  61.1365017
 103.2329987  54.8215006  65.5445017 104.4339987  54.6565006  66.0285017
 105.0819987  55.4695006  66.6555017 104.9039987  53.2515006  65.6215017
 104.0819987  52.8315006  65.0505017 105.7209987  53.3805006  64.9155017
 105.3219987  52.3335006  66.7975017 105.7399987  51.4185006  66.3915017
 106.1229987  52.8075006  67.3555017 104.1699987  51.9825006  67.7395017
 103.7129987  52.8955006  68.1105017 103.4009987  51.4695006  67.1675017
 104.5719987  51.1155006  68.8765017 105.1979987  50.2905006  68.5415017
 105.1459987  51.6445006  69.6335017 103.3389987  50.5445006  69.5145017
 102.5859987  50.4385006  68.7365017 103.5889987  49.5345006  69.8335017
 102.7509987  51.2835006  70.6795017 103.4189987  51.2135006  71.5365017
 102.6479987  52.3415006  70.4565017 101.4179987  50.7445006  71.0515017
 100.9949987  51.4075006  71.7965017 100.7829987  50.8285006  70.1705017
 101.4009987  49.4255006  71.4875017 101.3299987  48.5615006  70.8435017
 101.4859987  49.2165006  72.7005017 101.4049987  48.1525006  72.8725017
 101.6709987  50.0335006  73.9615017 102.7359987  50.2135006  74.1005017
 101.2069987  51.0095006  73.8745017 101.1429987  49.3335006  75.1975017
 100.0739987  49.1475006  75.0995017 101.6129987  48.3565006  75.2935017
 101.3989987  50.1265006  76.4385017 100.5599987  50.8205006  76.4855017
 101.2509987  49.4165006  77.2475017 102.6799987  50.8825006  76.6625017
 103.4929987  50.3475006  76.1775017 102.6179987  51.8515006  76.1715017
 103.0109987  51.0945006  78.1915017 102.7949987  50.0985006  78.5745017
 104.0939987  51.1655006  78.1435017 102.5159987  52.0135006  79.0965017
 103.0029987  52.9775006  78.9565017 101.4559987  52.1815006  78.9135017
 102.6909987  51.5955006  80.5205017 102.7069987  50.5145006  80.6335017
 103.6499987  51.9455006  80.8945017 101.6109987  52.1655006  81.3675017
 101.7819987  51.9385006  82.4155017 100.6369987  51.7685006  81.1035017
 101.5649987  53.2465006  81.2665017  58.5049987  99.7275006  81.8415017
  58.8799987  99.9935006  82.8245017  57.9129987  98.8235006  81.9465017
  57.8379987 100.5215006  81.5165017  59.6339987  99.5305006  80.8585017
  60.3149987  98.6925006  80.9985017  60.2499987 100.3825006  80.5855017
  58.6829987  99.2105006  79.7545017  57.7359987  99.0275006  80.2615017
  59.0229987  98.2415006  79.3935017  58.4339987 100.1525006  78.5065017
  59.3479987 100.6225006  78.1495017  57.7359987 100.9635006  78.7065017
  57.8809987  99.2755006  77.4085017  57.1099987  98.6405006  77.8375017
  58.6819987  98.6105006  77.0905017  57.3089987  99.9935006  76.1895017
  57.0709987 101.0205006  76.4605017  56.3669987  99.5265006  75.9095017
  58.2509987  99.9945006  74.9815017  57.6629987 100.1325006  74.0755017
  58.7169987  99.0135006  74.8965017  59.3399987 101.0665006  75.0445017
  59.8919987 100.9785006  75.9795017  58.8869987 102.0565006  75.0505017
  60.3219987 100.9655006  73.8635017  61.1009987 100.2665006  74.1595017
  60.8059987 101.9375006  73.7705017  59.7559987 100.5485006  72.4985017
  58.8709987 101.1535006  72.3125017  59.4089987  99.5185006  72.5825017
  60.7229987 100.6585006  71.3175017  61.4389987  99.8395006  71.3225017
  61.3109987 101.5735006  71.3595017  59.9539987 100.6155006  70.0055017
  59.3849987 101.5345006  69.8875017  59.2239987  99.8095006  70.0475017
  60.8599987 100.3935006  68.7845017  60.2339987 100.4525006  67.8955017
  61.2519987  99.3805006  68.8135017  62.0299987 101.3805006  68.6085017
  62.6659987 101.4235006  69.4865017  61.6639987 102.3895006  68.4355017
  62.8779987 100.9455006  67.3845017  62.2559987 100.8635006  66.5025017
  63.3449987  99.9855006  67.5715017  62.1459987 101.3515006  66.1035017
  61.8789987 102.4915006  65.7675017  61.8609987 100.2635006  65.4025017
  61.0379987 100.4585006  64.2335017  61.4109987  99.7635006  63.4965017
  61.1669987 101.4665006  63.8665017  59.5609987 100.1695006  64.5375017
  59.4669987  99.1955006  64.9885017  58.7449987 100.2255006  63.2465017
  57.8369987  99.6515006  63.3705017  59.3389987  99.7695006  62.4645017
  58.4419987 101.5655006  62.9175017  58.6119987 102.1115006  61.4685017
  60.2059987 102.2935006  61.4405017  60.8099987 103.5275006  61.8375017
  60.3109987 103.9695006  62.6895017  60.7329987 104.2475006  61.0275017
  62.3399987 103.3715006  62.1035017  62.4709987 102.6245006  62.8755017
  62.7639987 104.3045006  62.4475017  63.1979987 102.9275006  60.9565017
  64.6279987 103.0795006  61.3005017  64.7899987 104.0845006  61.6655017
  65.2059987 102.9205006  60.4015017  64.8919987 102.3355006  62.0375017
  62.8829987 101.4865006  60.6545017  61.8119987 101.3805006  60.5685017
  63.2779987 100.8685006  61.4415017  63.3559987 101.2425006  59.7145017
  62.8409987 103.7815006  59.7945017  61.7879987 103.6715006  59.5825017
  63.4179987 103.4715006  58.9355017  63.0619987 104.8135006  60.0245017
  58.1999987 101.0775006  60.5165017  57.9259987 103.4135006  61.3705017
  59.0759987 101.1605006  65.4935017  58.1219987 100.8105006  66.3245017
  57.7599987  99.7575006  66.6165017  57.3739987 101.6365006  67.1955017
  56.9219987 101.0425006  67.9835017  57.9939987 102.3745006  67.6975017
  56.3509987 102.2915006  66.3365017  56.7779987 102.9295006  65.5715017
  55.6959987 101.5985006  65.8185017  55.6049987 103.0775006  67.2255017
  54.8119987 103.6905006  66.8055017  55.1649987 102.5485006  68.0675017
  56.7649987 103.9895006  67.7585017  56.3359987 104.1115006  68.7515017
  57.4999987 103.1925006  67.8405017  57.4909987 105.3015006  67.3775017
  58.2799987 104.9865006  66.6985017  56.7619987 105.8325006  66.7685017
  58.0919987 106.3135006  68.4525017  59.0179987 106.6755006  68.0075017
  57.4119987 107.1605006  68.4785017  58.3619987 105.8645006  69.8755017
  58.6069987 106.6645006  70.5645017  57.5339987 105.3175006  70.3235017
  59.4909987 104.9485006  69.7075017  59.4529987 104.2365006  68.8965017
  60.5799987 104.9335006  70.4785017  61.3329987 104.2015006  70.2215017
  60.9319987 105.7805006  71.6535017  62.0059987 105.9515006  71.6035017
  60.4649987 106.7535006  71.5535017  60.6059987 105.2025006  73.0175017
  59.5509987 104.9435006  73.1045017  61.1599987 104.2825006  73.1945017
  60.9689987 106.2175006  74.0875017  61.8579987 106.7325006  73.7225017
  60.1719987 106.9555006  74.0935017  61.2169987 105.7355006  75.4935017
  61.3509987 106.5915006  76.1505017  60.3429987 105.2025006  75.8625017
  62.4359987 104.8205006  75.5755017  62.5499987 104.2495006  74.6555017
  63.3549987 105.3895006  75.6865017  62.2929987 103.8385006  76.7185017
  62.2859987 104.3735006  77.6665017  61.3309987 103.3335006  76.6495017
  63.3849987 102.7885006  76.7665017  63.4379987 102.1865006  75.8625017
  64.3629987 103.2535006  76.8705017  63.1449987 101.8815006  77.9665017
  63.9579987 101.1715006  78.0815017  62.2279987 101.3115006  77.8665017
  63.0769987 102.4585006  78.8845017  54.8409987   5.6305006  80.1075017
  54.8089987   6.0655006  81.1015017  53.9879987   6.0095006  79.5525017
  55.7399987   5.9935006  79.6175017  54.8279987   4.2635006  80.1625017
  53.9369987   3.7125006  80.4575017  55.6759987   3.6975006  80.5385017
  54.8789987   4.3355006  78.8245017  54.4239987   5.3125006  78.6585017
  54.1199987   3.6015006  78.5615017  55.9299987   4.1845006  77.9875017
  56.0099987   3.1445006  77.6805017  56.8629987   4.4205006  78.4965017
  55.8029987   5.0375006  76.7625017  55.7229987   6.0925006  77.0125017
  54.9019987   4.7855006  76.2055017  56.8869987   4.8555006  75.9665017
  56.7359987   3.7905006  75.8015017  57.6309987   4.9385006  76.7565017
  57.4129987   5.4655006  74.7415017  57.5369987   6.5035006  75.0465017
  56.5409987   5.4415006  74.0895017  58.6889987   5.0055006  73.9235017
  59.3539987   4.6265006  74.6985017  59.1189987   5.9465006  73.5875017
  58.6609987   4.0085006  72.7435017  59.2329987   3.2245006  73.2365017
  59.3669987   4.5485006  72.1135017  57.6239987   3.3965006  71.8965017
  56.6039987   3.6395006  72.1865017  57.6729987   2.3095006  71.8335017
  57.8979987   3.9255006  70.6795017  58.8659987   3.4535006  70.5275017
  58.1059987   4.9455006  70.9995017  57.2039987   3.9555006  69.4165017
  57.5169987   3.0345006  68.9305017  57.6919987   4.7655006  68.8775017
  55.7489987   4.1215006  69.2955017  55.4719987   5.0995006  69.6835017
  55.2309987   3.3915006  69.9115017  55.2389987   4.0215006  67.8795017
  55.5239987   3.0995006  67.3825017  55.5979987   4.8375006  67.2575017
  53.7199987   4.1015006  67.9545017  53.4129987   4.9985006  68.4765017
  53.3219987   3.2405006  68.4785017  52.8369987   3.6495006  66.8435017
  51.8039987   3.0235006  66.9805017  53.3299987   3.9515006  65.8435017
  52.5889987   4.3075006  64.6665017  51.8399987   3.6745006  65.1105017
  53.2869987   3.6915006  64.1185017  51.9439987   5.3285006  63.7635017
  50.9909987   5.4465006  64.2535017  51.7169987   4.9165006  62.1905017
  50.9529987   4.1515006  62.1665017  52.6439987   4.4855006  61.8415017
  51.3939987   5.9545006  61.4025017  50.0839987   6.5925006  61.8085017
  49.1909987   5.2755006  62.0445017  49.0329987   4.2695006  61.0355017
  49.4579987   3.3625006  61.4465017  49.5749987   4.5325006  60.1365017
  47.5619987   4.0385006  60.6705017  47.0179987   3.6815006  61.5325017
  47.1189987   4.9625006  60.3255017  47.4059987   2.9735006  59.6135017
  48.0239987   3.1195006  58.8325017  47.6809987   2.0415006  60.1095017
  46.4619987   2.9135006  59.2725017  50.2639987   7.4105006  63.0135017
  49.7789987   7.2515006  60.5505017  52.6359987   6.5395006  63.7615017
  52.2689987   7.2475006  64.8225017  51.6829987   6.8755006  65.8125017
  53.1149987   8.4515006  64.7485017  54.1379987   8.2285006  65.0355017
  53.1719987   8.8705006  63.7465017  52.4439987   9.4375006  65.7255017
  52.7219987  10.4305006  65.3915017  51.3729987   9.3565006  65.5665017
  52.7499987   9.3085006  67.1745017  52.2059987   8.4335006  67.5225017
  53.8049987   9.0495006  67.2235017  52.4989987  10.4685006  68.0925017
  52.8949987  10.3795006  69.1025017  52.7629987  11.4655006  67.7495017
  51.0179987  10.3605006  68.1595017  50.6099987  11.3465006  68.3725017
  50.6609987  10.0935006  67.1665017  50.4439987   9.3195006  69.1995017
  49.4629987   9.7015006  69.4775017  50.2699987   8.3985006  68.6495017
  51.2439987   8.9875006  70.4785017  52.1279987   8.4075006  70.2385017
  51.5969987   9.9055006  70.9455017  50.3269987   8.2255006  71.4995017
  49.2949987   8.5285006  71.5915017  50.7219987   7.2325006  72.2445017
  50.1229987   6.6855006  72.9585017  52.1049987   6.7655006  72.1435017
  52.2179987   5.9295006  71.4555017  52.8429987   7.5035006  71.8485017
  52.4139987   6.2785006  73.5285017  51.6239987   5.5745006  73.7875017
  53.3259987   5.6915006  73.4385017  52.5789987   7.2835006  74.6435017
  53.1539987   8.1395006  74.2905017  51.6119987   7.6735006  74.9495017
  53.2779987   6.6725006  75.8395017  52.7889987   5.7285006  76.0685017
  54.2989987   6.4245006  75.5545017  53.3029987   7.5505006  77.0665017
  53.6029987   6.8995006  77.8855017  54.1269987   8.2445006  76.9215017
  52.0509987   8.3095006  77.5045017  52.3509987   9.1195006  78.1675017
  51.6119987   8.7835006  76.6285017  51.0079987   7.5155006  78.1775017
  49.9809987   7.8235006  77.9945017  51.0469987   6.4555006  77.9365017
  51.3279987   7.6895006  79.6235017  50.6769987   7.0755006  80.2385017
  51.2039987   8.7185006  79.9455017  52.3529987   7.3985006  79.8345017
   7.0979987  38.2065006  78.3315017   6.9349987  37.1565006  78.5525017
   6.6959987  38.7855006  79.1585017   8.1709987  38.3755006  78.3025017
   6.4819987  38.5805006  77.0865017   5.3979987  38.4855006  77.0565017
   6.8579987  38.0615006  76.2085017   6.8459987  40.0085006  77.0265017
   7.9289987  40.0205006  76.9065017   6.6499987  40.3835006  78.0295017
   6.1449987  41.0785006  75.9045017   5.6879987  40.2855006  75.3165017
   7.0889987  41.3115006  75.4135017   5.0249987  42.5885006  75.8505017
   4.2049987  42.4055006  76.5395017   4.5869987  42.6105006  74.8535017
   5.6179987  43.9085006  76.1515017   6.4779987  43.8445006  75.4875017
   5.9879987  43.6865006  77.1505017   5.0529987  45.3585006  76.1235017
   5.6499987  46.0325006  76.7345017   4.0409987  45.4015006  76.5235017
   5.0469987  45.8435006  74.7245017   6.0429987  46.2195006  74.4955017
   4.3779987  46.7005006  74.6685017   4.6349987  44.8025006  73.6525017
   3.5619987  44.6285006  73.7025017   5.1079987  43.8455006  73.8685017
   4.9919987  45.2215006  72.3085017   4.4629987  46.1545006  72.1285017
   4.5579987  44.4895006  71.6275017   6.3859987  45.3805006  72.0045017
   7.0389987  44.7235006  72.5745017   6.7729987  46.3885006  72.1455017
   6.4909987  45.0065006  70.5475017   5.9299987  45.6955006  69.9215017
   6.0659987  44.0205006  70.3705017   7.9039987  44.9885006  70.1405017
   8.4499987  44.5815006  70.9905017   8.2199987  46.0235006  70.0445017
   8.3279987  44.2275006  68.9065017   8.1609987  43.1645006  69.0435017
   9.3959987  44.3615006  68.7545017   7.6359987  44.6675006  67.7175017
   7.7609987  45.7335006  67.5795017   6.5779987  44.4485006  67.7935017
   8.0849987  44.1095006  66.3675017   7.2989987  43.8745006  65.4775017
   9.3989987  44.0375006  66.2385017   9.5859987  43.3785006  64.9555017
  10.4509987  43.7915006  64.4635017   8.6999987  43.6375006  64.3945017
   9.7209987  41.8975006  65.0885017  10.2099987  41.6365006  66.0125017
  10.4289987  41.2615006  63.9235017  10.6249987  40.2345006  64.1995017
  11.3779987  41.7825006  63.8495017   9.7109987  41.3285006  62.6685017
   9.9549987  42.2955006  61.4135017   8.8169987  42.3575006  60.5215017
   8.2819987  41.1365006  60.1735017   9.0129987  40.3365006  60.1225017
   7.8109987  41.2175006  59.2075017   7.1979987  40.8095006  61.1825017
   7.6079987  40.4795006  62.1255017   6.5109987  39.6815006  60.5665017
   5.6239987  40.0895006  60.2655017   7.0469987  39.2485006  59.7855017
   6.2989987  38.9675006  61.2385017   6.2579987  41.9915006  61.4335017
  10.2709987  43.6235006  61.8875017  10.7719987  41.5455006  60.3965017
   8.4669987  41.3675006  65.0415017   8.4169987  40.2145006  65.5045017
   9.1999987  39.6435006  66.2445017   5.0369987  41.8505006  61.1255017
   6.7509987  42.9965006  61.9885017   7.0799987  39.8215006  65.2555017
   6.4179987  40.5195006  64.7535017   6.8629987  38.8455006  64.8275017
   6.8689987  39.8185006  66.7495017   6.0079987  39.1665006  66.8475017
   7.7209987  39.2435006  67.0975017   6.6659987  41.0825006  67.6675017
   7.6499987  41.5385006  67.7365017   6.0619987  41.7555006  67.0635017
   6.0209987  40.9765006  69.0935017   6.3599987  41.8185006  69.6935017
   4.9389987  41.0655006  69.0275017   6.3709987  39.6685006  69.8475017
   5.8109987  39.6415006  70.7805017   6.0099987  38.8315006  69.2535017
   7.7779987  39.4665006  70.1255017   7.9749987  38.5595006  70.6945017
   8.4039987  39.4145006  69.2395017   8.1959987  40.6735006  70.9455017
   9.2789987  40.7025006  70.9715017   7.8779987  41.5635006  70.4045017
   7.6169987  40.7225006  72.3365017   6.5419987  40.8035006  72.2865017
   8.1599987  40.6745006  73.5345017   7.3569987  40.7295006  74.2545017
   9.4669987  40.5705006  74.1215017   9.5589987  40.5845006  75.2065017
  10.2279987  39.8865006  73.7615017   9.7319987  41.8445006  73.6475017
  10.6959987  42.0295006  74.1185017   9.9429987  41.6145006  72.6045017
   8.7709987  43.2675006  73.7285017   9.1219987  44.0205006  73.0225017
   7.7349987  43.0685006  73.4695017   8.8419987  43.8435006  75.1665017
   8.8899987  44.9155006  74.9865017   7.8459987  43.6455006  75.5595017
   9.8939987  43.4385006  76.2195017   9.7439987  42.4735006  76.7005017
  10.9389987  43.4635006  75.9225017   9.6259987  44.4985006  77.2275017
   8.7789987  45.0515006  76.8255017   9.2509987  43.9595006  78.0955017
  10.7209987  45.5385006  77.7155017   9.8669987  46.0375006  78.1665017
  10.9899987  44.7365006  78.3985017  12.0579987  46.6575006  77.6095017
  12.3519987  47.0015006  78.5965017  11.8079987  47.5335006  77.0205017
  12.9239987  46.1885006  77.1515017  97.1299987  67.9925006  81.8325017
  96.7069987  67.1495006  82.3695017  96.3069987  68.5915006  81.4535017
  97.6759987  68.6005006  82.5485017  98.0179987  67.5385006  80.7285017
  97.4369987  66.9065006  80.0595017  98.7889987  66.9025006  81.1565017
  98.6319987  68.6255006  79.9545017  99.2209987  69.2755006  80.6015017
  97.8579987  69.2545006  79.5195017  99.5099987  68.1045006  78.8395017
 100.3049987  67.4815006  79.2435017 100.0039987  68.9195006  78.3125017
  98.7069987  67.2855006  77.8545017  97.6719987  67.6165006  77.8265017
  98.6859987  66.2425006  78.1655017  99.2979987  67.3805006  76.4395017
 100.3779987  67.2505006  76.4685017  99.1219987  68.3675006  76.0175017
  98.7079987  66.3605006  75.5525017  98.9049987  65.3685006  75.9545017
  99.1959987  66.3965006  74.5795017  97.1679987  66.5435006  75.3645017
  96.7779987  66.5255006  76.3815017  96.8489987  65.6125006  74.8995017
  96.5799987  67.6665006  74.6435017  97.0749987  67.7825006  73.6815017
  96.7619987  68.5895006  75.1925017  95.0619987  67.4985006  74.4195017
  94.6399987  66.8645006  75.1955017  94.8749987  66.9905006  73.4745017
  94.3509987  68.8615006  74.4095017  94.3159987  69.2415006  75.4285017
  93.3159987  68.7245006  74.1025017  95.0059987  69.9255006  73.5195017
  96.0759987  69.7305006  73.5085017  94.8769987  70.8855006  74.0165017
  94.4769987  70.0405006  72.0895017  94.7829987  71.0105006  71.7005017
  93.3909987  70.0515006  72.1115017  94.9429987  68.9735006  71.1095017
  94.4389987  68.0215006  71.2385017  96.0089987  68.7795006  71.1955017
  94.6529987  69.5155006  69.6825017  95.1189987  70.4825006  69.5425017
  93.5859987  69.6185006  69.5275017  95.1639987  68.5845006  68.5945017
  95.7409987  67.5435006  68.8285017  94.7749987  69.0155006  67.3925017
  94.9609987  68.1095006  66.2725017  93.9829987  68.0165006  65.8245017
  95.2569987  67.1515006  66.6755017  95.9919987  68.6145006  65.2185017
  95.6009987  69.4665006  64.6875017  96.3729987  67.4815006  64.2025017
  95.4479987  67.0475006  63.8485017  96.9029987  66.7395006  64.7865017
  97.1769987  67.9165006  63.0995017  96.5319987  68.5675006  61.8085017
  97.7479987  69.2735006  61.0795017  98.9859987  68.6465006  60.8055017
  98.8889987  67.7725006  60.1755017  99.4519987  68.3115006  61.7275017
  99.9829987  69.6685006  60.1925017  99.5719987  69.9495006  59.2305017
 100.9259987  69.1665006  60.0335017 100.3179987  70.9735006  60.8965017
 100.7579987  70.7335006  62.3155017 100.0229987  70.1085006  62.8035017
 100.8109987  71.6895006  62.8145017 101.7349987  70.2745006  62.3065017
 101.4149987  71.6145006  60.1435017 101.1469987  71.6355006  59.0985017
 102.3219987  71.0605006  60.3055017 101.5199987  72.6215006  60.5195017
  99.0939987  71.8185006  60.8895017  98.7809987  71.9825006  59.8695017
  99.3149987  72.7665006  61.3575017  98.3079987  71.3195006  61.4375017
  96.0269987  67.4475006  60.9855017  95.5439987  69.6015006  62.1875017
  97.1429987  69.0345006  65.9485017  97.9689987  69.8965006  65.4305017
  97.9289987  70.4565006  64.3535017  99.0179987  70.1635006  66.5105017
  99.5099987  69.2195006  66.7215017  99.7879987  70.8165006  66.1075017
  98.3799987  70.7715006  67.7655017  97.7059987  71.5665006  67.4665017
  97.7639987  70.0255006  68.2575017  99.3929987  71.3225006  68.7385017
 100.1639987  70.6015006  68.9965017  99.9109987  72.1855006  68.3275017
  98.6349987  71.7615006  70.0065017  97.9099987  72.5255006  69.7325017
  98.0619987  70.9305006  70.4115017  99.5189987  72.3145006  71.0895017
 100.1669987  71.4645006  71.2945017 100.1199987  73.0245006  70.5235017
  99.1089987  72.9615006  72.3985017  99.9599987  73.4195006  72.8995017
  98.3739987  73.7495006  72.2625017  98.5339987  71.9285006  73.2655017
  97.9779987  72.4215006  74.0545017  97.8049987  71.3735006  72.6775017
  99.5369987  70.9555006  73.8335017  99.3689987  69.9265006  73.5535017
 100.5809987  71.2065006  74.6055017 101.2389987  70.4275006  74.9615017
 100.9499987  72.5415006  75.0465017 101.9259987  72.4085006  75.5095017
 101.1159987  73.1335006  74.1535017 100.0319987  73.3495006  76.0495017
 100.4719987  74.3445006  76.1085017  99.0839987  73.4675006  75.5285017
  99.7609987  72.8115006  77.4955017  99.2419987  71.8575006  77.4045017
 100.7169987  72.5935006  77.9635017  98.9469987  73.7455006  78.4055017
  98.7959987  73.2535006  79.3635017  99.5289987  74.6425006  78.6125017
  97.6019987  74.1455006  77.8075017  97.0279987  74.6905006  78.5545017
  97.7559987  74.8405006  76.9865017  96.7609987  72.9635006  77.3405017
  95.8479987  73.3015006  76.8535017  97.2979987  72.3745006  76.5995017
  96.3859987  72.0595006  78.4905017  97.2609987  71.7135006  79.0365017
  95.7879987  72.6135006  79.2105017  95.6029987  70.8895006  78.0205017
  95.2619987  70.2915006  78.8605017  96.1889987  70.2415006  77.3765017
  94.7269987  71.2055006  77.4615017 104.8569987  44.9315006  80.9965017
 105.0829987  45.9695006  80.7745017 105.5709987  44.3155006  80.4575017
 105.0239987  44.7765006  82.0585017 103.2359987  44.5355006  80.5595017
 103.1389987  44.7685006  79.5005017 102.6029987  45.2435006  81.0875017
 102.7419987  43.0895006  80.8095017 103.2359987  42.7255006  81.7105017
 103.1199987  42.4805006  79.9915017 101.1709987  42.8465006  80.9365017
 100.9349987  42.9385006  81.9945017 100.9899987  41.8045006  80.6765017
 100.2099987  43.7465006  80.1375017 100.1509987  44.7465006  80.5605017
  99.1979987  43.3455006  80.1575017 100.6759987  43.8475006  78.7105017
 100.7199987  42.8405006  78.3005017 101.6989987  44.2185006  78.7175017
  99.8299987  44.7245006  77.7985017  99.7309987  45.7205006  78.2265017
  98.8199987  44.3225006  77.7275017 100.4279987  44.8355006  76.3975017
 100.3389987  43.8555006  75.9305017 101.4939987  45.0205006  76.5145017
  99.8309987  45.8965006  75.4655017 100.6089987  46.2525006  74.7935017
  99.5269987  46.7565006  76.0605017  98.6419987  45.4065006  74.6465017
  97.8779987  45.1235006  75.3675017  98.9629987  44.4845006  74.1625017
  98.0439987  46.3495006  73.5895017  97.8519987  47.3005006  74.0815017
  97.0699987  45.9545006  73.3045017  98.8709987  46.6175006  72.3255017
  99.2879987  45.6655006  72.0045017  99.7169987  47.2345006  72.6245017
  98.1489987  47.3075006  71.1455017  97.3629987  47.9445006  71.5495017
  97.6509987  46.5625006  70.5315017  99.0389987  48.1655006  70.2605017
  99.4749987  48.9685006  70.8465017  98.4219987  48.6325006  69.4975017
 100.1759987  47.3695006  69.5585017  99.7659987  46.5415006  68.9935017
 100.8719987  46.9795006  70.2915017 100.9669987  48.2615006  68.6075017
 100.7239987  49.4355006  68.3895017 101.8609987  47.5455006  68.0095017
 102.5499987  48.2325006  66.9525017 103.3019987  48.9255006  67.2975017
 101.8029987  48.7735006  66.3905017 103.1989987  47.1225006  66.0885017
 103.9699987  47.5625006  65.4775017 102.2279987  46.3625006  65.2205017
 101.7749987  47.0215006  64.4925017 101.4479987  45.9525006  65.8505017
 102.9429987  45.3145006  64.5685017 102.2969987  44.5205006  63.3775017
 102.0429987  45.6715006  62.3015017 103.1389987  46.1395006  61.5165017
 104.0729987  46.0555006  62.0575017 102.9979987  47.1965006  61.3085017
 103.2389987  45.4545006  60.1115017 103.3779987  44.3925006  60.2665017
 104.0839987  45.8375006  59.5575017 102.0439987  45.5835006  59.1895017
 100.8929987  44.7015006  59.5475017 101.2559987  43.6895006  59.6625017
 100.1779987  44.7415006  58.7385017 100.4359987  45.0715006  60.4535017
 101.6209987  47.0005006  59.1255017 102.4879987  47.6085006  58.9175017
 101.1639987  47.2735006  60.0605017 100.9059987  47.0885006  58.3205017
 102.4449987  45.2455006  57.8005017 103.2409987  45.9055006  57.4895017
 101.5959987  45.3705006  57.1455017 102.7829987  44.2205006  57.7625017
 103.2529987  43.5505006  62.8185017 100.9719987  43.9885006  63.7655017
 103.7289987  46.0835006  66.9685017 104.7819987  46.5625006  67.4395017
 105.2199987  47.6535006  67.0215017 105.3729987  45.5235006  68.5065017
 104.8779987  44.5895006  68.2615017 106.4169987  45.3855006  68.2375017
 105.2309987  45.8695006  69.9555017 106.1419987  45.5065006  70.4175017
 105.2839987  46.9525006  69.9985017 104.0489987  45.3835006  70.7495017
 103.1669987  45.5275006  70.1305017 104.1739987  44.3085006  70.8535017
 103.8199987  45.9835006  72.1365017 103.0639987  45.3315006  72.5685017
 104.7409987  45.7815006  72.6785017 103.4229987  47.3735006  72.3785017
 104.2029987  48.0735006  72.0865017 102.5459987  47.6345006  71.7895017
 103.0899987  47.5725006  73.8735017 103.1759987  48.6515006  73.7585017
 102.0449987  47.3275006  73.7035017 103.4539987  47.1875006  75.3035017
 102.6159987  47.3675006  75.9665017 103.6599987  46.1195006  75.3525017
 104.6269987  47.9045006  75.7415017 105.1379987  47.8685006  74.7915017
 105.2379987  48.5175006  76.7255017 106.2999987  48.5155006  76.9265017
 104.5239987  49.2315006  77.5905017 104.9289987  50.2285006  77.4255017
 103.5289987  49.2325006  77.1585017 104.4239987  49.0015006  79.0855017
 105.3979987  48.7835006  79.5215017 104.0599987  49.8945006  79.5895017
 103.4789987  47.8535006  79.3625017 104.0639987  47.0055006  79.0065017
 103.5039987  47.8055006  80.4475017 101.9839987  47.7025006  78.8625017
 102.1199987  47.6555006  77.7845017 101.7379987  46.6915006  79.1825017
 100.7859987  48.6635006  79.2115017 100.9669987  49.6025006  78.6915017
  99.8879987  48.2455006  78.7655017 100.5459987  48.9735006  80.6435017
 101.4089987  49.5025006  81.0445017  99.7069987  49.6625006  80.7215017
 100.2709987  47.7965006  81.5075017  99.4859987  47.1555006  81.1135017
 101.1539987  47.1665006  81.5895017  99.8859987  48.2715006  82.8855017
  99.7649987  47.4315006  83.5625017  98.9509987  48.8205006  82.8785017
 100.6489987  48.9235006  83.3005017  59.0739987   3.5225006  79.5575017
  58.3809987   3.2235006  80.3375017  60.0189987   3.7705006  80.0315017
  59.2429987   2.6605006  78.9175017  58.5489987   4.6655006  78.7825017
  58.3699987   5.3185006  79.6345017  57.5929987   4.2075006  78.5425017
  59.0069987   5.4455006  77.6835017  59.8039987   6.1545006  77.9065017
  58.2319987   6.0145006  77.1745017  59.5659987   4.3175006  76.6685017
  60.3309987   3.8745006  77.3025017  60.0939987   4.9535006  75.9595017
  58.7999987   3.1185006  75.8555017  57.8849987   3.5675006  75.4765017
  58.4969987   2.4155006  76.6295017  59.4359987   2.4095006  74.8005017
  60.2489987   1.7755006  75.1505017  59.8659987   3.0685006  74.0495017
  58.3029987   1.4925006  74.1155017  57.4979987   2.0865006  73.6865017
  57.8349987   0.8165006  74.8295017  58.9529987   0.6955006  73.0385017
  58.1349987   0.0485006  72.7225017  59.6329987   0.0675006  73.6115017
  59.6889987   1.2355006  71.7875017  60.6109987   0.6845006  71.6145017
  59.9789987   2.2755006  71.9295017  58.8069987   1.1265006  70.5705017
  58.0059987   1.8145006  70.8325017  58.3989987   0.1235006  70.6885017
  59.2149987   1.3315006  69.1215017  59.7539987   0.4575006  68.7635017
  59.9049987   2.1695006  69.0335017  57.9929987   1.5715006  68.1855017
  57.8749987   2.6515006  68.2165017  57.1659987   1.1585006  68.7615017
  57.8879987   1.0965006  66.8165017  57.8239987   0.0105006  66.8525017
  58.8109987   1.3295006  66.2925017  56.7269987   1.6015006  66.0105017
  56.7989987   1.2375006  64.9905017  56.7819987   2.6855006  65.9625017
  55.3619987   1.2065006  66.5915017  55.2799987   1.5305006  67.6215017
  55.2329987   0.1315006  66.5545017  54.2819987   1.1555006  65.6175017
  53.3349987   0.3845006  65.4535017  54.6629987   2.0245006  64.8435017
  53.6489987   2.2395006  63.9395017  52.9209987   2.5915006  64.6545017
  53.2119987   1.4445006  63.3525017  54.2209987   3.6595006  62.8345017
  53.2599987   4.0455006  62.5385017  54.8369987   3.0315006  61.7465017
  55.3729987   3.6805006  61.0675017  54.1719987   2.4005006  61.1705017
  55.7219987   2.2595006  62.4775017  56.8599987   1.7805006  61.5825017
  57.5979987   3.1375006  61.3575017  57.8859987   4.0345006  62.4215017
  58.2609987   3.5725006  63.3255017  57.0139987   4.6145006  62.7105017
  58.8739987   5.0455006  61.8775017  59.6989987   4.4575006  61.4955017
  59.2419987   5.6915006  62.6615017  58.4639987   5.9555006  60.7505017
  57.2269987   6.6775006  61.1595017  56.5029987   5.9535006  61.5075017
  56.8389987   7.1915006  60.2925017  57.4779987   7.3965006  61.9255017
  59.5109987   6.9705006  60.4745017  60.4599987   6.4665006  60.3765017
  59.5269987   7.6855006  61.2775017  59.2519987   7.4565006  59.5455017
  58.2429987   5.2465006  59.4625017  59.1489987   4.7315006  59.1805017
  57.9839987   5.9665006  58.7015017  57.4379987   4.5355006  59.5755017
  57.6879987   0.8835006  62.3965017  56.1929987   1.3185006  60.3345017
  54.9779987   4.9425006  63.5125017  54.9329987   5.8155006  64.7305017
  54.1599987   5.9615006  65.6015017  55.9649987   6.5215006  65.2105017
  56.8349987   5.8785006  65.2945017  56.2499987   7.3205006  64.5295017
  55.5139987   7.1085006  66.6325017  54.8659987   7.9735006  66.5465017
  54.9799987   6.3945006  67.2515017  56.7599987   7.5065006  67.2935017
  56.6929987   8.5795006  67.1315017  56.4519987   7.3355006  68.3215017
  58.0829987   7.0815006  67.1485017  58.3259987   6.5785006  66.2145017
  58.8769987   7.8045006  67.3195017  58.1049987   6.1695006  68.1385017
  57.2739987   5.4705006  68.0725017  59.0109987   5.5675006  68.1005017
  58.0589987   6.8385006  69.3855017  58.6419987   7.7325006  69.1665017
  57.0209987   7.1545006  69.4395017  58.4389987   6.3325006  70.6345017
  58.2369987   5.2845006  70.4445017  59.5169987   6.4595006  70.5385017
  58.0579987   6.6935006  71.9385017  58.8779987   7.0905006  72.5185017
  56.8819987   6.6295006  72.5275017  57.0389987   7.0475006  73.5115017
  55.4989987   6.1935006  72.2745017  54.9419987   6.8625006  72.9285017
  55.3059987   6.5295006  71.2615017  54.9369987   4.7565006  72.4565017
  54.0069987   4.7625006  71.8895017  55.6319987   4.1375006  71.8925017
  54.6979987   4.1265006  73.8155017  55.6089987   4.2295006  74.4055017
  53.9329987   4.6955006  74.3365017  54.3049987   2.6985006  73.7695017
  53.6959987   2.4965006  72.8915017  55.1779987   2.0525006  73.6895017
  53.5679987   2.3595006  74.9725017  52.6799987   2.9845006  75.0405017
  53.2069987   1.3365006  74.9145017  54.3039987   2.5375006  76.1315017
  54.8209987   1.6465006  76.4845017  55.0579987   3.3205006  76.0725017
  53.1609987   2.9835006  77.2825017  53.6389987   3.9365006  77.4955017
  52.4049987   3.1935006  76.5295017  52.4049987   2.4225006  78.6565017
  51.6389987   3.1175006  78.9865017  53.1009987   2.2925006  79.4785017
  51.9259987   1.4645006  78.4755017   2.5799987  55.0525006  77.9535017
   1.5869987  55.3535006  78.2715017   3.0759987  54.5945006  78.8045017
   2.4649987  54.2885006  77.1895017   3.3779987  56.2435006  77.4235017
   3.4489987  57.0005006  78.2025017   2.8269987  56.6985006  76.6055017
   4.7889987  55.8625006  76.9605017   4.7689987  54.8785006  76.4925017
   5.4339987  55.7685006  77.8315017   5.4229987  56.8695006  75.9925017
   6.4429987  56.5695006  75.7625017   5.4949987  57.8535006  76.4525017
   4.6369987  56.9785006  74.6805017   3.6989987  57.5015006  74.8465017
   4.3729987  55.9805006  74.3335017   5.4219987  57.7035006  73.5845017
   4.7929987  57.6965006  72.6955017   6.2829987  57.0795006  73.3535017
   5.8959987  59.1375006  73.8595017   6.4259987  59.5085006  72.9835017
   6.6229987  59.1195006  74.6705017   4.7849987  60.0915006  74.2095017
   5.1069987  61.1285006  74.2905017   4.2809987  59.8555006  75.1445017
   3.7869987  59.9605006  73.0505017   3.2869987  58.9955006  73.1025017
   4.3209987  59.9745006  72.1015017   2.8019987  61.0095006  73.0565017
   3.3999987  61.8335006  73.4395017   2.1669987  60.6845006  73.8805017
   1.9069987  61.5015006  71.8845017   2.4869987  62.1595006  71.2415017
   1.0849987  62.1025006  72.2695017   1.3759987  60.4305006  71.0775017
   0.6569987  59.7835006  71.5745017   2.1279987  59.7735006  70.6445017
   0.7369987  61.1565006  70.0175017   1.2589987  62.0075006  69.5835017
  -0.3070013  61.4465006  70.0935017   0.8579987  59.9855006  69.0475017
   1.7829987  59.4735006  69.2925017   0.9959987  60.4315006  68.0665017
  -0.3680013  58.8805006  68.9555017  -1.3080013  59.3745006  68.7445017
  -0.4610013  58.3405006  69.8905017  -0.9730013  58.0855006  67.5815017
  -2.0050013  58.1465006  66.8905017   0.1649987  57.7435006  67.1565017
   0.2669987  57.1615006  65.8875017  -0.6510013  56.6215006  65.7095017
   1.0699987  56.4535006  66.0365017   0.5809987  58.1275006  64.6715017
  -0.3030013  58.6555006  64.3555017   1.0889987  57.2475006  63.5405017
   1.0979987  57.7775006  62.5975017   0.4539987  56.3765006  63.4425017
   2.4089987  56.8605006  63.9075017   3.3049987  55.7965006  63.2335017
   2.9139987  56.0035006  61.7005017   3.8299987  55.6645006  60.6475017
   3.7699987  54.6245006  60.3545017   4.8529987  55.8355006  60.9695017
   3.6249987  56.6055006  59.4185017   2.5509987  56.6685006  59.2945017
   4.0579987  56.2265006  58.5045017   4.1089987  58.0325006  59.5475017
   3.4969987  58.6895006  60.7585017   2.4259987  58.5465006  60.7245017
   3.7249987  59.7445006  60.7165017   3.9329987  58.2595006  61.6485017
   5.5919987  57.9455006  59.6385017   5.9489987  57.3235006  58.8325017
   5.8619987  57.5395006  60.5975017   5.9809987  58.9475006  59.5335017
   3.8579987  58.8535006  58.3205017   4.3489987  58.3915006  57.4765017
   4.2549987  59.8465006  58.4705017   2.7949987  58.9135006  58.1375017
   4.7309987  56.1635006  63.3755017   2.7969987  54.4895006  63.7015017
   1.6519987  59.0445006  64.9435017   2.0079987  59.9835006  64.0435017
   1.5179987  60.1585006  62.9515017   3.0949987  60.9485006  64.5735017
   3.7009987  61.2915006  63.7405017   2.6469987  61.8415006  65.0025017
   3.9139987  60.2055006  65.5985017   4.6249987  60.8825006  66.0595017
   3.2789987  59.8445006  66.4015017   4.6549987  59.0625006  64.9845017
   3.9599987  58.2865006  64.6735017   5.1519987  59.4045006  64.0795017
   5.7109987  58.4755006  65.9315017   6.3369987  57.7595006  65.4025017
   6.3819987  59.2385006  66.3185017   5.0399987  57.7495006  67.1225017
   4.3789987  58.4705006  67.5995017   4.3949987  56.9885006  66.6875017
   5.9359987  57.0835006  68.1975017   6.3139987  56.1465006  67.7925017
   6.8039987  57.7105006  68.3805017   5.2249987  56.8075006  69.5565017
   5.9649987  56.5855006  70.3165017   4.7159987  57.7145006  69.8805017
   4.2039987  55.6925006  69.4455017   4.6279987  54.7415006  69.1605017
   2.8629987  55.7315006  69.6645017   2.2859987  54.8265006  69.5405017
   2.0519987  56.9205006  70.0775017   2.6629987  57.8025006  69.8945017
   1.1809987  57.0165006  69.4395017   1.6089987  56.9385006  71.5545017
   2.3999987  56.5005006  72.1625017   1.5239987  57.9765006  71.8695017
   0.2659987  56.2045006  71.8435017  -0.5250013  56.8125006  71.4045017
   0.2809987  55.2735006  71.2825017  -0.0800013  55.9095006  73.3225017
  -1.1000013  55.5415006  73.4105017   0.5609987  55.1275006  73.7265017
   0.0839987  57.1355006  74.1255017   1.1059987  57.4525006  73.9275017
  -0.5540013  57.8695006  73.6405017  -0.1360013  57.1715006  75.6475017
  -1.1440013  56.8365006  75.8855017   0.5379987  56.4695006  76.1345017
   0.0739987  58.5455006  76.2615017   1.1189987  58.8465006  76.2525017
  -0.4560013  59.2975006  75.6815017  -0.3530013  58.5675006  77.4285017
  -0.2870013  59.5685006  77.8445017   0.2109987  57.9075006  78.0795017
  -1.3940013  58.2605006  77.4695017  91.3289987  89.0465006  79.7965017
  90.6459987  89.8095006  80.1565017  92.3279987  89.3115006  80.1315017
  91.0599987  88.1095006  80.2755017  91.2699987  88.9205006  78.2535017
  91.4759987  89.9415006  77.9385017  90.2079987  88.7595006  78.0925017
  92.1029987  87.9335006  77.3735017  91.7339987  87.9635006  76.3485017
  91.9289987  86.9195006  77.7265017  93.6269987  88.1985006  77.3755017
  94.1249987  87.2395006  77.5025017  93.8699987  88.7845006  78.2605017
  94.1719987  88.8515006  76.2035017  95.1089987  89.3765006  76.3705017
  93.4949987  89.5715006  75.7465017  94.4169987  87.6975006  75.2255017
  93.4849987  87.1695006  75.0305017  95.0919987  86.9685006  75.6685017
  94.9699987  88.1615006  73.9815017  95.4669987  87.3775006  73.4125017
  95.7029987  88.9575006  74.1065017  93.7749987  88.6945006  73.1735017
  93.3469987  89.5905006  73.6205017  92.9659987  87.9685006  73.1125017
  94.2239987  88.9925006  71.8855017  94.3259987  87.9785006  71.5035017
  95.2309987  89.3275006  72.1305017  93.6459987  89.8905006  70.7905017
  94.3679987  90.5525006  70.3175017  92.8159987  90.5215006  71.1075017
  93.1669987  88.9215006  69.8365017  92.5049987  88.2835006  70.4185017
  94.0399987  88.3155006  69.6015017  92.4579987  89.2975006  68.5505017
  91.4489987  89.5975006  68.8245017  92.3569987  88.3795006  67.9745017
  93.0839987  90.3355006  67.6855017  93.5349987  91.0075006  68.4135017
  92.2329987  90.8655006  67.2675017  94.0149987  90.1075006  66.6785017
  95.0209987  90.0905006  67.0845017  93.9789987  90.9245006  65.9625017
  93.7189987  88.6425006  65.8485017  92.7079987  88.6235006  65.4625017
  93.8529987  87.7975006  66.5135017  94.5769987  87.8535006  64.5765017
  95.1839987  88.3675006  63.6285017  95.0629987  86.6945006  65.0455017
  96.1179987  86.1815006  64.1715017  96.8249987  85.5975006  64.7405017
  96.6569987  86.8825006  63.5515017  95.2529987  85.2835006  63.3395017
  95.8589987  84.6465006  62.7165017  94.2089987  86.1035006  62.4305017
  93.9139987  85.4055006  61.6585017  94.8279987  86.8715006  61.9845017
  93.0329987  86.6985006  63.0585017  92.4099987  88.1065006  62.5265017
  91.6029987  87.5175006  61.3175017  90.4359987  86.7585006  61.5685017
  90.4219987  86.2955006  62.5465017  90.3379987  85.9535006  60.8455017
  89.1829987  87.6515006  61.3565017  89.3139987  88.5265006  61.9805017
  88.3139987  87.1085006  61.6985017  88.8269987  88.1815006  59.9675017
  88.5689987  87.1225006  58.9525017  89.3969987  86.4265006  58.9615017
  88.5029987  87.5975006  57.9845017  87.6319987  86.6375006  59.1825017
  87.6089987  89.0325006  60.1595017  87.7959987  89.7205006  60.9695017
  86.7669987  88.3975006  60.3685017  87.4469987  89.5775006  59.2405017
  89.9569987  89.0125006  59.4585017  90.1409987  89.8225006  60.1485017
  89.6949987  89.4135006  58.4905017  90.8429987  88.4005006  59.3685017
  91.5059987  88.6705006  63.5605017  93.4449987  89.0075006  62.0185017
  94.6349987  84.4405006  64.2975017  93.6479987  83.7815006  63.8675017
  93.3169987  83.5245006  62.7225017  93.0209987  83.1525006  64.9955017
  92.4419987  82.3475006  64.5545017  93.8249987  82.6725006  65.5485017
  92.1809987  84.0215006  65.9015017  92.7539987  84.9075006  66.1505017
  91.3129987  84.3705006  65.3505017  91.7309987  83.3285006  67.2045017
  92.5439987  82.6705006  67.4995017  91.6899987  84.1145006  67.9545017
  90.4319987  82.5805006  67.2245017  89.6979987  83.2025006  66.7155017
  90.5389987  81.6825006  66.6205017  89.8519987  82.1805006  68.6315017
  89.0549987  81.4495006  68.5105017  90.6309987  81.6875006  69.2105017
  89.3309987  83.3675006  69.4295017  90.1619987  84.0325006  69.6605017
  88.6329987  83.9455006  68.8295017  88.6559987  82.9685006  70.6925017
  88.2019987  83.8365006  71.1565017  87.8419987  82.2825006  70.4615017
  89.6139987  82.2805006  71.6415017  89.8029987  81.2265006  71.5075017
  90.2349987  82.8685006  72.5975017  90.8919987  82.3035006  73.2435017
  90.1539987  84.2785006  72.9235017  91.1229987  84.7245006  72.7055017
  89.4379987  84.7805006  72.2825017  89.8149987  84.5645006  74.3825017
  90.4009987  83.9175006  75.0345017  90.1049987  85.5845006  74.6265017
  88.3289987  84.3795006  74.6835017  87.7339987  84.8505006  73.9005017
  88.0709987  83.3245006  74.6685017  87.9429987  84.9805006  76.0425017
  88.3989987  85.9665006  76.1075017  86.8659987  85.1415006  76.0495017
  88.3199987  84.1735006  77.2155017  87.5699987  83.3865006  77.1615017
  89.2439987  83.7285006  76.8575017  88.4669987  84.5745006  78.6615017
  89.2919987  85.2835006  78.6845017  87.5709987  85.1465006  78.8945017
  88.6879987  83.5195006  79.7895017  87.7849987  82.9725006  80.0485017
  89.4109987  82.7675006  79.4805017  89.1769987  84.1735006  80.9235017
  89.4269987  83.4595006  81.7025017  88.4509987  84.8655006  81.3375017
  90.0759987  84.7375006  80.6915017  51.5939987 106.1975006  80.1065017
  52.6289987 106.5145006  80.1915017  51.2979987 105.7705006  81.0605017
  50.9889987 107.0855006  79.9415017  51.4059987 105.1495006  78.9245017
  52.1839987 104.4935006  79.3115017  51.8899987 105.8085006  78.2085017
  50.2659987 104.2475006  78.1765017  49.8659987 105.0065006  77.5045017
  49.5569987 104.1685006  78.9985017  50.3189987 102.7815006  77.3805017
  49.4869987 102.7285006  76.6815017  50.1669987 101.9705006  78.0915017
  51.6949987 102.5315006  76.5675017  52.5689987 102.7105006  77.1885017
  51.7759987 103.2115006  75.7215017  51.7339987 101.1045006  76.0665017
  50.7339987 100.7945006  75.7685017  52.0299987 100.4405006  76.8755017
  52.6749987 100.9255006  74.9085017  52.7269987  99.8985006  74.5515017
  53.6979987 101.2205006  75.1365017  52.1349987 101.8075006  73.8095017
  52.2119987 102.8605006  74.0765017  51.0779987 101.6155006  73.6325017
  52.9039987 101.5595006  72.5375017  52.5129987 100.6865006  72.0195017
  53.9479987 101.3395006  72.7585017  52.8319987 102.7445006  71.6325017
  52.7279987 103.6705006  72.1935017  51.9709987 102.6925006  70.9665017
  54.0639987 102.7785006  70.8285017  54.0939987 102.0555006  70.0155017
  54.9909987 102.6475006  71.3835017  54.0329987 104.1455006  70.2395017
  53.6169987 104.9005006  70.9025017  53.4579987 104.2005006  69.3175017
  55.3629987 104.4395006  69.9525017  55.7799987 103.8565006  69.1325017
  56.0609987 104.3445006  70.7795017  55.3069987 105.9395006  69.4995017
  56.3519987 106.2255006  69.5525017  54.8129987 106.3945006  70.3535017
  54.6599987 106.5415006  68.1515017  53.6239987 106.2405006  68.0605017
  55.2019987 106.1885006  67.2825017  54.5549987 105.9975006  66.5735017
  55.2909987 106.1705006  65.5825017  53.5419987 105.2185006  66.5155017
  53.6259987 104.4895006  65.2545017  54.5549987 103.9395006  65.2525017
  53.6219987 105.1805006  64.4235017  52.4429987 103.5285006  65.1715017
  52.4499987 102.8095006  65.9745017  52.4489987 102.7995006  63.8165017
  51.7289987 101.9925006  63.8415017  53.4369987 102.3785006  63.6785017
  52.1419987 103.7135006  62.7535017  51.4269987 103.0955006  61.4765017
  51.7319987 104.2745006  60.4595017  53.0279987 104.6075006  60.0475017
  53.0419987 105.0335006  59.0525017  53.6389987 103.7105006  60.0075017
  53.7309987 105.5285006  61.0505017  54.7009987 105.7595006  60.6275017
  53.8749987 105.0395006  62.0035017  53.0859987 106.8675006  61.3625017
  51.7779987 106.7905006  62.1245017  51.1209987 106.1005006  61.6135017
  51.3369987 107.7765006  62.1305017  51.9809987 106.4785006  63.1385017
  54.0319987 107.5655006  62.2295017  55.0089987 107.5275006  61.7715017
  54.0329987 107.0965006  63.1975017  53.6999987 108.5905006  62.3105017
  52.8499987 107.5865006  60.1045017  53.7889987 107.7175006  59.5875017
  52.4199987 108.5525006  60.3235017  52.1689987 107.0195006  59.4875017
  52.1359987 101.8665006  61.0605017  49.9689987 103.0635006  61.6555017
  51.2729987 104.3335006  65.3145017  50.3069987 103.7585006  65.9595017
  50.2579987 102.6165006  66.3625017  49.2969987 104.7965006  66.2825017
  49.6729987 105.7845006  66.0375017  48.3799987 104.6775006  65.7105017
  49.0459987 104.6445006  67.7245017  48.7619987 103.6155006  67.9185017
  49.9709987 104.8085006  68.2675017  48.0289987 105.5125006  68.2265017
  48.0359987 106.5845006  68.0485017  46.9849987 105.2085006  68.2035017
  48.5849987 105.2135006  69.5905017  49.6569987 105.0685006  69.4665017
  48.4679987 106.1005006  70.2075017  48.0559987 104.0825006  70.2995017
  47.0569987 103.7875006  69.9855017  48.6769987 103.1935006  70.2085017
  48.0159987 104.5725006  71.9955017  47.2039987 105.2945006  71.9245017
  47.5879987 103.6705006  72.4245017  48.9949987 105.0615006  72.8675017
  49.7619987 104.2955006  72.8365017  49.3979987 105.9205006  72.3335017
  48.6899987 105.4805006  74.3095017  48.4289987 104.6535006  74.9525017
  48.7159987 106.6995006  74.8635017  48.4789987 106.7905006  75.9135017
  49.0579987 108.0475006  74.1715017  49.3409987 107.8455006  73.1395017
  48.1979987 108.7065006  74.1275017  50.1919987 108.7565006  74.8365017
  51.1669987 108.2955006  74.6835017  50.2979987 109.7965006  74.5345017
  49.8359987 108.7005006  76.2855017  48.9439987 109.2795006  76.5255017
  49.6509987 107.6925006  76.6475017  50.8689987 109.2115006  76.9215017
  51.2389987 110.0575006  76.3455017  50.5299987 109.6165006  77.8735017
  52.2989987 107.9545006  77.2385017  51.8159987 107.1825006  77.8345017
  52.4619987 107.5155006  76.2585017  54.0079987 108.3735006  78.0735017
  54.4299987 108.6845006  77.1195017  53.5949987 109.2725006  78.5285017
  54.9379987 107.9505006  78.8015017  55.7899987 108.5895006  79.0195017
  54.6579987 107.4965006  79.7495017  55.3359987 106.9225006  77.9025017
  56.1159987 106.3075006  78.3415017  55.7239987 107.3245006  76.9725017
  54.5009987 106.2725006  77.6575017   4.6349987  64.4835006  79.3645017
   3.6859987  64.5075006  79.8915017   4.4739987  64.8945006  78.3725017
   5.3199987  65.1455006  79.8875017   5.0989987  63.3005006  79.3025017
   4.4159987  62.6315006  78.7825017   5.2409987  62.8805006  80.2945017
   6.4699987  63.3415006  78.5315017   7.2529987  62.7775006  79.0375017
   6.8469987  64.3575006  78.4315017   6.2559987  62.7625006  77.1305017
   5.7699987  63.4895006  76.4835017   5.6009987  61.8935006  77.1515017
   7.5719987  62.3785006  76.5175017   7.3909987  62.0075006  75.5125017
   7.9699987  61.5395006  77.0855017   8.6169987  63.4825006  76.4545017
   9.5539987  62.9935006  76.1955017   8.7339987  63.8435006  77.4735017
   8.3939987  64.6695006  75.5225017   9.2299987  65.3645006  75.5815017
   7.5099987  65.2305006  75.8235017   8.2269987  64.2025006  74.0765017
   7.1929987  63.9115006  73.8935017   8.8289987  63.3145006  73.8965017
   8.6279987  65.2945006  73.0805017   9.6869987  65.2005006  72.8495017
   8.5049987  66.2715006  73.5465017   7.8169987  65.2495006  71.7775017
   6.7549987  65.3255006  72.0015017   7.9559987  64.2885006  71.2835017
   8.2359987  66.3785006  70.8165017   9.3239987  66.3875006  70.8105017
   7.9289987  67.3165006  71.2755017   7.7419987  66.3415006  69.3555017
   7.9889987  65.3445006  68.9985017   8.3979987  67.0265006  68.8215017
   6.2679987  66.6865006  69.0005017   5.6299987  65.9655006  69.5085017
   6.1139987  66.5325006  67.9365017   5.7859987  68.0905006  69.3765017
   6.5639987  68.8055006  69.1305017   5.6629987  68.1195006  70.4555017
   4.4629987  68.5345006  68.7195017   3.6789987  67.8175006  68.9245017
   4.5849987  68.6195006  67.6465017   4.6409987  68.7605006  67.2245017
   5.3659987  69.5995006  66.7225017   3.8719987  67.8915006  66.5975017
   3.8209987  67.9885006  65.1695017   3.8329987  69.0325006  64.8955017
   2.8969987  67.5445006  64.8275017   5.0349987  67.2655006  64.5655017
   5.9629987  67.6735006  64.9305017   4.9919987  67.3545006  63.0195017
   5.9209987  66.9985006  62.5945017   4.8559987  68.3915006  62.7375017
   3.8919987  66.5625006  62.5545017   3.8749987  66.1405006  61.0215017
   5.3099987  65.5395006  60.8525017   5.6269987  64.2065006  61.1965017
   5.7469987  63.5395006  60.3525017   4.8619987  63.7665006  61.8305017
   6.8089987  64.2355006  61.9995017   6.8329987  63.1535006  61.9995017
   6.9999987  64.5875006  63.0035017   7.9759987  64.6655006  61.1875017
   8.1479987  65.9435006  60.5815017   7.2609987  66.1765006  60.0095017
   9.0009987  65.8875006  59.9225017   8.3339987  66.6755006  61.3535017
   8.2199987  65.0705006  62.5015017   8.0569987  64.2275006  63.1555017
   7.5659987  65.8885006  62.7435017   9.2509987  65.3875006  62.5555017
   8.6219987  63.5565006  60.3055017   8.9419987  62.7415006  60.9375017
   9.4739987  63.9685006  59.7855017   7.8979987  63.1995006  59.5865017
   2.8539987  65.0865006  60.8105017   3.8389987  67.3925006  60.2465017
   4.9479987  65.8885006  64.9625017   6.0859987  65.3065006  65.1975017
   7.1969987  65.7955006  65.0705017   5.7899987  63.8825006  65.6245017
   4.9319987  63.9455006  66.2855017   5.4499987  63.3385006  64.7465017
   6.9799987  63.1695006  66.2915017   7.8059987  63.0805006  65.5945017
   7.3569987  63.7415006  67.1335017   6.5659987  61.7765006  66.7555017
   6.3549987  61.1445006  65.8965017   7.4019987  61.3135006  67.2735017
   5.3309987  61.8005006  67.7215017   4.4669987  62.1645006  67.1685017
   5.0849987  60.7905006  68.0395017   5.5099987  62.6635006  68.9395017
   6.4579987  62.4455006  69.4265017   5.5549987  63.7095006  68.6435017
   4.3879987  62.4905006  69.9305017   3.4139987  62.6865006  69.4845017
   4.3369987  61.4895006  70.3495017   4.6379987  63.5035006  71.0885017
   5.6859987  63.4155006  71.3505017   4.5119987  64.4945006  70.6535017
   3.8119987  63.4055006  72.2415017   4.1279987  62.4465006  72.6245017
   2.8549987  64.0725006  72.9485017   2.3979987  63.6665006  73.8395017
   2.3639987  65.3865006  72.5785017   2.7399987  65.7245006  71.6145017
   1.2869987  65.5115006  72.5455017   2.9509987  66.2975006  73.6695017
   2.4149987  67.2455006  73.6585017   2.7439987  65.8435006  74.6365017
   4.4679987  66.5615006  73.5465017   4.9439987  65.5815006  73.5455017
   4.6289987  66.9775006  72.5555017   5.1569987  67.4635006  74.6035017
   5.4589987  66.8285006  75.4335017   6.0749987  67.8565006  74.1705017
   4.3009987  68.6305006  75.1205017   3.9229987  69.1545006  74.2445017
   3.4299987  68.2005006  75.6075017   4.9619987  69.6695006  76.0445017
   5.8999987  70.0185006  75.6175017   4.3279987  70.5495006  76.1405017
   5.2359987  69.1275006  77.4185017   4.3829987  68.5085006  77.6835017
   6.0689987  68.4415006  77.2835017   5.5709987  70.1025006  78.6165017
   5.8269987  69.5415006  79.5105017   4.7319987  70.7435006  78.8645017
   6.4149987  70.7425006  78.3745017  17.6599987  17.9245006  81.4615017
  16.8949987  17.1865006  81.2425017  17.5669987  18.1975006  82.5085017
  18.6269987  17.4465006  81.3305017  17.5369987  19.0405006  80.6375017
  16.6639987  19.6815006  80.7455017  17.7019987  18.9275006  79.5695017
  18.9299987  19.8265006  81.3875017  19.1699987  18.8975006  81.9045017
  18.2609987  20.3745006  82.0475017  20.4159987  20.7795006  81.1745017
  21.0709987  20.6095006  80.3235017  21.0659987  21.0375006  82.0085017
  19.4819987  21.9895006  80.8525017  20.0969987  22.6765006  81.4285017
  18.7159987  21.6215006  81.5325017  18.8379987  22.7325006  79.7495017
  19.5949987  23.5145006  79.7715017  18.0279987  23.0755006  80.3895017
  18.2319987  22.5475006  78.0845017  17.1929987  22.8285006  78.2435017
  18.2449987  21.4605006  78.0125017  18.7819987  23.2215006  76.6005017
  19.7799987  22.8045006  76.4695017  18.9209987  24.2785006  76.8195017
  18.0609987  23.0875006  75.3995017  17.9119987  23.9855006  74.8035017
  17.0919987  22.5935006  75.4515017  19.0179987  22.2065006  74.7205017
  18.6569987  22.0055006  73.7145017  19.0439987  21.2455006  75.2335017
  20.4399987  22.7865006  74.6635017  21.0359987  22.4485006  75.5085017
  20.4389987  23.8745006  74.7095017  21.1069987  22.3525006  73.4215017
  21.0629987  21.2695006  73.3375017  22.1629987  22.6105006  73.4695017
  20.5069987  22.9965006  72.1865017  20.5599987  24.0825006  72.2445017
  19.4579987  22.7505006  72.0495017  21.2789987  22.5575006  70.9655017
  21.3259987  21.4755006  71.0245017  22.2879987  22.9255006  71.1335017
  20.8359987  22.9685006  69.5475017  20.7499987  24.0455006  69.4745017
  19.8759987  22.5255006  69.3085017  21.4609987  22.1535006  68.4645017
  22.5899987  22.2795006  68.0275017  20.5849987  21.3145006  68.0805017
  21.1999987  20.0915006  67.6535017  21.1319987  19.4785006  68.5395017
  22.2399987  20.2065006  67.3835017  20.4049987  19.4625006  66.5125017
  20.7869987  18.4665006  66.3625017  20.6079987  20.3095006  65.2165017
  21.6589987  20.2595006  64.9675017  20.3669987  21.3265006  65.5005017
  19.8189987  19.9055006  64.1145017  20.0299987  18.5015006  63.4265017
  20.1069987  18.8915006  61.8755017  19.6079987  20.1015006  61.3335017
  20.2429987  20.9555006  61.5305017  18.6349987  20.3365006  61.7555017
  19.3589987  19.9295006  59.8005017  20.2739987  19.4845006  59.4305017
  19.2469987  20.9095006  59.3605017  18.2089987  19.0695006  59.2225017
  16.9279987  19.6835006  59.6745017  16.9719987  19.8245006  60.7455017
  16.1269987  19.0015006  59.4295017  16.7829987  20.6165006  59.1505017
  18.2409987  19.0525006  57.7105017  19.2419987  18.8065006  57.3915017
  17.9359987  20.0155006  57.3425017  17.5499987  18.2905006  57.3815017
  18.2469987  17.6165006  59.6345017  19.1849987  17.1825006  59.3215017
  17.4299987  17.0925006  59.1615017  18.1499987  17.5435006  60.7085017
  21.3189987  17.9075006  63.8355017  18.7849987  17.7295006  63.6225017
  19.0229987  19.3135006  66.9055017  18.7119987  18.0875006  67.3155017
  19.5059987  17.1795006  67.4915017  17.2079987  18.0275006  67.6265017
  16.7109987  18.2565006  66.6895017  16.9639987  16.9915006  67.8465017
  16.7489987  18.9615006  68.7685017  16.8219987  19.9945006  68.4475017
  15.7019987  18.7915006  68.9985017  17.5899987  18.7695006  70.0185017
  17.4119987  17.7665006  70.3975017  18.6329987  18.7975006  69.7135017
  17.3809987  19.7945006  71.1305017  17.6749987  20.7945006  70.8175017
  16.3479987  19.8715006  71.4615017  18.2549987  19.3855006  72.3235017
  19.2819987  19.2255006  72.0035017  18.2859987  20.1985006  73.0465017
  17.7359987  18.1155006  73.0315017  16.6969987  18.3015006  73.2995017
  17.7259987  17.3045006  72.3085017  18.5159987  17.6475006  74.2935017
  18.3599987  18.4085006  75.0495017  18.0059987  16.7525006  74.6485017
  19.9909987  17.3325006  74.1305017  20.2239987  16.7735006  73.2365017
  21.0189987  17.6635006  74.9305017  22.0019987  17.3385006  74.6205017
  21.0079987  18.4325006  76.2085017  21.4749987  19.4085006  76.0835017
  20.0199987  18.6185006  76.6155017  21.8359987  17.6295006  77.2245017
  22.8609987  17.7945006  76.8935017  21.7159987  18.2075006  78.1385017
  21.6349987  16.1585006  77.5355017  20.6369987  15.8675006  77.2075017
  22.3329987  15.5715006  76.9445017  21.8009987  15.8085006  79.0145017
  22.8329987  15.9415006  79.3305017  21.2029987  16.4625006  79.6465017
  21.3759987  14.3795006  79.2355017  20.6189987  14.0955006  78.5075017
  22.2069987  13.6975006  79.0805017  20.7879987  14.1775006  80.6245017
  20.6999987  13.1155006  80.8485017  21.4549987  14.5905006  81.3785017
  19.4209987  14.8195006  80.7865017  19.5099987  15.9025006  80.8045017
  18.8279987  14.5855006  79.9055017  18.6689987  14.3555006  82.0165017
  17.6679987  14.7755006  82.0375017  19.1659987  14.6545006  82.9325017
  18.5739987  13.2735006  82.0305017  37.5959987 104.3625006  79.1125017
  37.7749987 104.4875006  80.1755017  36.5729987 104.0185006  78.9865017
  37.6729987 105.3415006  78.6475017  38.4639987 103.5045006  78.5725017
  38.4069987 102.4965006  78.9795017  39.5029987 103.8105006  78.6605017
  38.0819987 103.4795006  77.2285017  38.1479987 104.4695006  76.7775017
  37.0429987 103.1725006  77.1315017  38.9029987 102.5595006  76.4775017
  38.4589987 101.5675006  76.4405017  39.8919987 102.4315006  76.9155017
  39.0419987 103.0665006  75.0965017  39.9879987 103.5975006  75.0315017
  38.2629987 103.8125006  74.9525017  38.9729987 102.0645006  73.9945017
  38.2769987 101.2945006  74.3235017  39.9509987 101.5905006  73.9485017
  38.5779987 102.5385006  72.6015017  38.7459987 101.6965006  71.9325017
  39.3039987 103.2995006  72.3195017  37.1669987 103.0825006  72.3835017
  37.2439987 103.3905006  71.3415017  37.2229987 103.9945006  72.9755017
  35.8399987 102.4295006  72.6085017  35.8639987 101.9195006  73.5685017
  35.7039987 101.6535006  71.8555017  34.6319987 103.3935006  72.5715017
  34.9299987 104.2655006  73.1495017  33.8379987 102.9075006  73.1385017
  34.1019987 103.8145006  71.2585017  33.1039987 104.2465006  71.2335017
  34.1499987 103.1155006  70.4255017  35.0289987 104.8375006  71.0545017
  36.0899987 104.6035006  71.0255017  34.9349987 105.7485006  71.6425017
  34.5949987 105.0685006  69.8685017  34.8399987 106.1075006  69.6535017
  33.5109987 105.0125006  69.9015017  35.2339987 103.9945006  68.4095017
  34.4529987 104.1115006  67.6655017  35.1369987 102.9895006  68.8115017
  36.6559987 104.1215006  67.7005017  37.4519987 104.0405006  68.4305017
  36.7419987 105.0765006  67.1965017  37.0419987 103.9275006  66.2535017
  37.2229987 104.7165006  65.3505017  37.3349987 102.7365006  66.1435017
  37.7919987 102.6175006  64.7885017  38.6669987 103.2435006  64.7365017
  37.1449987 102.8515006  63.9545017  38.1839987 101.1725006  64.7755017
  38.9189987 101.0295006  65.5525017  38.7869987 100.7925006  63.4045017
  39.3089987  99.8545006  63.5345017  39.5109987 101.5555006  63.1595017
  37.8169987 100.7105006  62.3465017  38.3869987 100.2715006  60.9105017
  37.5549987  98.9525006  60.5895017  36.1339987  98.9805006  60.6575017
  35.7819987  98.1335006  60.0815017  35.7359987  99.8885006  60.2225017
  35.6389987  98.8715006  62.0965017  35.8539987  99.7705006  62.6535017
  34.5769987  98.6735006  62.1325017  36.3869987  97.7655006  62.7935017
  36.4039987  96.9175006  62.2515017  37.4079987  98.1365006  62.8965017
  36.0039987  97.5615006  63.7005017  38.0329987 101.3055006  59.9135017
  39.7849987  99.8775006  61.1035017  37.0219987 100.4125006  65.2135017
  37.3059987  99.2795006  65.8105017  38.3729987  98.7015006  65.7525017
  36.0309987  98.6955006  66.4215017  35.8569987  99.1885006  67.3725017
  35.1739987  98.9395006  65.7985017  36.1839987  97.1655006  66.5825017
  35.1839987  96.7495006  66.5405017  36.6979987  96.8005006  65.6985017
  36.9029987  96.6425006  67.8685017  36.6949987  95.5755006  67.8935017
  37.9619987  96.7395006  67.6415017  36.6339987  97.2765006  69.2795017
  37.2469987  96.7255006  69.9905017  37.0179987  98.2935006  69.2725017
  35.2129987  97.2945006  69.7905017  34.6379987  97.4565006  68.8815017
  35.0589987  96.2525006  70.0645017  34.6699987  98.1625006  70.8835017
  35.0269987  97.8085006  71.8495017  35.0229987  99.1845006  70.7815017
  33.1209987  98.1705006  70.8815017  32.7659987  98.2615006  69.8615017
  32.7679987  97.2055006  71.2435017  32.5539987  99.2355006  71.7415017
  31.8979987  99.9565006  71.2775017  32.7759987  99.3705006  73.0415017
  32.3199987 100.1805006  73.5925017  33.6319987  98.4715006  73.8755017
  32.9949987  98.0465006  74.6495017  33.9879987  97.6365006  73.2825017
  34.8119987  99.1505006  74.5505017  35.3459987  98.4075006  75.1415017
  35.5019987  99.4725006  73.7725017  34.4689987 100.3055006  75.4035017
  35.2999987 100.6935006  75.9925017  34.0459987 101.1565006  74.8765017
  33.4559987  99.7365006  76.3105017  32.5509987  99.5545006  75.7355017
  33.8009987  98.7615006  76.6515017  33.1709987 100.5165006  77.3935017
  34.0029987 101.1765006  77.1545017  32.3099987 100.9245006  76.8725017
  32.9489987 100.5725006  78.8695017  32.1769987  99.8055006  78.9085017
  33.8779987 100.0805006  79.1515017  32.5879987 101.7695006  80.0455017
  32.7149987 101.3115006  81.0235017  33.3829987 102.5075006  79.9585017
  31.5549987 102.3225006  80.0055017  31.5089987 103.1075006  80.7545017
  30.7259987 101.6475006  80.1905017  31.3959987 102.7825006  79.0345017
  44.2249987   7.8855006  80.0115017  43.5709987   8.4045006  80.7055017
  45.0449987   8.5535006  79.7655017  44.6439987   7.0285006  80.5315017
  43.4789987   7.4565006  78.7715017  43.0479987   8.3495006  78.3215017
  42.6419987   6.8435006  79.0945017  44.3129987   6.7005006  77.7065017
  44.3369987   5.6515006  78.0005017  45.3349987   7.0625006  77.7975017
  43.8979987   6.8025006  76.2685017  44.6229987   6.4385006  75.5445017
  43.5899987   7.7865006  75.9175017  42.7389987   5.9005006  76.2665017
  42.0099987   6.2265006  77.0035017  43.0569987   4.9045006  76.5705017
  42.0729987   5.8185006  74.9295017  41.6399987   4.8285006  74.7965017
  42.8149987   5.9345006  74.1425017  40.9789987   6.8775006  74.7525017
  41.4119987   7.8755006  74.7705017  40.2739987   6.8365006  75.5815017
  40.2239987   6.6795006  73.4395017  39.2549987   7.1755006  73.4845017
  40.0169987   5.6225006  73.2795017  41.0059987   7.2185006  72.2625017
  41.9449987   6.6815006  72.1475017  41.2709987   8.2625006  72.4225017
  40.1969987   7.0975006  70.9825017  39.1739987   7.4395006  71.1255017
  40.1289987   6.0625006  70.6475017  40.8689987   7.9175006  69.9175017
  41.2009987   8.8445006  70.3795017  40.1179987   8.1985006  69.1815017
  42.0149987   7.3065006  69.2315017  41.9029987   6.2255006  69.2465017
  42.9179987   7.5265006  69.7985017  42.2089987   7.7955006  67.7955017
  42.4359987   8.8595006  67.7715017  41.3229987   7.6595006  67.1815017
  43.3679987   7.0565006  67.1605017  42.9909987   6.1665006  66.6665017
  44.0239987   6.7195006  67.9585017  44.1899987   7.8705006  66.1675017
  44.5489987   8.7815006  66.6295017  43.5889987   8.1325006  65.3045017
  45.3419987   7.0215006  65.7445017  46.4769987   7.0405006  66.1905017
  44.8449987   6.2365006  64.8325017  45.7849987   5.3575006  64.2565017
  46.3379987   4.8975006  65.0615017  46.4529987   5.9795006  63.6785017
  45.1219987   4.2585006  63.3565017  45.9609987   3.6345006  63.0975017
  44.4019987   4.7255006  62.0775017  43.9539987   3.8535006  61.6205017
  45.1789987   5.0995006  61.4235017  43.4109987   5.7375006  62.3065017
  41.8679987   5.3455006  62.4005017  41.1259987   6.7345006  62.3635017
  41.5469987   7.7755006  61.5015017  42.6089987   7.7265006  61.3005017
  41.3679987   8.7335006  61.9805017  40.7339987   7.8215006  60.1845017
  41.0899987   6.9895006  59.5895017  40.9609987   8.7415006  59.6655017
  39.2209987   7.7075006  60.1885017  38.6359987   8.5695006  61.2575017
  39.1369987   8.3505006  62.1905017  37.5869987   8.3285006  61.3435017
  38.7479987   9.6055006  60.9735017  38.7999987   8.1475006  58.8385017
  39.3869987   7.6145006  58.1055017  38.9389987   9.2105006  58.7565017
  37.7549987   7.8975006  58.7285017  38.7759987   6.2905006  60.4165017
  39.1889987   5.6595006  59.6435017  37.6979987   6.2475006  60.3815017
  39.1199987   5.9555006  61.3845017  41.4799987   4.6355006  61.1705017
  41.5459987   4.7095006  63.6895017  44.0819987   3.5405006  64.0035017
  44.4519987   2.9525006  65.0465017  45.5499987   3.0235006  65.5725017
  43.3589987   2.0465006  65.5185017  42.3959987   2.2405006  65.0565017
  43.5389987   0.9815006  65.3945017  43.3739987   2.4325006  66.9725017
  44.2399987   2.0545006  67.5045017  43.3599987   3.5045006  67.1445017
  42.2439987   1.8635006  67.4945017  41.5749987   1.8095006  66.6395017
  42.5629987   0.8435006  67.6955017  41.5009987   2.3815006  68.7015017
  41.1809987   3.4165006  68.5945017  40.6139987   1.8155006  68.9725017
  42.2609987   2.3245006  69.5715017  42.5129987   1.2865006  69.7775017
  43.1879987   2.8065006  69.2665017  41.6689987   3.1165006  71.1005017
  42.5189987   2.9385006  71.7565017  41.7059987   4.1675006  70.8295017
  40.2639987   2.8335006  71.9345017  40.1479987   3.7775006  72.4545017
  39.5399987   2.8415006  71.1205017  39.9469987   1.6415006  72.8655017
  40.1109987   0.8425006  72.1575017  39.6099987   1.3125006  74.0355017
  39.4659987   0.3225006  74.4445017  39.3929987   2.3325006  74.9395017
  39.5019987   3.2975006  74.4475017  38.3979987   2.3225006  75.3705017
  40.4139987   2.2475006  76.0385017  40.5919987   1.2445006  76.4245017
  41.3899987   2.6475006  75.7725017  39.8079987   3.1005006  77.1195017
  39.5339987   4.0535006  76.6665017  38.8779987   2.6335006  77.4305017
  40.6769987   3.3575006  78.3385017  41.4289987   4.0945006  78.0645017
  40.0629987   3.8215006  79.1085017  41.3509987   2.1145006  78.9135017
  40.5839987   1.3545006  79.0495017  42.0319987   1.7175006  78.1655017
  42.0799987   2.2905006  80.2445017  41.3399987   2.2705006  81.0425017
  42.7129987   1.4185006  80.3985017  42.8989987   3.4925006  80.4005017
  43.6859987   3.6235006  79.6615017  42.3159987   4.4105006  80.3785017
  43.5189987   3.3425006  81.7765017  44.0869987   4.2295006  82.0425017
  44.1959987   2.4965006  81.8265017  42.7549987   3.1995006  82.5355017
 104.5119987  62.2345006  79.7035017 104.3529987  61.7105006  80.6415017
 104.1889987  63.2625006  79.8395017 105.5809987  62.2485006  79.5095017
 103.7629987  61.5715006  78.5705017 102.7079987  61.5495006  78.8395017
 104.0889987  60.5355006  78.5285017 103.9129987  62.2065006  77.2405017
 103.3259987  61.7645006  76.4355017 104.9359987  62.2605006  76.8735017
 103.4319987  63.5845006  77.4965017 104.2269987  64.1725006  77.9505017
 102.6139987  63.5775006  78.2155017 102.9839987  64.2715006  76.2415017
 102.5029987  65.2175006  76.4765017 102.2329987  63.6635006  75.7405017
 104.1419987  64.5305006  75.2835017 104.6109987  63.5935006  74.9875017
 104.9169987  65.1185006  75.7695017 103.6579987  65.2675006  74.0375017
 104.4799987  65.8695006  73.6535017 102.8799987  65.9695006  74.3345017
 103.1239987  64.3635006  72.9155017 102.2669987  63.7735006  73.2385017
 103.8719987  63.6505006  72.5725017 102.7079987  65.2595006  71.7475017
 103.5999987  65.7605006  71.3765017 102.0609987  66.0425006  72.1405017
 102.0019987  64.5575006  70.5875017 101.7729987  65.2865006  69.8135017
 101.0449987  64.1635006  70.9285017 102.8359987  63.4145006  70.0005017
 102.9579987  62.6115006  70.7245017 103.8409987  63.7415006  69.7405017
 102.1679987  62.8545006  68.7825017 101.1499987  62.5945006  69.0615017
 102.6669987  61.9165006  68.5485017 102.1629987  63.7335006  67.5265017
 101.6309987  64.6625006  67.7265017 101.6379987  63.2525006  66.7055017
 103.5929987  64.0925006  67.0685017 104.1629987  63.1795006  66.9355017
 104.0719987  64.6485006  67.8705017 103.6699987  64.9355006  65.7685017
 103.0799987  65.8375006  65.8665017 103.2969987  64.3655006  64.9265017
 105.0909987  65.4255006  65.5545017 105.4809987  66.5765006  65.5215017
 105.8209987  64.3795006  65.3745017 107.2279987  64.6245006  65.2675017
 107.5579987  65.0505006  66.2035017 107.4889987  65.2955006  64.4625017
 107.8439987  63.2835006  65.0655017 108.9189987  63.3515006  65.0275017
 107.3209987  62.5395006  63.8195017 108.0999987  61.8725006  63.4765017
 107.1539987  63.2965006  63.0635017 106.1199987  61.8155006  64.0705017
 105.2439987  61.2175006  62.8815017 105.2209987  62.4135006  61.8235017
 104.4389987  63.5595006  62.1125017 104.7579987  64.0525006  63.0215017
 103.4049987  63.2655006  62.2675017 104.4049987  64.5625006  60.9125017
 105.3579987  65.0715006  60.8405017 103.6379987  65.2915006  61.1285017
 104.1119987  64.0525006  59.5395017 102.8989987  63.2535006  59.7115017
 103.0569987  62.5575006  60.5235017 102.7249987  62.7095006  58.7945017
 102.0679987  63.9155006  59.9035017 103.9309987  65.1265006  58.5185017
 104.7629987  65.8105006  58.5895017 102.9949987  65.6255006  58.6965017
 103.9229987  64.6515006  57.5485017 105.2049987  63.1725006  59.0405017
 106.1329987  63.7255006  59.0365017 104.9709987  62.8505006  58.0365017
 105.2959987  62.3095006  59.6845017 105.9289987  60.1025006  62.2135017
 103.8889987  60.9835006  63.4085017 107.5239987  62.6425006  66.2695017
 107.8719987  61.4815006  66.2835017 108.9859987  61.0405006  66.2435017
 106.9819987  60.8005006  67.1535017 107.2959987  59.8405006  66.7575017
 107.6079987  60.9825006  68.0235017 105.4999987  60.8075006  67.5305017
 105.3519987  61.8625006  67.7325017 105.0419987  60.6195006  66.5645017
 104.7469987  59.9345006  68.6785017 103.6899987  59.8995006  68.4275017
 105.1139987  58.9145006  68.5895017 104.9339987  60.4095006  70.1805017
 106.0019987  60.4495006  70.3885017 104.5649987  61.4265006  70.2885017
 104.2659987  59.5225006  71.2455017 103.4359987  58.9755006  70.8035017
 104.9789987  58.7715006  71.5795017 103.7629987  60.3105006  72.4785017
 103.1499987  61.1425006  72.1345017 103.1149987  59.6795006  73.0795017
 104.8759987  60.8395006  73.3585017 105.5349987  61.5045006  72.8125017
 104.4709987  61.4205006  74.1855017 105.6089987  59.7035006  73.9025017
 105.2719987  58.7125006  74.1675017 106.8589987  59.9595006  74.0645017
 107.3139987  59.0595006  74.4535017 107.7389987  61.0015006  73.8885017
 108.2949987  60.7555006  72.9855017 107.1629987  61.8905006  73.6575017
 108.7409987  61.3195006  74.9935017 108.9169987  60.3755006  75.5085017
 109.6669987  61.5595006  74.4735017 108.4739987  62.3005006  75.9145017
 107.9519987  63.1535006  75.4815017 107.8599987  61.9565006  76.7425017
 109.7849987  62.7425006  76.4265017 110.4929987  62.0025006  76.7925017
 110.3679987  63.4685006  75.8625017 109.1459987  63.4065006  77.5405017
 108.4269987  64.1735006  77.2585017 108.6299987  62.7605006  78.2455017
 110.1909987  64.0195006  78.1515017 109.7619987  64.4595006  79.0505017
 110.8249987  63.2015006  78.4885017 111.2899987  65.3265006  77.3025017
 111.6829987  64.7685006  76.4555017 110.5249987  65.9845006  76.8945017
 112.8239987  66.5075006  78.1365017 113.2009987  67.2205006  77.4085017
 113.6639987  65.9065006  78.4675017 112.4619987  67.0695006  78.9935017
  71.8159987  95.7205006  80.6905017  71.4899987  95.6845006  81.7255017
  72.8869987  95.8985006  80.6865017  71.6449987  94.7395006  80.2555017
  71.0729987  96.8035006  79.9125017  71.2439987  97.7645006  80.3955017
  70.0059987  96.6115006  79.9845017  71.4919987  96.8965006  78.4475017
  71.2439987  95.9595006  77.9485017  72.5759987  96.9815006  78.4075017
  70.8799987  98.0725006  77.6555017  71.1899987  98.9905006  78.1495017
  69.7969987  98.0235006  77.7615017  71.2419987  98.1705006  76.1615017
  70.6589987  97.4295006  75.6205017  72.2839987  97.8735006  76.0585017
  71.0389987  99.5395006  75.5025017  71.7809987 100.2475006  75.8665017
  70.0689987  99.9495006  75.7735017  71.1389987  99.4405006  73.9625017
  70.2999987  98.8625006  73.5785017  72.0379987  98.8895006  73.6895017
  71.1609987 100.8185006  73.2795017  71.9879987 101.3845006  73.7065017
  70.2529987 101.3445006  73.5675017  71.2829987 100.8205006  71.7405017
  71.0749987 101.8195006  71.3625017  70.5189987 100.1705006  71.3165017
  72.6799987 100.3625006  71.2415017  72.6269987 100.2725006  70.1585017
  72.8569987  99.3575006  71.6225017  73.8629987 101.2715006  71.6395017
  73.7859987 101.4175006  72.7145017  73.6779987 102.2445006  71.1885017
  75.3039987 100.8235006  71.3115017  75.5849987 100.0835006  72.0575017
  75.9459987 101.6855006  71.4815017  75.5739987 100.2835006  69.9065017
  74.9459987  99.4085006  69.7465017  76.6009987  99.9375006  69.8325017
  75.3049987 101.2535006  68.8005017  75.7069987 102.2155006  69.1025017
  74.2259987 101.3665006  68.7455017  75.8169987 100.9135006  67.4405017
  75.4549987  99.9415006  67.1315017  76.8999987 100.8985006  67.4385017
  74.9389987  99.8965006  66.7865017  73.9709987  99.3585006  67.2865017
  75.4949987  99.6495006  65.6235017  74.8239987  98.7445006  64.7435017
  74.3999987  98.0045006  65.4055017  75.5649987  98.2725006  64.1145017
  73.7019987  99.4085006  63.8845017  73.2739987  98.5945006  63.3225017
  74.1749987 100.5235006  62.9195017  74.7879987 100.0755006  62.1495017
  74.7879987 101.2005006  63.5005017  73.0779987 101.2205006  62.3405017
  72.3569987 100.6765006  61.0385017  70.8719987 100.6035006  61.5585017
  70.2159987 101.8335006  61.8845017  70.8179987 102.7005006  61.6475017
  70.0199987 101.8765006  62.9525017  68.8159987 101.9235006  61.2085017
  68.9129987 102.0865006  60.1425017  68.2779987 102.7555006  61.6395017
  67.8969987 100.7025006  61.3625017  66.5259987 101.0125006  60.9805017
  66.2139987 101.9045006  61.5065017  65.9019987 100.1815006  61.2735017
  66.4809987 101.1395006  59.9095017  68.4359987  99.6215006  60.4735017
  69.4919987  99.5125006  60.6675017  68.2499987  99.8855006  59.4475017
  67.9169987  98.7075006  60.7245017  67.8039987 100.2365006  62.7975017
  68.7919987  99.9915006  63.1565017  67.1739987  99.3615006  62.8465017
  67.3779987 101.0225006  63.4045017  72.4319987 101.7045006  59.9735017
  72.7909987  99.2915006  60.7145017  72.6979987  99.9855006  64.7485017
  71.6559987  99.2105006  64.9845017  71.5859987  98.0305006  64.6875017
  70.4959987  99.9855006  65.6705017  69.7159987 100.0415006  64.9175017
  70.1079987  99.3385006  66.4535017  70.8619987 101.3865006  66.2325017
  71.3779987 101.2215006  67.1715017  71.5939987 101.8235006  65.5605017
  69.7009987 102.3795006  66.4615017  69.0889987 102.4785006  65.5685017
  69.0419987 102.0045006  67.2405017  70.2299987 103.7485006  66.8885017
  71.1259987 104.0065006  66.3265017  69.5149987 104.5465006  66.7035017
  70.5849987 103.7365006  68.3875017  69.7669987 103.3485006  68.9915017
  71.4369987 103.0855006  68.5765017  70.9389987 105.1635006  68.8615017
  71.9839987 105.3155006  68.5965017  70.3639987 105.8545006  68.2515017
  70.7359987 105.5195006  70.3155017  71.2559987 104.8225006  70.9615017
  71.1559987 106.5025006  70.5235017  69.3099987 105.5495006  70.6145017
  68.6659987 106.0645006  69.9175017  68.7259987 104.9785006  71.6785017
  67.6529987 105.0925006  71.7365017  69.3229987 104.1925006  72.8175017
  68.5999987 103.3885006  72.9475017  70.2129987 103.7355006  72.4005017
  69.6429987 104.7655006  74.1775017  69.8059987 105.8355006  74.0535017
  68.7449987 104.6645006  74.7845017  70.8139987 104.1585006  74.9165017
  70.5979987 103.0965006  74.8005017  71.6289987 104.3795006  74.2335017
  71.2799987 104.4345006  76.3955017  72.0449987 103.7025006  76.6425017
  71.7689987 105.4065006  76.4235017  70.2019987 104.4015006  77.4105017
  70.5169987 104.6775006  78.4155017  69.3289987 105.0115006  77.1955017
  69.8279987 102.9685006  77.4285017  69.4409987 102.6425006  76.4645017
  70.6879987 102.3345006  77.6385017  68.7839987 102.7135006  78.4715017
  68.8569987 103.5405006  79.1725017  67.8439987 102.8565006  77.9425017
  68.7159987 101.3625006  79.2635017  67.8419987 101.3365006  79.9075017
  69.5879987 101.2165006  79.8925017  68.6529987 100.5155006  78.5865017
  18.6029987  93.4795006  77.3905017  17.5549987  93.3085006  77.6155017
  18.6789987  94.4275006  76.8655017  19.1309987  93.5835006  78.3345017
  19.2089987  92.2925006  76.5255017  18.6169987  92.2095006  75.6155017
  19.0479987  91.3715006  77.0795017  20.7609987  92.4385006  76.1345017
  21.3049987  92.9445006  76.9315017  20.8569987  93.0725006  75.2555017
  21.4519987  91.0545006  75.8305017  21.3839987  90.3995006  76.6965017
  22.5149987  91.1795006  75.6305017  20.8049987  90.3755006  74.6655017
  19.7239987  90.4675006  74.7385017  21.0249987  89.3105006  74.7095017
  21.2539987  90.9225006  73.3305017  20.7769987  91.8965006  73.2315017
  20.7979987  90.2835006  72.5775017  22.7459987  91.0595006  73.0385017
  23.2719987  90.1065006  73.0525017  23.2619987  91.7025006  73.7505017
  22.8479987  91.6735006  71.6355017  22.1669987  92.5185006  71.5475017
  22.5329987  90.9495006  70.8865017  24.2549987  92.1325006  71.3245017
  24.8899987  91.2515006  71.2665017  24.6149987  92.7105006  72.1745017
  24.4159987  92.9555006  70.0525017  25.4339987  93.3395006  70.0605017
  23.7619987  93.8215006  70.1535017  24.1289987  92.2615006  68.7195017
  23.0669987  92.2805006  68.4845017  24.4169987  91.2115006  68.7325017
  24.8839987  92.9785006  67.5955017  25.9299987  93.0075006  67.8925017
  24.5369987  94.0105006  67.6035017  24.7549987  92.4295006  66.1705017
  25.0819987  93.1545006  65.4265017  23.7389987  92.1545006  65.9015017
  25.6519987  91.1985006  66.0545017  25.2809987  90.4405006  66.7365017
  26.6389987  91.4845006  66.4095017  25.7949987  90.5875006  64.6455017
  26.1329987  91.3365006  63.9405017  24.8439987  90.1945006  64.3065017
  24.5959987  89.7145006  64.2645017  24.0009987  88.9805006  65.0325017
  24.3619987  89.7965006  62.9485017  23.1299987  89.1245006  62.5885017
  23.1239987  88.2985006  63.2835017  23.1789987  88.7385006  61.5805017
  21.8559987  90.0095006  62.7875017  20.9819987  89.4155006  62.5765017
  21.9569987  91.1755006  61.7745017  20.9569987  91.4875006  61.5075017
  22.4449987  90.7815006  60.8915017  22.7009987  92.2775006  62.3055017
  23.8449987  92.9805006  61.4775017  23.1689987  94.4045006  61.1955017
  22.6279987  95.1695006  62.2765017  23.1359987  96.1185006  62.3895017
  22.7739987  94.6295006  63.2075017  21.0919987  95.3695006  62.1585017
  20.7359987  95.9425006  63.0055017  20.6399987  94.3885006  62.1875017
  20.5209987  96.0555006  60.9255017  20.3429987  95.0785006  59.7945017
  21.2709987  94.5425006  59.6515017  20.1069987  95.6405006  58.9035017
  19.5259987  94.4135006  60.0315017  19.1779987  96.6385006  61.2565017
  19.2699987  97.2185006  62.1625017  18.4669987  95.8395006  61.3715017
  18.8919987  97.2785006  60.4345017  21.4859987  97.0865006  60.4455017
  21.6669987  97.7995006  61.2365017  21.0669987  97.5935006  59.5895017
  22.4129987  96.6095006  60.1635017  25.0639987  93.1925006  62.2975017
  24.0549987  92.2885006  60.1895017  21.7359987  90.4345006  64.1695017
  20.6239987  91.0625006  64.5425017  19.6369987  91.2375006  63.8535017
  20.8079987  91.6305006  65.9665017  21.0479987  90.7765006  66.5915017
  21.6999987  92.2525006  65.9575017  19.5779987  92.4215006  66.5065017
  18.6979987  91.8025006  66.3695017  19.6929987  92.5465006  67.5785017
  19.3399987  93.7875006  65.8445017  19.1299987  93.6445006  64.7875017
  18.4419987  94.2235006  66.2755017  20.4919987  94.7725006  66.0205017
  20.8719987  94.6905006  67.0375017  21.3189987  94.5125006  65.3645017
  20.1019987  96.2245006  65.7695017  19.5329987  96.3565006  64.8515017
  19.4799987  96.6205006  66.5705017  21.3889987  97.0525006  65.6935017
  21.9499987  96.6715006  64.8415017  21.1079987  98.0715006  65.4445017
  22.3109987  97.0825006  66.9425017  22.5769987  96.0685006  67.2175017
  23.2419987  97.5835006  66.6785017  21.6839987  97.8115006  68.1005017
  21.4479987  98.8475006  67.9075017  21.3749987  97.3255006  69.3285017
  20.9179987  98.0025006  70.0355017  21.5839987  95.9175006  69.8645017
  20.7589987  95.3285006  69.4685017  22.4859987  95.5115006  69.4205017
  21.6309987  95.7145006  71.4185017  20.7439987  96.1435006  71.8825017
  21.6099987  94.6515006  71.6495017  22.8879987  96.3415006  72.0395017
  23.7249987  96.1075006  71.3815017  22.7699987  97.4215006  72.0085017
  23.2329987  95.9055006  73.4735017  23.2709987  94.8185006  73.4935017
  24.2389987  96.2495006  73.7075017  22.2609987  96.4165006  74.5485017
  22.1359987  97.4945006  74.4645017  21.2699987  95.9915006  74.4155017
  22.7779987  96.1105006  75.9605017  22.9699987  95.0455006  76.0765017
  23.7299987  96.6095006  76.1345017  21.7899987  96.5505006  77.0535017
  21.4179987  97.5435006  76.8145017  20.9289987  95.8885006  76.9865017
  22.3109987  96.5345006  78.4885017  21.5169987  96.7745006  79.1895017
  23.1069987  97.2555006  78.6385017  22.6989987  95.5545006  78.7525017
  71.9049987  11.7515006  82.9395017  70.9159987  11.9255006  83.3515017
  72.2809987  12.7005006  82.5695017  72.5519987  11.4375006  83.7535017
  71.8679987  10.7105006  81.8405017  71.2249987  11.0135006  81.0155017
  71.4779987   9.7615006  82.1995017  73.2569987  10.5355006  81.3385017
  73.8969987  10.2545006  82.1745017  73.6159987  11.5045006  80.9975017
  73.4349987   9.5325006  80.2115017  72.9049987   8.6185006  80.4695017
  74.4859987   9.2585006  80.1285017  72.9329987  10.0225006  78.8575017
  71.9509987  10.4675006  78.9945017  72.7869987   9.1495006  78.2235017
  73.8389987  11.0295006  78.1325017  74.8819987  10.7225006  78.1835017
  73.7869987  12.0095006  78.6025017  73.4179987  11.1505006  76.6625017
  73.3249987  10.1835006  76.1725017  74.1279987  11.7255006  76.0695017
  72.1239987  11.8225006  76.6495017  72.3049987  12.4995006  75.8155017
  72.2419987  12.4165006  77.5545017  70.7049987  11.3065006  76.5745017
  70.0399987  12.0535006  77.0035017  70.6209987  10.4245006  77.2085017
  70.2249987  10.9535006  75.1405017  69.4669987  11.7015006  74.9155017
  69.6969987  10.0065006  75.2485017  71.2299987  10.8455006  73.9635017
  71.7089987   9.8685006  73.9765017  72.0299987  11.5755006  74.0745017
  70.5549987  11.0365006  72.5935017  69.9979987  11.9705006  72.5785017
  69.8249987  10.2455006  72.4335017  71.5519987  11.0085006  71.4625017
  72.0479987  10.0395006  71.4735017  72.3269987  11.7485006  71.6425017
  70.9759987  11.2225006  70.0795017  70.6629987  12.2535006  69.9555017
  70.0869987  10.6085006  69.9635017  71.9629987  10.8615006  68.9745017
  72.3149987   9.8455006  69.0975017  72.8159987  11.5295006  68.9965017
  71.4319987  11.2475006  67.5925017  70.2809987  11.1045006  67.2495017
  72.3989987  11.7545006  66.9125017  72.5389987  11.9045006  65.5325017
  73.0759987  12.8295006  65.3865017  71.5709987  11.9805006  65.0595017
  73.3379987  10.7315006  64.9605017  74.3499987  10.6825006  65.3275017
  73.3439987  10.9085006  63.4255017  74.0079987  10.1765006  62.9855017
  73.7299987  11.8985006  63.2155017  72.0379987  10.7685006  62.9045017
  71.8319987  10.5535006  61.3645017  72.4059987   9.0765006  61.1755017
  71.5719987   7.9495006  61.4405017  70.9789987   7.6625006  60.5815017
  70.8689987   8.1885006  62.2335017  72.3899987   6.7575006  61.9715017
  71.6749987   5.9485006  62.0505017  72.8309987   6.9275006  62.9425017
  73.5139987   6.2315006  61.0875017  74.6849987   7.1745006  61.1645017
  74.3329987   8.1785006  60.9695017  75.3959987   6.8845006  60.4055017
  75.1399987   7.0885006  62.1395017  73.9699987   4.9845006  61.6525017
  73.1109987   4.3565006  61.8355017  74.5089987   5.1865006  62.5605017
  74.6209987   4.5195006  60.9265017  73.0869987   5.9995006  59.6785017
  72.2689987   5.2945006  59.6665017  73.9179987   5.5995006  59.1175017
  72.7699987   6.9345006  59.2395017  70.3869987  10.5855006  61.1135017
  72.7089987  11.4755006  60.6055017  72.6889987   9.5375006  65.3865017
  73.4209987   8.4655006  65.3155017  74.5639987   8.3835006  64.8905017
  72.6339987   7.3565006  66.0135017  71.5799987   7.5765006  65.8765017
  72.8109987   6.4155006  65.4975017  73.0109987   7.2525006  67.4995017
  74.0869987   7.3205006  67.6125017  72.5969987   8.0855006  68.0585017
  72.5329987   5.9495006  68.0935017  71.5199987   5.7245006  67.7695017
  73.1549987   5.1325006  67.7345017  72.6009987   5.9785006  69.6355017
  71.8929987   6.7305006  69.9795017  72.2469987   5.0275006  70.0245017
  73.9299987   6.2775006  70.2345017  74.6999987   5.6875006  69.7415017
  74.1789987   7.3195006  70.0445017  73.9879987   6.0305006  71.7305017
  73.3029987   6.6905006  72.2605017  73.6969987   5.0155006  71.9885017
  75.4129987   6.2735006  72.2305017  75.5349987   5.7745006  73.1845017
  76.1009987   5.7875006  71.5405017  75.7779987   7.7275006  72.3285017
  75.5709987   8.3575006  71.4765017  76.3299987   8.3105006  73.3975017
  76.5279987   9.3695006  73.3115017  76.7199987   7.7215006  74.7195017
  76.6219987   6.6385006  74.6735017  77.7539987   7.9225006  74.9755017
  75.8109987   8.2365006  75.8365017  76.2879987   8.0425006  76.7965017
  75.7409987   9.3185006  75.7465017  74.3819987   7.6305006  75.8365017
  73.8389987   8.2125006  76.5815017  73.9619987   7.9035006  74.8725017
  74.1419987   6.1165006  76.0955017  73.6999987   5.6315006  75.2275017
  75.0719987   5.5875006  76.2985017  73.2059987   5.9795006  77.3065017
  73.7209987   6.2965006  78.2115017  72.3479987   6.6395006  77.2065017
  72.7399987   4.5485006  77.5115017  72.1909987   4.2215006  76.6305017
  73.6109987   3.8985006  77.5825017  71.8559987   4.3185006  78.7535017
  71.7929987   3.2555006  78.9725017  72.3589987   4.7675006  79.6075017
  70.4449987   4.9015006  78.6515017  69.9099987   4.7815006  79.5885017
  69.8599987   4.4145006  77.8785017  70.4769987   5.9625006  78.4225017
  -0.4700013  48.0815006  79.3315017  -1.2670013  47.3455006  79.2935017
  -0.4970013  48.6475006  78.4045017  -0.6930013  48.7685006  80.1425017
   0.8879987  47.4165006  79.5335017   1.0789987  46.7175006  78.7215017
   0.8699987  46.8265006  80.4465017   2.0169987  48.4365006  79.5915017
   2.8059987  48.0605006  80.2425017   1.6409987  49.3405006  80.0665017
   2.6179987  48.8145006  78.2355017   1.7599987  48.9925006  77.5905017
   3.0909987  47.9065006  77.8635017   3.5979987  49.9965006  78.0905017
   4.5609987  49.6365006  78.4445017   3.2639987  50.7375006  78.8155017
   3.7899987  50.6695006  76.7355017   4.6049987  51.3905006  76.7685017
   2.9019987  51.2275006  76.4465017   4.0909987  49.6175006  75.6735017
   3.2029987  49.0055006  75.5295017   4.8619987  48.9495006  76.0555017
   4.5389987  50.1875006  74.3175017   5.6029987  50.4115006  74.3815017
   4.0359987  51.1415006  74.1695017   4.2819987  49.2815006  73.0935017
   4.6719987  48.2875006  73.3035017   4.8549987  49.6605006  72.2485017
   2.7949987  49.1735006  72.6925017   2.4039987  50.1845006  72.5955017
   2.2549987  48.7155006  73.5205017   2.5159987  48.3715006  71.3985017
   3.3299987  48.5045006  70.6885017   1.6179987  48.7315006  70.8995017
   2.3679987  46.8755006  71.6865017   1.6039987  46.7965006  72.4555017
   3.3029987  46.5745006  72.1555017   2.0639987  45.9115006  70.5435017
   2.6869987  46.2215006  69.7065017   1.0359987  46.0775006  70.2355017
   2.2849987  44.3995006  70.7675017   1.3449987  43.8675006  70.8725017
   2.8469987  44.2295006  71.6815017   3.0839987  43.7965006  69.5755017
   4.0119987  44.3345006  69.4305017   2.5019987  43.8545006  68.6635017
   2.1279987  43.5555006  68.4315017   1.0319987  43.0835006  68.5495017
   2.4779987  44.1005006  67.3125017   1.2629987  44.1975006  66.4945017
   0.3589987  44.1705006  67.0845017   1.2579987  43.3675006  65.8025017
   1.3719987  45.5535006  65.7375017   0.5779987  45.6025006  65.0105017
   2.7189987  45.5905006  65.0345017   2.8469987  44.6615006  64.4955017
   3.4699987  45.6465006  65.8125017   2.8369987  46.7005006  64.1485017
   3.5539987  46.5805006  62.7345017   3.0729987  47.9605006  62.0815017
   1.7429987  48.4565006  62.2525017   1.7519987  49.4465006  62.6885017
   1.2189987  47.8145006  62.9555017   0.8809987  48.4255006  60.9475017
  -0.0030013  49.0415006  61.0505017   0.5749987  47.3995006  60.8025017
   1.5369987  48.8565006  59.6385017   2.2689987  50.1165006  59.8935017
   1.5979987  50.8135006  60.3765017   2.5849987  50.5165006  58.9415017
   3.1349987  49.9015006  60.5025017   2.3869987  47.7435006  59.1155017
   1.8009987  46.8375006  59.1135017   3.2589987  47.6465006  59.7365017
   2.6729987  48.0025006  58.1065017   0.6089987  49.1885006  58.5665017
  -0.0170013  48.3335006  58.3605017   1.1689987  49.4485006  57.6805017
  -0.0030013  50.0265006  58.8665017   5.0179987  46.6585006  62.9015017
   2.9369987  45.4875006  61.9645017   1.3809987  46.7545006  66.6035017
   0.1439987  46.9675006  66.9145017  -0.6950013  46.1935006  66.4745017
   0.0339987  48.2365006  67.8545017   1.0719987  48.4725006  68.0665017
  -0.3250013  49.0315006  67.2065017  -0.8050013  48.1455006  69.1325017
  -1.7490013  47.7115006  68.8225017  -0.3190013  47.3975006  69.7505017
  -1.0730013  49.3705006  69.9375017  -0.1960013  49.6945006  70.4915017
  -1.3500013  50.2025006  69.2945017  -2.1990013  49.1005006  70.8755017
  -2.4900013  49.9795006  71.4485017  -3.1060013  48.7335006  70.4015017
  -1.6970013  48.0605006  71.8305017  -2.5890013  47.5375006  72.1695017
  -1.1550013  47.3575006  71.2005017  -0.8830013  48.3865006  72.9555017
   0.1469987  48.4705006  72.6115017  -1.1640013  49.3685006  73.3245017
  -0.9480013  47.3985006  74.1055017  -0.0210013  47.6805006  74.5915017
  -1.7480013  47.8745006  74.6715017  -1.1570013  45.8655006  74.1485017
  -1.7400013  45.5345006  73.3015017  -0.7520013  44.9395006  74.9985017
  -1.0030013  43.8955006  74.8795017   0.0799987  45.2275006  76.1825017
  -0.4230013  45.9145006  76.8605017   0.3449987  44.3575006  76.7735017
   1.3199987  45.8855006  75.6885017   1.1519987  46.7785006  75.0865017
   2.0089987  46.1775006  76.4785017   1.9299987  44.8745006  74.8825017
   1.2849987  44.6325006  74.0375017   2.8629987  45.2375006  74.4585017
   2.1809987  43.6835006  75.6405017   1.2819987  43.0725006  75.6095017
   2.9559987  43.1105006  75.1345017   2.6149987  43.9325006  77.1485017
   3.2419987  44.8195006  77.0825017   1.6929987  44.2555006  77.6255017
   3.2819987  42.9865006  77.9705017   2.5249987  42.5695006  78.6315017
   3.5869987  42.1755006  77.3115017   4.6699987  43.4685006  78.9425017
   5.1239987  42.5765006  79.3665017   5.4059987  43.8765006  78.2525017
   4.4429987  44.3945006  79.9505017   5.3759987  44.6845006  80.4255017
   3.7929987  44.0005006  80.7245017   3.9789987  45.2945006  79.5565017
 104.9479987  33.6415006  81.3835017 105.0949987  32.8495006  82.1115017
 104.1849987  34.3105006  81.7715017 105.8749987  34.2045006  81.3155017
 104.5569987  33.0895006  80.0545017 103.6899987  32.4985006  80.3425017
 105.3709987  32.3855006  79.9065017 104.2299987  33.8795006  78.6505017
 104.0789987  33.0245006  77.9915017 105.2249987  34.2595006  78.4265017
 103.0749987  35.1065006  78.2665017 103.3719987  35.9495006  78.8865017
 102.1379987  34.7405006  78.6835017 102.8529987  35.5685006  76.9545017
 102.6089987  34.7675006  76.2615017 103.7289987  36.0695006  76.5455017
 101.6879987  36.5525006  77.0035017 101.9159987  37.4255006  77.6125017
 100.7939987  36.1065006  77.4345017 101.3919987  36.9935006  75.5895017
 101.4189987  36.1345006  74.9215017 102.1699987  37.6735006  75.2435017
 100.0319987  37.6815006  75.4715017 100.1249987  38.4895006  74.7475017
  99.8079987  38.1535006  76.4265017  98.8589987  36.7715006  75.0685017
  97.9329987  37.3155006  75.2425017  98.8419987  35.9195006  75.7465017
  98.8869987  36.2625006  73.6135017  98.2289987  35.4035006  73.5025017
  99.8859987  35.9175006  73.3495017  98.4649987  37.3775006  72.6435017
  99.0459987  38.2655006  72.8835017  97.4259987  37.6335006  72.8425017
  98.6339987  37.0795006  71.1555017  98.1839987  37.8795006  70.5715017
  98.0799987  36.1755006  70.9095017 100.1069987  36.8835006  70.7415017
 100.5539987  36.0875006  71.3355017 100.6949987  37.7755006  70.9375017
 100.2479987  36.5065006  69.2655017  99.9439987  37.3485006  68.6525017
  99.5509987  35.6985006  69.0575017 101.6579987  36.0575006  68.8445017
 101.9959987  35.2375006  69.4655017 102.3589987  36.8775006  68.9395017
 101.7369987  35.9705006  67.3245017 101.0479987  36.5955006  66.5355017
 102.7029987  35.1335006  67.0275017 102.8259987  34.8505006  65.6355017
 103.8799987  34.9375006  65.4185017 102.2849987  35.5915006  65.0655017
 102.3369987  33.4545006  65.3115017 102.8769987  32.7185006  65.8845017
 102.4449987  33.1305006  63.8055017 102.1949987  32.0915006  63.6365017
 103.4719987  33.2935006  63.5035017 101.5729987  33.9765006  63.0715017
 101.3419987  33.8005006  61.5235017 100.7089987  35.2605006  61.1385017
  99.7099987  35.7825006  62.0345017  99.8429987  35.3655006  63.0245017
  98.7369987  35.4465006  61.6865017  99.6089987  37.3535006  62.0915017
 100.5879987  37.7895006  62.2445017  98.9929987  37.5745006  62.9505017
  98.9879987  38.1225006  60.9195017  99.9749987  38.1595006  59.8135017
 100.9179987  38.5165006  60.2045017  99.6089987  38.8445006  59.0635017
 100.0629987  37.1705006  59.3895017  97.7649987  37.4265006  60.4145017
  97.1239987  37.2065006  61.2545017  98.0589987  36.5295006  59.8995017
  97.2659987  38.1025006  59.7345017  98.7129987  39.5565006  61.2165017
  98.0459987  39.6225006  62.0635017  98.2509987  40.0145006  60.3555017
  99.6409987  40.0625006  61.4405017 102.6589987  33.6515006  60.8775017
 100.3579987  32.7085006  61.3035017 100.9879987  33.4395006  65.7605017
 100.3219987  32.3225006  65.6315017 100.7859987  31.2085006  65.4645017
  98.8569987  32.6425006  65.7985017  98.5229987  33.1285006  64.8875017
  98.2909987  31.7175006  65.8665017  98.6339987  33.5015006  67.0055017
  98.9959987  33.0485006  67.9215017  99.1079987  34.4765006  66.9455017
  97.1859987  33.6585006  67.0905017  96.7639987  34.4805006  66.5185017
  96.6219987  32.7725006  66.8085017  97.0009987  33.8915006  68.5015017
  97.7409987  34.6055006  68.8575017  96.0289987  34.3325006  68.7095017
  97.1439987  32.6025006  69.3155017  96.8449987  31.8125006  68.6295017
  98.2189987  32.4965006  69.4495017  96.4969987  32.3995006  70.5915017
  96.3719987  33.4325006  70.9125017  95.5149987  32.0535006  70.2815017
  97.0019987  31.4785006  71.8855017  96.2669987  31.5615006  72.6775017
  97.0029987  30.4335006  71.5765017  98.3259987  31.8215006  72.3635017
  99.1229987  31.6495006  71.6565017  98.6629987  32.3245006  73.5435017
  99.7119987  32.5355006  73.6925017  97.7889987  32.6605006  74.7365017
  98.2599987  33.4985006  75.2485017  96.8229987  33.0165006  74.3975017
  97.5799987  31.4885006  75.7895017  96.8939987  30.7235006  75.4285017
  98.5139987  30.9765006  76.0135017  96.9369987  32.2055006  77.2785017
  95.8879987  31.9555006  77.4355017  97.4649987  31.8715006  78.1675017
  97.0949987  33.9045006  77.1265017  97.9089987  34.0635006  76.4235017
  96.1909987  34.2535006  76.6295017  97.3319987  34.7505006  78.4155017
  96.5739987  34.2655006  79.0275017  98.2759987  34.2885006  78.6915017
  97.3519987  36.4145006  78.8235017  98.1969987  36.7465006  78.2235017
  96.4589987  36.7465006  78.2975017  97.4159987  37.2085006  80.3395017
  98.4469987  37.0155006  80.6245017  97.3919987  38.2405006  79.9955017
  96.4199987  37.0655006  81.6995017  96.6999987  37.7875006  82.4605017
  96.4849987  36.0795006  82.1475017  95.3799987  37.2435006  81.4425017
  14.9549987  87.7575006  78.2605017  15.0709987  87.9095006  79.3295017
  14.1919987  86.9985006  78.1145017  14.5829987  88.6845006  77.8335017
  16.2549987  87.3515006  77.6225017  16.5999987  86.4435006  78.1145017
  16.9879987  88.1205006  77.8525017  16.1979987  87.1135006  76.1055017
  17.2019987  86.8515006  75.7705017  15.9639987  88.0685006  75.6385017
  15.2009987  86.0615006  75.5905017  14.2029987  86.2765006  75.9665017
  15.4549987  85.0695006  75.9605017  15.1519987  86.0345006  74.0685017
  14.6409987  85.1225006  73.7715017  16.1789987  85.9365006  73.7215017
  14.4879987  87.2325006  73.3595017  15.2359987  88.0145006  73.2445017
  13.7239987  87.6365006  74.0205017  13.8559987  86.9215006  71.9785017
  13.1759987  87.7265006  71.7055017  13.2469987  86.0225006  72.0565017
  14.8549987  86.7415006  70.9055017  14.2499987  86.2785006  70.1275017
  15.4739987  85.9485006  71.3205017  15.7509987  87.8025006  70.2805017
  16.0519987  88.4675006  71.0875017  15.1179987  88.3935006  69.6205017
  17.0269987  87.3305006  69.4905017  16.7339987  86.4815006  68.8765017
  17.7439987  86.9495006  70.2165017  17.6959987  88.3785006  68.6365017
  17.8939987  89.2585006  69.2445017  17.0169987  88.7015006  67.8495017
  19.0239987  87.9165006  68.0045017  19.7689987  87.8805006  68.7955017
  19.3449987  88.6995006  67.3205017  18.9969987  86.6385006  67.2765017
  18.6299987  85.7785006  67.8345017  19.9069987  86.3135006  66.7795017
  17.9999987  86.9785006  66.2685017  18.3569987  87.5565006  65.4225017
  17.1249987  87.4945006  66.6555017  17.6489987  85.8365006  65.8715017
  17.3199987  85.2295006  66.7055017  18.4759987  85.3365006  65.3825017
  16.2649987  86.2535006  64.8165017  16.3089987  86.3365006  63.6105017
  15.0549987  85.7385006  65.4195017  13.8079987  85.0015006  64.9965017
  13.4659987  84.3165006  65.7575017  13.7589987  84.5125006  64.0345017
  13.0179987  86.1875006  65.0075017  11.9519987  86.0385006  64.9655017
  13.4879987  86.9605006  63.7595017  12.6429987  87.4985006  63.3525017
  13.8079987  86.2185006  63.0385017  14.5379987  87.8445006  64.0505017
  14.9619987  89.2375006  63.6355017  14.7009987  89.1815006  62.0705017
  15.4299987  88.2495006  61.2615017  15.3709987  87.2245006  61.6045017
  16.4859987  88.5025006  61.2275017  14.9379987  88.3755006  59.8115017
  13.8599987  88.4095006  59.9015017  15.2089987  87.5325006  59.1915017
  15.3269987  89.6195006  59.0195017  16.8069987  89.8075006  58.9255017
  17.2259987  89.7485006  59.9205017  16.9929987  90.7865006  58.5095017
  17.2149987  89.0525006  58.2705017  14.8759987  89.4075006  57.6255017
  13.8429987  89.0945006  57.6435017  15.5029987  88.6675006  57.1625017
  14.9679987  90.3515006  57.1085017  14.6709987  90.8395006  59.5865017
  13.5989987  90.7075006  59.5695017  14.9399987  91.6975006  58.9885017
  15.0049987  90.9895006  60.6035017  13.9569987  90.0635006  64.3265017
  16.4049987  89.4455006  63.8965017  13.2649987  86.8315006  66.3045017
  12.7159987  87.9825006  66.3755017  11.7019987  88.2695006  65.7825017
  13.3929987  88.8315006  67.4345017  13.5629987  88.1785006  68.2845017
  14.3789987  89.1065006  67.0685017  12.5739987  90.0845006  67.8225017
  12.2589987  90.6075006  66.9265017  11.6629987  89.7975006  68.3385017
  13.3919987  91.0415006  68.7015017  12.7479987  91.7345006  69.2365017
  13.9319987  90.4815006  69.4615017  14.4099987  91.8185006  67.8485017
  15.0669987  91.0835006  67.3865017  13.8809987  92.3075006  67.0345017
  15.2839987  92.8645006  68.5735017  15.6929987  93.5465006  67.8315017
  14.6289987  93.4615006  69.2055017  16.4309987  92.3045006  69.4415017
  17.0169987  91.6225006  68.8275017  17.0979987  93.1165006  69.7195017
  15.9789987  91.5755006  70.7255017  14.9389987  91.8385006  70.8765017
  15.9949987  90.5125006  70.4895017  16.7869987  91.8035006  71.9835017
  17.6309987  91.1425006  72.1145017  16.5789987  92.7435006  72.9475017
  17.2329987  92.8005006  73.8055017  15.4709987  93.7785006  72.9445017
  15.9009987  94.7255006  73.2655017  15.0959987  93.9405006  71.9395017
  14.3029987  93.4425006  73.8745017  14.6909987  93.1285006  74.8425017
  13.7309987  94.3495006  74.0575017  13.3689987  92.3605006  73.3225017
  13.0549987  92.6735006  72.3265017  13.9489987  91.4515006  73.1865017
  12.1209987  92.0505006  74.1755017  11.4899987  92.9365006  74.1575017
  11.5589987  91.2665006  73.6705017  12.3859987  91.6285006  75.6205017
  12.8689987  90.6535006  75.6245017  13.0939987  92.3125006  76.0815017
  11.1139987  91.5295006  76.4795017  11.3789987  91.1555006  77.4665017
  10.7139987  92.5295006  76.6335017  10.0039987  90.6455006  75.9065017
   9.6449987  91.0455006  74.9615017  10.4259987  89.6705006  75.6735017
   8.8219987  90.4535006  76.8615017   8.1029987  89.7515006  76.4495017
   8.2969987  91.3835006  77.0485017   9.1529987  90.0635006  77.8195017
   6.1979987  33.8265006  78.3045017   5.8209987  34.6845006  77.7575017
   7.1269987  34.1215006  78.7835017   5.4829987  33.5945006  79.0895017
   6.4089987  32.6205006  77.3755017   7.1049987  32.9025006  76.5875017
   5.4659987  32.3955006  76.8845017   6.9219987  31.4165006  78.0695017
   7.7309987  31.5915006  78.7785017   7.2669987  30.6245006  77.4075017
   5.6899987  30.9155006  78.8235017   4.8289987  31.0945006  78.1835017
   5.5529987  31.5505006  79.6975017   5.6799987  29.3195006  79.2955017
   5.2949987  29.3375006  80.3115017   6.7359987  29.0655006  79.3725017
   5.1009987  28.4465006  78.6685017   5.2209987  27.4505006  79.0905017
   5.4089987  28.3755006  77.6275017   3.7209987  28.8215006  78.7275017
   3.4459987  29.7725006  78.2735017   3.2439987  28.8025006  79.7065017
   3.2109987  27.7625006  77.9385017   2.1579987  27.9635006  77.7475017
   3.2429987  26.8525006  78.5345017   3.9369987  27.5165006  76.5915017
   3.5299987  26.5505006  76.2995017   4.9559987  27.3275006  76.9255017
   3.9669987  28.4005006  75.4295017   4.5389987  27.9545006  74.6185017
   4.4589987  29.3435006  75.6675017   2.6089987  28.6685006  74.9915017
   1.9619987  29.0695006  75.7685017   2.0819987  27.8145006  74.5695017
   2.7809987  29.7155006  73.9325017   3.3369987  30.5175006  74.4125017
   1.7799987  30.1035006  73.7545017   3.4109987  29.3705006  72.5965017
   2.9169987  28.4775006  72.2175017   4.4519987  29.1005006  72.7515017
   3.3319987  30.4445006  71.5175017   3.5469987  31.4425006  71.8865017
   2.3499987  30.4855006  71.0535017   4.3709987  30.0675006  70.4365017
   4.1959987  29.0615006  70.0775017   5.3739987  30.1225006  70.8415017
   4.3519987  30.9645006  69.2805017   3.4069987  31.6725006  69.0435017
   5.3799987  30.6975006  68.4655017   5.3189987  31.6505006  67.4175017
   5.5419987  32.5285006  68.0045017   4.2809987  31.6795006  67.1185017
   6.2589987  31.5805006  66.1705017   6.3359987  32.5545006  65.7165017
   5.7479987  30.5775006  65.1535017   4.8059987  30.9205006  64.7485017
   5.5829987  29.6395006  65.6695017   6.7059987  30.4105006  64.1135017
   6.2659987  29.3385006  63.0385017   7.2259987  29.6135006  61.7925017
   8.2569987  30.5935006  61.8435017   8.9779987  30.3665006  62.6185017
   7.8189987  31.5535006  62.1015017   8.9659987  30.8225006  60.4655017
   9.9529987  31.1645006  60.7505017   8.4649987  31.6165006  59.9305017
   9.1919987  29.6985006  59.4385017   7.8499987  29.2145006  58.9625017
   7.2389987  28.9885006  59.8255017   8.0059987  28.3175006  58.3825017
   7.4029987  29.9755006  58.3405017   9.8669987  30.2715006  58.2615017
  10.7189987  30.8415006  58.5985017   9.1699987  30.8885006  57.7225017
  10.1929987  29.4475006  57.6435017  10.0029987  28.5875006  60.0105017
  10.9539987  28.9765006  60.3425017  10.1639987  27.8375006  59.2505017
   9.4759987  28.1485006  60.8455017   6.5869987  28.0045006  63.5895017
   4.8489987  29.5785006  62.6955017   7.5399987  31.2795006  66.6845017
   8.4759987  32.1595006  66.4765017   8.3909987  33.2075006  65.8665017
   9.6779987  31.7225006  67.2925017  10.5469987  31.9865006  66.6995017
   9.7199987  32.3515006  68.1785017   9.6709987  30.2205006  67.6745017
   9.2669987  29.6615006  66.8375017  10.6959987  29.8845006  67.7925017
   8.8679987  29.8895006  68.9325017   9.0009987  30.6805006  69.6655017
   7.8119987  29.8885006  68.6755017   9.2229987  28.5235006  69.5575017
   9.2909987  27.7695006  68.7755017  10.1959987  28.5485006  70.0415017
   8.1789987  28.0685006  70.5745017   7.8229987  28.9595006  71.0865017
   7.3349987  27.6925006  69.9995017   8.5689987  27.0305006  71.5915017
   8.6449987  26.0195006  71.1935017   9.4979987  27.2225006  72.1215017
   7.4339987  27.0935006  72.5735017   7.2959987  27.9715006  73.1935017
   6.4409987  26.7945006  72.2395017   7.9899987  26.0515006  73.2995017
   8.3249987  25.0285006  73.2205017   8.1139987  26.5925006  74.3815017
   8.5729987  25.7215006  74.8265017   7.9469987  27.9045006  75.4435017
   6.9809987  28.3435006  75.1995017   7.8549987  27.5075006  76.4485017
   8.9419987  28.9605006  75.4315017   9.2369987  29.0345006  74.3855017
   8.3639987  29.8575006  75.6475017  10.1869987  28.9425006  76.3105017
  10.8319987  28.1135006  76.0185017  10.7679987  29.8475006  76.1585017
   9.8419987  28.8105006  77.7585017   8.8059987  29.1075006  77.9055017
   9.9039987  27.7655006  78.0555017  10.7419987  29.6315006  78.6415017
  11.6039987  29.8725006  78.0215017  10.2169987  30.5695006  78.7965017
  11.2429987  29.1105006  79.9355017  10.3159987  29.1555006  80.5045017
  11.3739987  28.0675006  79.6545017  12.4119987  29.5195006  80.8655017
  13.2649987  29.2095006  80.2675017  12.3519987  30.6005006  80.7565017
  12.6739987  29.1875006  82.3375017  13.5509987  29.7145006  82.7015017
  12.8459987  28.1275006  82.4895017  11.8319987  29.4775006  82.9595017
 101.6359987  77.6785006  83.6235017 101.5349987  77.5885006  84.7005017
 100.6779987  78.0035006  83.2275017 102.3579987  78.4655006  83.4235017
 102.0619987  76.3975006  83.0135017 101.2899987  75.7245006  83.3835017
 102.9549987  76.1875006  83.5965017 102.3189987  76.1035006  81.5285017
 101.4849987  76.5195006  80.9625017 102.2579987  75.0245006  81.4045017
 103.6189987  76.5825006  80.9245017 104.4899987  76.0855006  81.3455017
 103.7939987  77.6505006  81.0455017 103.5419987  76.2635006  79.5055017
 103.1469987  77.0695006  78.8925017 102.9259987  75.3905006  79.2965017
 104.9569987  75.9825006  79.0875017 105.4919987  75.9625006  80.0355017
 105.2529987  76.9045006  78.5905017 105.3989987  74.7695006  78.2225017
 104.4179987  74.4085006  77.9205017 105.7359987  74.1055006  79.0175017
 106.3149987  74.6725006  77.0955017 106.1699987  73.8295006  76.4215017
 107.3779987  74.6975006  77.3275017 105.9659987  75.8315006  76.4515017
 106.9649987  76.2615006  76.4735017 105.4329987  76.2605006  77.2995017
 105.1249987  76.3245006  74.8945017 104.1129987  76.0195006  75.1515017
 105.5179987  75.5525006  74.2335017 105.0879987  78.0275006  73.9395017
 106.1119987  78.2915006  73.6845017 104.7369987  78.8015006  74.6205017
 104.3079987  78.0595006  72.7505017 103.2359987  78.1155006  72.9225017
 104.4669987  77.1975006  72.1055017 104.7919987  79.3165006  72.0175017
 105.7899987  79.1425006  71.6185017 104.8789987  80.1575006  72.6995017
 103.9209987  79.6935006  70.9045017 104.2959987  80.5915006  70.4245017
 102.9349987  79.9335006  71.2935017 103.7819987  78.6355006  69.9045017
 103.4399987  77.7185006  70.3675017 104.7329987  78.4465006  69.4195017
 103.0369987  79.2015006  68.6795017 103.0689987  80.3595006  68.3415017
 102.3529987  78.2195006  68.0595017 101.5239987  78.5335006  66.9615017
 101.2099987  79.5615006  67.0595017 100.7019987  77.8865006  67.2315017
 102.0029987  78.2505006  65.5025017 102.6859987  79.0255006  65.1945017
 100.8009987  78.2405006  64.5995017 100.1499987  79.0725006  64.8295017
 100.2559987  77.3185006  64.7615017 101.2549987  78.3195006  63.2475017
 100.5159987  79.2365006  62.1995017 100.8349987  78.3805006  60.9225017
 100.6099987  76.9815006  60.8975017 100.2169987  76.6715006  59.9375017
  99.8499987  76.7395006  61.6345017 101.8459987  76.1315006  61.2935017
 101.6019987  75.0925006  61.1105017 102.1149987  76.2465006  62.3335017
 103.0999987  76.4005006  60.5115017 102.7779987  76.3755006  59.0565017
 102.2439987  75.4615006  58.8365017 103.7089987  76.3935006  58.5085017
 102.1959987  77.2515006  58.8115017 103.6339987  77.7615006  60.9285017
 103.6769987  77.7975006  62.0065017 102.9899987  78.5275006  60.5345017
 104.6269987  77.8595006  60.5145017 104.1599987  75.4045006  60.8235017
 104.3739987  75.4325006  61.8815017 105.0519987  75.6495006  60.2665017
 103.8199987  74.4175006  60.5455017  99.0869987  79.2535006  62.5095017
 101.2779987  80.4985006  62.1015017 102.4979987  76.9275006  65.2585017
 103.7389987  77.0125006  65.1555017 104.4119987  78.0155006  65.4155017
 104.2169987  75.5295006  65.0375017 103.5279987  75.2595006  64.2435017
 105.1689987  75.7285006  64.5515017 104.3579987  74.3765006  66.1175017
 105.0259987  73.5915006  65.7795017 104.7669987  74.7355006  67.0565017
 102.9949987  73.7965006  66.3455017 102.3319987  74.6095006  66.0585017
 102.9229987  73.0535006  65.5555017 102.5169987  73.1675006  67.6485017
 101.8429987  72.3425006  67.4245017 103.3479987  72.7385006  68.2025017
 101.7789987  74.1615006  68.5535017 102.3559987  75.0795006  68.6455017
 100.8379987  74.4415006  68.0825017 101.5049987  73.6495006  69.8405017
 100.7559987  72.8615006  69.7775017 102.3889987  73.1975006  70.2805017
 100.9819987  74.7975006  70.8135017 100.6599987  74.3665006  71.7545017
 101.8049987  75.4705006  71.0505017  99.9159987  75.5675006  70.1985017
  99.2479987  75.0875006  69.4985017  99.6999987  76.8395006  70.4575017
  98.8849987  77.3515006  69.9655017 100.4919987  77.7115006  71.4105017
 101.2219987  77.0805006  71.9155017 101.0599987  78.4615006  70.8725017
  99.6219987  78.3995006  72.4845017 100.1079987  79.3325006  72.7685017
  98.6809987  78.6795006  72.0145017  99.3269987  77.5595006  73.7585017
  98.3739987  77.9015006  74.1615017  99.1749987  76.5285006  73.4515017
 100.3949987  77.6115006  74.8685017 100.0979987  76.9365006  75.6675017
 101.3349987  77.2265006  74.4785017 100.6209987  79.0255006  75.4325017
 101.2119987  79.5835006  74.7085017  99.6619987  79.5325006  75.4865017
 101.3279987  79.1065006  76.7755017 100.7149987  78.5675006  77.4955017
 102.2539987  78.5415006  76.6835017 101.6479987  80.4525006  77.3385017
 102.1919987  81.0705006  76.6285017 100.7249987  80.9885006  77.5515017
 102.4319987  80.3365006  78.5935017 102.5849987  81.3125006  79.0435017
 103.4099987  79.9005006  78.4215017 101.9169987  79.7145006  79.3195017
   6.6239987  73.1685006  81.2765017   5.8979987  72.3775006  81.1135017
   6.2229987  73.8345006  82.0355017   7.5239987  72.7125006  81.6805017
   6.9109987  73.8895006  80.0385017   6.0119987  74.3455006  79.6265017
   7.2909987  73.2185006  79.2725017   7.8759987  74.9175006  80.3185017
   8.6589987  74.5685006  80.9925017   7.4109987  75.7685006  80.8125017
   8.5029987  75.3955006  79.0325017   9.3889987  75.9545006  79.3245017
   7.8149987  76.1235006  78.6045017   8.8929987  74.3925006  77.9725017
   7.9949987  73.8775006  77.6395017   9.5189987  73.6385006  78.4475017
   9.6259987  74.9615006  76.7455017   9.9899987  74.1465006  76.1225017
  10.5059987  75.5165006  77.0645017   8.7459987  75.8585006  75.9245017
   8.2259987  76.5465006  76.5885017   7.9749987  75.2555006  75.4465017
   9.4829987  76.6425006  74.8755017  10.5269987  76.8655006  75.0925017
   9.0269987  77.5845006  74.5745017   9.4109987  75.6675006  73.7295017
   8.5979987  75.9015006  73.0445017   9.2369987  74.6475006  74.0705017
  10.5819987  75.7205006  73.0665017  11.2289987  75.7775006  73.9395017
  10.4879987  76.7385006  72.6895017  11.3479987  74.6815006  71.7935017
  10.8559987  73.7285006  71.6115017  12.4049987  74.4555006  71.9235017
  10.9479987  76.6375006  69.0375017  11.9579987  76.9495006  68.7815017
  10.4419987  77.5245006  69.4135017  10.2939987  76.2025006  67.9215017
   9.2709987  76.5145006  67.7175017  10.3879987  75.1935006  67.5305017
  11.1589987  77.0545006  67.2075017  12.1999987  77.0555006  67.5145017
  10.8439987  78.0935006  67.1605017  11.0389987  76.4025006  65.7025017
  10.0039987  76.3605006  65.3885017  11.4459987  75.3985006  65.6925017
  11.7919987  74.9845006  65.0275017  12.9629987  74.7865006  64.6135017
  11.1329987  74.0325006  65.4945017  11.9449987  72.8585006  65.3665017
  12.3989987  72.6275006  66.3185017  12.7109987  72.8765006  64.6045017
  10.9009987  71.8655006  65.0435017  11.4759987  70.9935006  64.7795017
  10.0189987  72.2845006  63.8645017   9.4159987  71.4285006  63.5925017
  10.7019987  72.4995006  63.0525017   9.1849987  73.4225006  64.1315017
   9.0479987  74.4975006  62.9775017   8.3379987  73.6275006  61.8595017
   6.9979987  73.2355006  62.0565017   6.3789987  74.0565006  62.3935017
   6.9509987  72.4765006  62.8325017   6.3999987  72.5705006  60.8045017
   5.3299987  72.6315006  60.9595017   6.6809987  71.5295006  60.7295017
   6.6529987  73.1685006  59.4395017   6.2249987  74.5995006  59.4285017
   5.2139987  74.6605006  59.8075017   6.2519987  74.9475006  58.4065017
   6.9149987  75.1765006  60.0255017   8.1019987  73.0715006  59.0745017
   8.4289987  72.0555006  59.2355017   8.6629987  73.7645006  59.6755017
   8.1899987  73.3275006  58.0285017   5.9439987  72.3315006  58.4455017
   6.3059987  71.3165006  58.5125017   6.1339987  72.7185006  57.4555017
   4.8819987  72.3555006  58.6455017   8.1619987  75.6025006  63.4195017
  10.3699987  74.8635006  62.4345017  10.0089987  71.5525006  66.1565017
  10.5429987  71.2815006  67.3105017  11.7179987  71.4005006  67.6005017
   9.4659987  70.9345006  68.3445017   8.8309987  71.8125006  68.4105017
   8.8449987  70.1505006  67.9185017  10.0229987  70.5155006  69.7315017
  10.5929987  69.6045006  69.5855017  10.7379987  71.2705006  70.0435017
   8.9889987  70.2875006  70.8405017   8.6299987  71.2425006  71.2145017
   8.1239987  69.7845006  70.4155017   9.5329987  69.4315006  72.0075017
   9.8659987  68.4705006  71.6185017  10.4079987  69.8985006  72.4535017
   8.4939987  69.1735006  73.1075017   7.7169987  68.5145006  72.7255017
   8.9749987  68.6345006  73.9215017   7.8469987  70.4505006  73.6775017
   7.2149987  70.8765006  72.8995017   7.1849987  70.1745006  74.4935017
   8.8149987  71.5105006  74.1745017   9.3789987  72.0375006  73.4135017
   8.3699987  72.2745006  74.8105017   9.6909987  70.6715006  74.9945017
  10.5999987  70.2555006  74.5875017   9.4179987  70.3995006  76.2625017
  10.1309987  69.7595006  76.7625017   8.2869987  70.8345006  77.1225017
   8.4559987  71.2125006  78.1295017   7.3669987  71.2925006  76.7775017
   8.1069987  69.3685006  77.2025017   7.0259987  69.2735006  77.1075017
   8.5239987  69.0515006  76.2485017   8.5939987  68.4585006  78.2765017
   7.8409987  67.7035006  78.5035017   9.4789987  67.9175006  77.9535017
   8.8889987  69.1855006  79.4465017   9.6759987  69.9265006  79.3235017
   8.0399987  69.7125006  79.8785017   9.3669987  68.0475006  80.4515017
   9.3189987  68.5195006  81.4315017   8.5639987  67.3155006  80.4345017
  10.6589987  67.3745006  80.3405017  10.5919987  66.3955006  80.8105017
  10.8719987  67.1905006  79.2895017  11.8559987  68.1355006  80.9575017
  11.5809987  68.3245006  81.9925017  12.6469987  67.3895006  80.9935017
  12.4579987  69.5115006  80.2915017  13.3469987  69.8395006  80.8215017
  11.7409987  70.3255006  80.3245017  12.7319987  69.3545006  79.2525017
  42.6209987 107.2755006  79.5185017  42.9769987 108.2805006  79.7225017
  43.1859987 106.5905006  80.1445017  41.5809987 107.2245006  79.8305017
  42.7649987 106.9335006  78.0815017  43.8119987 107.0205006  77.7945017
  42.2239987 107.6655006  77.4875017  42.2789987 105.5495006  77.7625017
  41.2099987 105.4325006  77.9385017  42.7689987 104.7995006  78.3805017
  42.5809987 105.2485006  76.3145017  43.6339987 105.4665006  76.1475017
  42.0259987 105.9525006  75.6965017  42.3009987 103.8485006  75.8485017
  42.6359987 103.7145006  74.8235017  41.2269987 103.6725006  75.8445017
  42.9339987 102.8715006  76.6725017  42.7479987 101.8255006  76.4365017
  42.8059987 102.9685006  77.7485017  44.3609987 103.2205006  76.3065017
  44.9409987 103.1175006  77.2225017  44.3589987 104.2825006  76.0665017
  45.0479987 102.4555006  75.1895017  44.4279987 102.0045006  74.4155017
  45.7919987 101.7075006  75.4565017  45.6819987 103.5625006  74.6745017
  46.5969987 103.8425006  75.1915017  45.0679987 104.4615006  74.6375017
  46.0049987 103.1415006  73.3105017  45.4139987 102.3595006  72.8385017
  47.0429987 102.9415006  73.0455017  45.5959987 104.5235006  72.7525017
  46.0719987 105.2015006  73.4575017  44.5299987 104.5585006  72.9725017
  45.8679987 105.1205006  71.1545017  45.2449987 104.3265006  70.7495017
  46.8849987 104.7315006  71.1685017  45.8249987 106.3435006  70.2375017
  44.8599987 106.8025006  70.4445017  45.7639987 105.9485006  69.2275017
  47.0289987 107.5885006  70.2855017  47.9469987 107.1945006  69.8625017
  47.2309987 107.8035006  71.3315017  46.7089987 108.7585006  69.6555017
  45.7769987 109.1525006  70.0395017  46.6049987 108.5965006  68.5895017
  47.1309987 108.6565006  68.2145017  48.2829987 108.6365006  67.8075017
  46.0639987 108.5365006  67.5035017  46.3769987 108.4055006  66.1075017
  47.3479987 108.8755006  66.0665017  45.6679987 109.0135006  65.5645017
  46.4459987 107.0105006  65.5315017  47.2109987 106.4465006  66.0395017
  46.7459987 107.0535006  64.0075017  47.4879987 106.2995006  63.7825017
  47.1689987 108.0285006  63.8015017  45.5639987 106.8445006  63.2205017
  45.6339987 107.1535006  61.6745017  44.2249987 106.6435006  61.0895017
  43.4769987 105.6315006  61.7765017  43.2759987 105.9425006  62.7935017
  44.0959987 104.7415006  61.8425017  42.1699987 105.1685006  61.0645017
  41.6999987 104.3895006  61.6515017  42.4199987 104.7675006  60.0925017
  41.1019987 106.1995006  60.8235017  41.6669987 107.1475006  59.8815017
  42.6299987 107.4705006  60.2525017  40.9989987 107.9935006  59.8195017
  41.7449987 106.6755006  58.9135017  39.8599987 105.5975006  60.2625017
  39.5829987 104.7515006  60.8725017  40.0409987 105.3055006  59.2435017
  39.0879987 106.3525006  60.3035017  40.6659987 106.9765006  62.0245017
  40.2969987 106.2935006  62.7755017  39.8799987 107.6595006  61.7385017
  41.5039987 107.5335006  62.4175017  45.7089987 108.6325006  61.4565017
  46.7319987 106.3915006  61.0805017  45.1809987 106.3765006  65.8265017
  45.2659987 105.0765006  65.9265017  46.2509987 104.4065006  65.6975017
  43.9749987 104.5075006  66.5345017  43.4839987 105.3325006  67.0395017
  43.3119987 104.2185006  65.7225017  44.2399987 103.3055006  67.4995017
  44.7739987 102.5415006  66.9455017  44.9129987 103.6315006  68.2855017
  42.9639987 102.6825006  68.1235017  42.4129987 102.1595006  67.3455017
  43.2789987 101.9225006  68.8345017  42.0469987 103.6705006  68.8405017
  41.6629987 104.4085006  68.1385017  41.1769987 103.1815006  69.2735017
  42.7999987 104.4045006  69.9455017  43.2489987 103.6865006  70.6285017
  43.6249987 104.9605006  69.5045017  41.9479987 105.3495006  70.7145017
  41.0569987 104.8605006  71.1065017  42.4619987 105.7795006  71.5695017
  41.5369987 106.4645006  69.7875017  42.2779987 106.8415006  69.0925017
  40.6299987 106.2985006  69.2075017  41.2469987 107.4515006  70.8435017
  40.2249987 107.4345006  71.1905017  41.9999987 108.2575006  71.3695017
  41.3989987 108.7235006  72.1375017  43.4479987 108.7885006  71.2945017
  44.0029987 107.9795006  70.8215017  43.4439987 109.6085006  70.5855017
  44.0959987 109.1525006  72.3795017  45.1499987 109.4195006  72.3195017
  43.6379987 109.8755006  73.0515017  43.9639987 107.8175006  72.9495017
  42.9559987 107.4185006  73.0635017  44.5609987 107.0175006  72.5205017
  44.4769987 108.1565006  74.2215017  43.9059987 108.9595006  74.6825017
  44.4379987 107.3185006  74.9155017  45.9009987 108.5805006  74.0405017
  46.5039987 107.9675006  73.3735017  46.0879987 109.6105006  73.7475017
  46.3839987 108.3485006  75.4455017  46.0149987 107.3675006  75.7405017
  47.4669987 108.2585006  75.3855017  46.0499987 109.3245006  76.5245017
  46.4009987 110.3285006  76.2965017  44.9709987 109.4055006  76.6325017
  46.6449987 108.8675006  77.8595017  46.3329987 109.5245006  78.6655017
  47.7299987 108.8675006  77.8415017  46.3189987 107.8615006  78.1085017
  28.9309987 100.8715006  82.2775017  28.2359987 101.6435006  82.5925017
  29.9329987 101.2005006  82.5385017  28.7169987  99.9775006  82.8575017
  28.8199987 100.6125006  80.8685017  28.9849987 101.5815006  80.4015017
  27.7679987 100.3795006  80.7265017  29.6039987  99.6675006  80.2405017
  28.9399987  99.1655006  79.5375017  29.8299987  98.9375006  81.0145017
  30.7609987  99.9965006  79.6075017  31.2159987  99.0715006  79.2615017
  31.4449987 100.4115006  80.3465017  30.6069987 101.3205006  77.9785017
  31.1059987 102.0915006  78.5595017  29.5429987 101.4255006  78.1825017
  30.8709987 101.5825006  76.4495017  30.5479987 100.6965006  75.9055017
  31.9479987 101.6495006  76.3095017  30.2719987 102.6965006  75.9025017
  30.6679987 103.5825006  76.3955017  29.2079987 102.6695006  76.1335017
  30.4439987 102.8255006  74.4935017  30.0279987 101.9795006  73.9485017
  31.4929987 102.8845006  74.2085017  29.7499987 104.0705006  74.0695017
  30.1909987 104.9725006  74.4875017  28.6959987 104.0915006  74.3455017
  29.8709987 104.1055006  72.5715017  29.3039987 103.2895006  72.1295017
  30.9069987 103.9565006  72.2695017  29.3809987 105.4285006  72.0295017
  30.1599987 106.1815006  72.1275017  28.5329987 105.7925006  72.6075017
  28.9819987 105.3355006  70.5485017  28.7139987 106.3325006  70.2075017
  28.0739987 104.7395006  70.4865017  30.0059987 104.7395006  69.6405017
  29.5919987 104.5535006  68.6515017  30.3809987 103.7845006  69.9975017
  31.1279987 105.6685006  69.4925017  31.9499987 105.6365006  70.2005017
  30.9029987 106.7175006  69.3195017  31.5769987 105.0415006  68.1705017
  30.7609987 105.0325006  67.4585017  31.9099987 104.0225006  68.3295017
  31.2799987 105.8165006  66.8735017  30.7809987 106.9225006  66.8735017
  31.9419987 105.2735006  65.8595017  31.9489987 105.9195006  64.6085017
  32.9179987 106.0705006  64.1565017  31.4119987 106.8565006  64.6135017
  31.1789987 104.8585006  63.8565017  31.7709987 103.9585006  63.8245017
  30.7409987 105.2335006  62.4635017  31.5749987 105.6575006  61.9205017
  29.9659987 105.9845006  62.5495017  30.2559987 104.1105006  61.8095017
  28.7839987 103.9965006  61.3335017  28.4029987 102.5875006  61.9335017
  29.1299987 101.4155006  61.5805017  30.1339987 101.3795006  61.9825017
  29.2269987 101.3245006  60.5025017  28.3159987 100.1875006  62.0175017
  27.9019987 100.5165006  62.9625017  28.8879987  99.2855006  62.1835017
  27.1219987  99.7745006  61.1625017  27.6399987  99.1335006  59.9165017
  28.3739987  99.7905006  59.4695017  26.8089987  99.0025006  59.2395017
  28.0589987  98.1705006  60.1665017  26.3489987  98.7395006  61.8835017
  26.1619987  99.0885006  62.8875017  26.9079987  97.8205006  61.8845017
  25.4149987  98.6085006  61.3565017  26.1959987 100.9295006  60.9605017
  25.8619987 101.2895006  61.9225017  25.3449987 100.6045006  60.3805017
  26.7129987 101.7185006  60.4335017  28.0019987 105.0465006  62.0145017
  28.7509987 103.9365006  59.8525017  29.9749987 104.6405006  64.5915017
  29.8049987 103.5045006  65.1945017  30.5459987 102.5385006  65.1975017
  28.5129987 103.6145006  65.9985017  28.4919987 104.5715006  66.5105017
  27.6439987 103.6075006  65.3455017  28.4739987 102.4265006  66.9895017
  28.5269987 101.5205006  66.3965017  29.3899987 102.4575006  67.5715017
  27.2619987 102.3425006  67.9285017  27.2399987 103.2065006  68.5875017
  26.3519987 102.3905006  67.3355017  27.2389987 101.0395006  68.7625017
  27.1369987 100.1845006  68.0975017  28.1749987 100.8985006  69.2975017
  26.0789987 101.0075006  69.7735017  25.1329987 101.1485006  69.2545017
  26.0319987 100.0195006  70.2275017  26.2089987 102.0565006  70.8915017
  27.1129987 101.8545006  71.4645017  26.3329987 103.0475006  70.4625017
  24.9879987 102.0795006  71.8505017  25.1819987 102.9335006  72.4885017
  24.1609987 102.3635006  71.2015017  24.5729987 100.8785006  72.6615017
  23.6129987 100.4445006  72.4255017  25.2819987 100.2955006  73.6305017
  24.9459987  99.4375006  74.1955017  26.6369987 100.7905006  74.0215017
  27.2429987  99.8875006  74.0715017  27.0139987 101.3615006  73.1805017
  26.8499987 101.5755006  75.2985017  27.9159987 101.7685006  75.4105017
  26.3769987 102.5475006  75.1745017  26.3149987 100.9145006  76.5695017
  25.2809987 100.6045006  76.4195017  26.8739987 100.0095006  76.7905017
  26.3879987 101.8585006  77.7605017  26.2509987 101.2995006  78.6835017
  27.3749987 102.3135006  77.8235017  25.3289987 102.9625006  77.6555017
  25.5989987 103.6085006  76.8215017  24.3809987 102.5075006  77.3835017
  25.1499987 103.8485006  78.9015017  24.1259987 104.2175006  78.8945017
  25.2319987 103.2015006  79.7725017  26.0629987 104.9995006  79.0845017
  26.9059987 104.7725006  78.4365017  25.5209987 105.8045006  78.5935017
  26.5849987 105.5115006  80.4475017  27.1669987 106.4195006  80.3205017
  27.2209987 104.7825006  80.9375017  25.7629987 105.7375006  81.1205017
  70.0479987  -0.3624994  77.5665017  70.4939987  -1.1284994  78.1935017
  68.9889987  -0.3144994  77.8045017  70.4899987   0.5905006  77.8435017
  70.2639987  -0.6534994  76.1185017  69.8479987  -1.6594994  76.1275017
  71.3429987  -0.7684994  76.1835017  69.8979987   0.0135006  74.8455017
  70.4529987  -0.3434994  73.9785017  70.0369987   1.0925006  74.8695017
  68.4479987  -0.2714994  74.6525017  67.8389987   0.3895006  75.2655017
  68.1919987  -1.2854994  74.9575017  68.0699987  -0.0744994  73.2115017
  68.6589987  -0.7514994  72.5985017  68.3629987   0.9335006  72.9215017
  66.5959987  -0.2794994  72.8955017  65.9819987   0.0835006  73.7175017
  66.3769987  -1.3404994  72.7985017  66.1899987   0.4405006  71.6045017
  66.8079987   1.3275006  71.4785017  65.1639987   0.7945006  71.6975017
  66.3079987  -0.4334994  70.3665017  65.7129987  -1.3264994  70.5565017
  67.3439987  -0.7634994  70.3135017  65.9019987   0.1655006  69.0245017
  64.8639987   0.4895006  69.0645017  65.9519987  -0.5984994  68.2495017
  66.7909987   1.3525006  68.6245017  67.8329987   1.0395006  68.6365017
  66.7009987   2.1415006  69.3705017  66.4319987   1.9145006  67.2565017
  65.5229987   2.5035006  67.3555017  66.1879987   1.0915006  66.5865017
  67.5239987   2.8065006  66.5975017  68.0889987   2.2555006  65.8495017
  68.2469987   3.1445006  67.3375017  66.8949987   3.9765006  65.9915017
  66.4929987   4.4395006  66.8915017  66.0549987   3.4995006  65.4945017
  67.4449987   5.0955006  65.0865017  68.2559987   5.5935006  65.6085017
  66.6539987   5.8295006  64.9605017  67.9199987   4.6695006  63.7305017
  67.1359987   4.1405006  63.2035017  68.7809987   4.0175006  63.8195017
  69.2659987   4.0695006  63.9315017  70.1689987   4.5205006  64.6245017
  69.3109987   3.0285006  63.1605017  70.5019987   2.2875006  63.1085017
  71.2549987   2.8385006  63.6485017  70.7889987   2.2185006  62.0695017
  70.3149987   0.8775006  63.7285017  71.2929987   0.4325006  63.6555017
  69.3039987  -0.0204994  63.1695017  69.4469987  -1.0454994  63.4855017
  69.3289987   0.0095006  62.0855017  68.0889987   0.4825006  63.6495017
  66.7409987  -0.1414994  63.3285017  66.5669987   0.2185006  61.7835017
  66.7099987   1.5625006  61.3135017  67.7359987   1.9135006  61.2905017
  66.1549987   2.2005006  61.9825017  66.0629987   1.6785006  59.9225017
  65.0229987   1.3985006  59.9985017  66.7129987   0.7645006  58.9935017
  67.2529987   1.3915006  58.3945017  67.2999987   0.0455006  59.4655017
  66.0449987   0.2945006  58.4105017  66.1459987   3.1115006  59.3925017
  66.8459987  -1.6144994  63.4055017  65.7059987   0.5415006  64.1155017
  69.8609987   1.0035006  65.1815017  70.8999987   0.7765006  65.7955017
  71.8119987   0.3585006  65.1325017  66.5659987   3.3005006  58.2095017
  65.7779987   4.0015006  60.1845017  70.9099987   1.1585006  67.3545017
  70.0039987   0.6605006  67.6855017  71.7339987   0.5605006  67.7355017
  70.9949987   2.6495006  67.8845017  71.9659987   3.0515006  67.6175017
  70.2649987   3.2545006  67.3565017  70.7909987   2.7925006  69.4045017
  70.1589987   1.9995006  69.7955017  71.7439987   2.7025006  69.9205017
  70.1849987   4.1565006  69.7335017  70.7219987   4.9185006  69.1715017
  69.1529987   4.2005006  69.3945017  70.2349987   4.5335006  71.2405017
  69.7549987   3.7385006  71.8085017  71.2799987   4.5345006  71.5445017
  69.6189987   5.8655006  71.6205017  69.4899987   5.9735006  72.6965017
  70.1999987   6.7235006  71.2935017  68.3329987   5.9115006  70.9815017
  67.7449987   6.7585006  71.3155017  68.4349987   6.0155006  69.9025017
  67.6109987   4.5765006  71.2835017  67.4809987   3.9235006  70.4335017
  67.1519987   4.1455006  72.4555017  66.7049987   3.1655006  72.5435017
  67.1949987   4.9185006  73.7455017  68.1859987   5.3525006  73.8695017
  66.4969987   5.7485006  73.7535017  66.9099987   3.9855006  74.9755017
  65.9299987   3.5235006  74.8585017  67.6319987   3.1715006  74.9695017
  66.9749987   4.6955006  76.3025017  67.6349987   5.5515006  76.1615017
  65.9849987   5.1025006  76.4905017  67.4139987   3.9395006  77.4595017
  68.4699987   3.7335006  77.3005017  67.3609987   4.6155006  78.3115017
  66.6919987   2.6755006  77.7895017  65.6569987   2.8065006  78.1005017
  66.6739987   1.9155006  77.0125017  67.4639987   2.1865006  78.9625017
  68.4099987   1.7205006  78.6925017  67.7079987   2.9745006  79.6725017
  66.6409987   1.2015006  79.6345017  67.3099987   0.7015006  80.3305017
  65.9759987   1.8075006  80.2465017  65.7919987   0.1365006  78.8745017
  65.1869987  -0.4404994  79.5675017  66.4149987  -0.5624994  78.3265017
  65.1199987   0.6085006  78.1625017  29.9509987   9.5585006  79.1915017
  30.6149987   9.3315006  80.0195017  29.2289987   8.7505006  79.1155017
  29.4059987  10.4645006  79.4435017  30.7789987   9.7405006  77.8035017
  31.3349987   8.8225006  77.6225017  31.5199987  10.5195006  77.9635017
  29.9889987  10.0435006  76.6575017  29.4059987  10.9485006  76.8305017
  29.2659987   9.2465006  76.4945017  30.8109987  10.2125006  75.3945017
  31.5259987   9.4085006  75.2325017  31.3819987  11.1385006  75.3485017
  29.7939987  10.1925006  74.2655017  30.3149987  10.4295006  73.3415017
  29.1009987  11.0125006  74.4445017  29.0019987   8.8955006  74.0695017
  28.1959987   9.0505006  73.3545017  28.5269987   8.5995006  75.0025017
  29.8999987   7.7625006  73.5795017  30.5729987   7.4285006  74.3665017
  30.5329987   8.0925006  72.7575017  29.0439987   6.5865006  73.1155017
  28.3479987   6.9225006  72.3475017  28.4339987   6.2295006  73.9435017
  29.8739987   5.4325006  72.5705017  29.6549987   4.5315006  73.1395017
  30.9309987   5.6425006  72.7305017  29.6369987   5.1695006  71.1155017
  28.5689987   5.0335006  70.9635017  30.1059987   4.2215006  70.8535017
  30.1699987   6.2785006  70.1725017  29.9089987   7.2605006  70.5625017
  29.7059987   6.2105006  69.1895017  31.6709987   6.2105006  70.0205017
  32.1539987   6.0175006  70.9755017  32.0639987   7.1625006  69.6685017
  32.0429987   5.1355006  69.0225017  31.4549987   5.2495006  68.1135017
  31.8249987   4.1415006  69.4025017  33.4679987   5.2075006  68.6535017
  34.1379987   5.0735006  69.4965017  33.7229987   6.1605006  68.1975017
  33.7339987   4.0235006  67.5645017  33.0529987   4.1175006  66.7285017
  33.5919987   3.0515006  68.0215017  34.6749987   4.4955006  66.4785017
  35.6589987   5.2485006  66.4765017  34.1679987   3.8885006  65.5485017
  34.6089987   4.4125006  64.3575017  34.5449987   3.6875006  63.5595017
  35.6439987   4.6845006  64.5055017  33.7609987   5.6435006  64.0255017
  32.7559987   5.5775006  64.4085017  33.7289987   5.7865006  62.5085017
  33.1319987   4.9815006  62.1025017  34.7489987   5.6685006  62.1655017
  33.2139987   7.0375006  62.1025017  31.6659987   7.3535006  62.2585017
  31.3959987   7.9025006  60.7995017  31.9849987   9.1335006  60.3665017
  32.2319987   9.1085006  59.3135017  32.9189987   9.2895006  60.8985017
  31.1079987  10.3765006  60.7065017  31.4279987  11.1335006  60.0015017
  31.3289987  10.7185006  61.7075017  29.5779987  10.3315006  60.6055017
  28.9739987   9.2985006  61.5185017  29.4759987   8.3555006  61.3525017
  27.9279987   9.2025006  61.2675017  29.0719987   9.6335006  62.5405017
  29.0619987  11.6585006  61.0375017  29.6009987  12.4265006  60.5035017
  29.1899987  11.7555006  62.1005017  28.0129987  11.6955006  60.7825017
  29.0139987  10.0645006  59.2435017  29.3599987  10.8255006  58.5595017
  27.9359987  10.0885006  59.2955017  29.3379987   9.0915006  58.9035017
  30.8799987   6.1285006  62.5125017  31.5329987   8.5095006  63.1685017
  34.4059987   6.8195006  64.5395017  33.7099987   7.5525006  65.3845017
  32.6309987   7.2665006  65.8735017  34.5289987   8.8095006  65.6865017
  35.4639987   8.4945006  66.1375017  34.7989987   9.3025006  64.7565017
  33.7359987   9.7565006  66.6065017  34.2569987  10.7075006  66.6295017
  32.7729987   9.9535006  66.1465017  33.5349987   9.2565006  68.0485017
  32.8179987   9.8775006  68.5795017  33.1159987   8.2535006  68.0355017
  34.8449987   9.2215006  68.7975017  35.5869987   8.6955006  68.1995017
  35.2329987  10.2255006  68.9485017  34.7389987   8.5275006  70.1475017
  34.0039987   8.9765006  70.8125017  34.4649987   7.4785006  70.0575017
  36.0669987   8.6145006  70.7615017  36.7509987   8.0055006  70.1725017
  36.4269987   9.6365006  70.6885017  36.1329987   8.1755006  72.2265017
  37.1299987   8.4325006  72.5645017  35.4499987   8.8365006  72.7575017
  35.8079987   6.8185006  72.5585017  36.4369987   6.0295006  72.1735017
  34.7889987   6.4585006  73.3225017  34.6689987   5.3995006  73.4985017
  33.7519987   7.3165006  74.0015017  33.7799987   8.2915006  73.5175017
  32.7619987   6.9145006  73.8175017  33.9429987   7.5195006  75.4805017
  33.0469987   7.8955006  75.9715017  34.2009987   6.5925006  75.9885017
  35.0299987   8.4775006  75.6505017  35.9889987   8.1225006  75.2735017
  34.8549987   9.4395006  75.1775017  35.1169987   8.6545006  77.0885017
  35.8329987   9.4705006  77.1515017  34.1429987   9.0865006  77.3135017
  35.4499987   7.5825006  78.1385017  34.5429987   6.9865006  78.2135017
  36.1859987   6.9445006  77.6565017  35.8959987   7.9205006  79.5315017
  36.6889987   8.6645006  79.4715017  35.0689987   8.4015006  80.0505017
  36.3859987   6.7595006  80.3785017  36.2429987   6.9615006  81.4375017
  35.7779987   5.8845006  80.1595017  37.8239987   6.4215006  80.1255017
  38.1149987   5.5345006  80.6805017  38.4879987   7.2255006  80.4255017
  37.9989987   6.2245006  79.0715017  83.0479987  98.4185006  76.7975017
  83.5369987  97.5975006  76.2835017  83.2639987  98.3215006  77.8575017
  83.5029987  99.3425006  76.4525017  81.6209987  98.4175006  76.5515017
  81.0689987  97.5565006  76.9235017  81.3119987  98.5565006  75.5185017
  81.2779987  99.5585006  77.3205017  82.0299987 100.3205006  77.1165017
  81.4089987  99.2785006  78.3635017  79.9719987 100.1295006  77.1635017
  80.0669987 101.2055006  77.2915017  79.3459987  99.7825006  77.9835017
  79.2739987  99.8595006  75.8535017  78.1979987  99.8785006  76.0065017
  79.5189987  98.8485006  75.5315017  79.6159987 100.7955006  74.7945017
  80.5229987 100.3235006  74.4205017  79.9399987 101.6415006  75.3965017
  78.7779987 101.3095006  73.6015017  77.9939987 101.8785006  74.0985017
  78.3079987 100.3965006  73.2395017  79.3219987 102.1355006  72.3755017
  80.3279987 101.7175006  72.3615017  79.3999987 103.0975006  72.8785017
  78.8649987 102.3475006  70.9905017  78.6439987 103.4125006  70.9725017
  77.9019987 101.8375006  70.9755017  79.6689987 101.9655006  69.7115017
  79.6129987 100.9155006  69.4335017  80.7289987 102.2165006  69.7435017
  78.9949987 102.8085006  68.6705017  79.6069987 103.7005006  68.5565017
  78.0499987 103.1425006  69.0955017  78.7479987 102.2285006  67.3115017
  78.2319987 102.9915006  66.7345017  78.0359987 101.4165006  67.4475017
  79.8999987 101.7195006  66.5585017  79.6889987 101.1635006  65.6465017
  80.6709987 101.1625006  67.0825017  80.4209987 102.9995006  66.1845017
  81.2489987 103.3675006  66.7815017  79.6799987 103.7945006  66.1505017
  80.9159987 102.7235006  64.7385017  80.1129987 102.3235006  64.1325017
  81.7319987 102.0105006  64.7485017  82.1699987 101.1615006  64.6255017
  82.8489987 100.6075006  65.5275017  82.9829987 101.2745006  63.4955017
  83.8849987 100.2095006  63.1905017  84.4259987  99.8975006  64.0715017
  84.5909987 100.4575006  62.4115017  82.9239987  99.0935006  62.7305017
  83.4649987  98.2575006  62.3195017  81.9969987  99.6985006  61.6535017
  81.5529987  98.8965006  61.0795017  82.6169987 100.2945006  60.9955017
  80.9799987 100.5085006  62.2505017  80.0419987 101.3725006  61.3095017
  78.9599987 100.2655006  60.9875017  78.1809987  99.6995006  62.0325017
  77.1169987  99.8565006  61.9095017  78.4479987 100.1395006  62.9895017
  78.5039987  98.2135006  62.1705017  78.0369987  97.8485006  63.0765017
  79.5749987  98.1065006  62.2655017  78.0839987  97.2505006  61.0705017
  78.7149987  97.5805006  59.7475017  78.5439987  98.6265006  59.5345017
  78.2399987  96.9735006  58.9915017  79.7679987  97.3455006  59.7925017
  78.4779987  95.8925006  61.5425017  78.1069987  95.7575006  62.5465017
  79.5489987  95.8045006  61.5035017  78.0199987  95.1745006  60.8785017
  76.6009987  97.3415006  60.8955017  76.1169987  97.1035006  61.8315017
  76.2889987  96.6385006  60.1375017  76.3349987  98.3435006  60.5905017
  79.3649987 102.4135006  62.1025017  80.7819987 101.7715006  60.1125017
  82.1489987  98.6225006  63.8525017  81.5159987  97.4995006  63.7715017
  81.5979987  96.7025006  62.8475017  80.6539987  97.3295006  65.0305017
  80.8689987  98.1735006  65.6775017  79.6069987  97.4245006  64.7555017
  80.9249987  95.9785006  65.7325017  80.2179987  95.8775006  66.5485017
  80.6989987  95.1755006  65.0385017  82.3509987  95.8095006  66.2795017
  82.4369987  94.8635006  66.8085017  83.0439987  95.7535006  65.4435017
  82.7799987  96.9655006  67.1945017  83.8059987  96.7715006  67.5005017
  82.8049987  97.8835006  66.6125017  81.9339987  97.2005006  68.4585017
  82.2949987  98.1005006  68.9525017  80.9169987  97.4185006  68.1385017
  81.8939987  96.0455006  69.4695017  81.6099987  95.1415006  68.9335017
  82.8969987  95.8735006  69.8505017  80.9309987  96.2525006  70.6765017
  81.0419987  95.4115006  71.3505017  81.2669987  97.1315006  71.2245017
  79.4899987  96.4495006  70.2865017  79.2309987  96.3205006  69.2465017
  78.4939987  96.7605006  71.1305017  77.4899987  96.8725006  70.7475017
  78.6129987  96.9775006  72.6175017  79.6579987  97.2195006  72.8025017
  78.0439987  97.8595006  72.8905017  78.2159987  95.8015006  73.5455017
  77.2659987  95.3665006  73.2365017  78.9519987  95.0025006  73.4775017
  78.1139987  96.2705006  75.0045017  79.1129987  96.2305006  75.4385017
  77.8229987  97.3175006  75.0075017  77.1609987  95.4795006  75.8735017
  76.2439987  95.2475006  75.3365017  77.5889987  94.5235006  76.1705017
  76.8399987  96.3015006  77.1285017  76.3819987  97.2125006  76.7475017
  76.0429987  95.7535006  77.6235017  77.8879987  96.6945006  78.1245017
  78.4449987  97.5625006  77.7765017  77.4289987  96.9885006  79.0665017
  78.8499987  95.5915006  78.3915017  78.4459987  94.7735006  78.9825017
  79.2179987  95.1395006  77.4735017  79.9919987  96.2035006  79.1125017
  80.7839987  95.4765006  79.2685017  79.7009987  96.5815006  80.0865017
  80.4099987  97.0325006  78.5485017  94.1669987  20.1165006  82.5125017
  93.3419987  20.7265006  82.8655017  95.0869987  20.6605006  82.7045017
  94.1889987  19.2115006  83.1135017  94.0319987  19.8175006  81.1645017
  93.9869987  20.7415006  80.5905017  93.0829987  19.3125006  81.0045017
  95.1399987  18.9865006  80.6595017  95.2409987  18.0485006  81.2055017
  96.0979987  19.4935006  80.7525017  94.8969987  18.6915006  79.2105017
  94.8999987  19.6415006  78.6805017  93.8889987  18.2935006  79.1095017
  95.8659987  17.7655006  78.5405017  95.7009987  16.7905006  78.9915017
  96.8469987  18.0965006  78.8775017  95.8819987  17.6095006  77.0065017
  95.9579987  18.6005006  76.5635017  94.9199987  17.2095006  76.6935017
  97.0129987  16.7125006  76.4495017  96.8159987  15.7125006  76.8315017
  97.9269987  17.0495006  76.9355017  97.2409987  16.6395006  74.9475017
  97.9869987  15.8845006  74.7055017  97.6289987  17.5825006  74.5665017
  96.0079987  16.3245006  74.2695017  95.2789987  17.1305006  74.3145017
  95.5119987  15.4435006  74.6735017  96.3819987  16.0685006  72.8295017
  95.8189987  15.2325006  72.4205017  97.4349987  15.8035006  72.7335017
  96.1079987  17.3225006  72.0215017  96.7509987  18.1235006  72.3815017
  95.0859987  17.6545006  72.1935017  96.3389987  17.1585006  70.5155017
  97.1039987  16.4075006  70.3355017  96.7229987  18.0895006  70.1025017
  95.0709987  16.7935006  69.7835017  94.2849987  17.5155006  69.9965017
  94.6849987  15.8245006  70.0875017  95.3049987  16.7845006  68.2765017
  94.5309987  16.1805006  67.8145017  96.2489987  16.2755006  68.1005017
  95.3539987  18.1595006  67.5845017  96.0979987  18.7925006  68.0515017
  94.3899987  18.6495006  67.6495017  93.9829987  18.7085006  67.2615017
  93.3949987  19.4115006  68.0585017  93.5359987  18.3045006  66.0795017
  92.3879987  19.0025006  65.5115017  92.0899987  19.6875006  66.2905017
  91.6189987  18.2535006  65.3865017  92.6169987  19.7105006  64.2905017
  91.7599987  20.3335006  64.0955017  93.0129987  18.9735006  63.0315017
  93.4909987  19.6565006  62.3415017  92.1109987  18.5895006  62.5715017
  93.8739987  17.9285006  63.3575017  95.3739987  17.8605006  63.0845017
  95.5619987  18.4855006  61.6255017  96.7729987  18.9295006  61.0935017
  97.5389987  18.1935006  61.2975017  97.0549987  19.8255006  61.6385017
  96.7809987  19.3315006  59.6405017  96.3059987  18.5695006  59.0345017
  97.7889987  19.4825006  59.2815017  96.0509987  20.5925006  59.3495017
  95.9019987  20.9225006  57.9285017  96.8739987  20.8695006  57.4575017
  95.5189987  21.9295006  57.8585017  95.1989987  20.2355006  57.4805017
  94.6879987  20.5575006  59.9715017  94.7909987  20.2675006  61.0065017
  94.0719987  19.8635006  59.4285017  94.2769987  21.5545006  59.9045017
  96.7439987  21.7325006  59.9345017  96.8299987  21.5875006  61.0015017
  96.1789987  22.6305006  59.7365017  97.7279987  21.8205006  59.4965017
  96.0869987  18.6705006  63.9965017  95.7519987  16.4695006  63.2385017
  93.5679987  20.4605006  64.6915017  93.6999987  21.3585006  64.0675017
  93.1799987  21.9865006  63.1635017  94.4359987  21.8005006  65.0185017
  95.2039987  21.9465006  64.2665017  93.8369987  22.7075006  65.0115017
  95.1699987  21.4865006  66.7235017  94.2809987  21.5735006  67.3385017
  95.3879987  20.4255006  66.6585017  96.4939987  22.3175006  67.5095017
  96.9529987  22.8505006  66.6815017  95.9649987  23.0655006  68.0955017
  97.4649987  21.7475006  68.2995017  97.7459987  20.7405006  67.9965017
  98.3929987  22.3075006  68.3905017  96.8659987  21.6765006  69.5355017
  96.5509987  22.6535006  69.8965017  95.9689987  21.0615006  69.5045017
  97.7769987  21.1035006  70.4615017  98.1339987  20.0955006  70.2565017
  98.6469987  21.6815006  70.7595017  96.8259987  21.0645006  71.5915017
  96.2239987  21.9455006  71.7825017  96.1459987  20.2145006  71.6255017
  97.8209987  20.8935006  72.5995017  98.4559987  20.0415006  72.4075017
  98.0909987  21.6405006  73.7425017  99.1079987  22.0045006  73.7185017
  97.3949987  22.0125006  74.8505017  98.1669987  21.9945006  75.6185017
  97.1579987  23.0575006  74.6825017  96.1429987  21.2835006  75.4045017
  95.6789987  20.8215006  74.5345017  96.5459987  20.4685006  76.0025017
  95.1009987  22.0095006  76.2005017  95.7829987  22.8595006  76.1965017
  94.5299987  22.0735006  75.2785017  94.2599987  22.1165006  77.2605017
  93.5799987  21.2775006  77.1285017  94.8839987  21.8705006  78.1175017
  93.5049987  23.3265006  77.5485017  94.1109987  24.2245006  77.6535017
  92.7229987  23.5775006  76.8375017  92.8949987  23.0145006  78.9035017
  93.6649987  22.5195006  79.4935017  92.7069987  23.9685006  79.3925017
  91.6739987  22.2125006  78.9665017  91.9519987  21.1615006  78.9435017
  91.2449987  22.3845006  79.9515017  90.1599987  22.5875006  77.4755017
  89.2689987  21.9995006  77.6745017  90.5019987  22.3335006  76.4775017
  89.8699987  23.6345006  77.4685017  11.0139987  21.9815006  77.8525017
  10.2869987  21.9405006  78.6575017  11.3539987  23.0095006  77.7655017
  11.8669987  21.3765006  78.1475017  10.4389987  21.5025006  76.5885017
   9.5679987  22.1155006  76.3615017  10.0679987  20.4945006  76.7555017
  11.4039987  21.5205006  75.3785017  12.3289987  20.9835006  75.5875017
  11.6969987  22.5375006  75.1245017  10.7229987  20.8965006  74.1655017
  11.3989987  20.9145006  73.3135017   9.8519987  21.4805006  73.8715017
  10.3009987  19.4535006  74.4225017   9.3969987  19.2405006  73.8575017
  10.0339987  19.3575006  75.4735017  11.3549987  18.4135006  74.0755017
  10.9489987  17.4275006  74.2935017  12.2029987  18.5475006  74.7435017
  11.8469987  18.4505006  72.6165017  12.7049987  17.7815006  72.5865017
  12.2409987  19.4555006  72.4725017  10.8949987  18.1075006  71.4575017
  10.4709987  17.1295006  71.6815017  11.5139987  17.9745006  70.5725017
   9.7639987  19.0875006  71.1385017  10.1379987  20.0995006  71.2745017
   8.9739987  18.9535006  71.8765017   9.1669987  18.9505006  69.7265017
   8.4969987  18.0935006  69.7265017   9.9739987  18.7065006  69.0365017
   8.4269987  20.1965006  69.2175017   9.1029987  21.0425006  69.1185017
   7.6429987  20.5145006  69.9025017   7.8109987  19.9065006  67.8425017
   7.1099987  19.0825006  67.9515017   8.6049987  19.5465006  67.1905017
   7.1269987  21.0935006  67.1675017   6.3119987  21.4035006  67.8195017
   6.6649987  20.7445006  66.2485017   7.9799987  22.3235006  66.8615017
   9.0089987  22.0595006  66.6395017   8.0049987  22.9955006  67.7155017
   7.3749987  23.0865006  65.6495017   6.3369987  23.3315006  65.8355017
   7.4339987  22.4795006  64.7535017   8.3689987  24.1505006  65.1625017
   9.3409987  24.4585006  65.8175017   8.0229987  24.6605006  63.9695017
   8.7749987  25.8165006  63.4655017   9.1859987  26.2575006  64.3605017
   8.0779987  26.5105006  63.0175017   9.9289987  25.4475006  62.4595017
  10.4189987  26.3585006  62.1565017   9.3409987  24.7025006  61.1875017
   8.5759987  25.3545006  60.7885017   8.8659987  23.8175006  61.5925017
  10.2729987  24.3435006  60.1685017  11.3509987  23.1855006  60.2785017
  10.6339987  22.0795006  61.2045017   9.6289987  21.3045006  60.5735017
  10.0119987  20.7225006  59.7455017   8.8619987  21.9555006  60.1635017
   8.8969987  20.4075006  61.5885017   8.1949987  19.8025006  61.0295017
   8.3469987  21.0235006  62.2845017   9.6929987  19.4405006  62.4305017
  10.6979987  18.6605006  61.6425017  10.1999987  18.2175006  60.7905017
  11.0899987  17.8825006  62.2805017  11.4979987  19.3215006  61.3435017
  10.4149987  20.1845006  63.5215017   9.7079987  20.8245006  64.0255017
  11.2189987  20.7515006  63.0875017  10.8059987  19.4495006  64.2095017
   8.7449987  18.4835006  63.0675017   8.0319987  19.0335006  63.6645017
   9.2979987  17.8035006  63.6985017   8.2269987  17.9245006  62.3015017
  11.5709987  22.6725006  58.9105017  12.5169987  23.7365006  60.9855017
  10.8919987  24.6255006  63.1235017  11.6539987  25.1655006  64.0515017
  11.6669987  26.3325006  64.4075017  12.5939987  24.0925006  64.5885017
  12.0229987  23.1755006  64.6965017  13.3639987  23.8785006  63.8515017
  13.2079987  24.5405006  65.9095017  13.8159987  25.4185006  65.7225017
  12.4149987  24.8615006  66.5765017  14.0609987  23.4795006  66.5935017
  14.9089987  23.2845006  65.9415017  14.4669987  23.9485006  67.4865017
  13.3879987  22.1525006  66.9975017  12.8789987  21.7305006  66.1325017
  14.1289987  21.4175006  67.3025017  12.3749987  22.3185006  68.1125017
  11.6519987  23.1005006  67.8885017  11.7999987  21.4055006  68.2525017
  13.0849987  22.6475006  69.4105017  14.0459987  22.1375006  69.4675017
  13.2949987  23.7095006  69.5015017  12.2259987  22.2235006  70.5765017
  12.0699987  21.1535006  70.5045017  12.8029987  22.3885006  71.4855017
  10.9269987  22.9505006  70.6975017  10.1419987  22.8565006  69.9625017
  10.6909987  23.7325006  71.7325017   9.7669987  24.2745006  71.8745017
  11.7159987  23.9445006  72.8475017  11.9469987  23.0315006  73.3945017
  12.6679987  24.3755006  72.5605017  10.9339987  24.9755006  73.8715017
  11.7469987  25.6715006  74.0755017  10.2859987  25.4695006  73.1495017
  10.2149987  24.7395006  75.0495017   9.2569987  24.3085006  74.7575017
  10.7399987  23.9665006  75.6035017   9.9589987  25.9925006  76.0005017
  10.7869987  26.1325006  76.6925017   9.8789987  26.9165006  75.4305017
   8.5159987  25.7415006  76.8655017   8.7409987  24.8135006  77.3875017
   8.5789987  26.5265006  77.6145017   6.9089987  25.6315006  76.2605017
   6.5719987  26.6215006  75.9585017   6.9109987  25.0245006  75.3575017
   6.0889987  25.1625006  77.0425017   5.1009987  25.0825006  76.5955017
   6.3759987  24.1475006  77.3085017   6.0139987  25.8935006  78.1585017
   5.3529987  25.4255006  78.8815017   5.6319987  26.8905006  77.9655017
   6.9909987  25.9995006  78.6225017  99.1769987  82.9945006  78.8065017
  99.3379987  82.8865006  79.8745017 100.1389987  82.8885006  78.3145017
  98.5489987  82.1695006  78.4815017  98.5259987  84.3535006  78.4725017
  99.1689987  85.1515006  78.8405017  97.5929987  84.4345006  79.0235017
  98.2739987  84.5605006  76.9815017  97.4559987  85.2695006  76.8515017
  97.9289987  83.6205006  76.5555017  99.5039987  85.0445006  76.1715017
 100.2629987  84.2665006  76.2155017  99.9329987  85.9125006  76.6705017
  99.2349987  85.3865006  74.6965017 100.1139987  85.8155006  74.2225017
  98.4489987  86.1355006  74.6155017  98.8189987  84.1345006  73.9275017
  97.8219987  83.8395006  74.2495017  99.4819987  83.3165006  74.2015017
  98.8299987  84.3055006  72.3985017  98.4789987  83.3755006  71.9545017
  99.8649987  84.4225006  72.0815017  97.9969987  85.4745006  71.8505017
  98.5559987  86.4015006  71.9755017  97.0929987  85.5815006  72.4475017
  97.6119987  85.3125006  70.3775017  97.0039987  84.4185006  70.2565017
  98.5099987  85.1525006  69.7815017  96.8749987  86.4825006  69.8455017
  97.5209987  87.3495006  69.7235017  96.0669987  86.7945006  70.5065017
  96.2809987  86.0665006  68.4765017  96.1189987  84.9905006  68.4925017
  97.0249987  86.2485006  67.7035017  95.0349987  86.7105006  68.1025017
  94.2309987  86.6715006  68.8335017  94.6029987  86.3845006  67.1585017
  95.4949987  88.0415006  67.9535017  95.7439987  88.2425006  68.9945017
  94.5449987  88.5345006  67.7675017  96.5729987  88.6865006  67.0775017
  97.3749987  87.9555006  67.0575017  96.9219987  89.5205006  67.6815017
  96.3389987  89.1435006  65.7855017  95.5189987  89.8505006  65.7765017
  96.0919987  88.3155006  65.1315017  96.8479987  90.0475006  64.8915017
  96.2299987  90.9805006  64.4165017  97.8749987  89.4465006  64.6315017
  98.6129987  90.2915006  63.8415017  98.6799987  91.1685006  64.4675017
  98.1789987  90.5685006  62.8915017  99.9849987  89.6745006  63.6525017
 100.5649987  90.4185006  63.1315017  99.9719987  88.3465006  62.8375017
 100.9939987  88.1085006  62.5755017  99.4209987  88.5575006  61.9295017
  99.3679987  87.2545006  63.5465017  99.9699987  85.7925006  63.6305017
  99.9169987  85.3735006  62.0705017  98.6309987  85.0365006  61.5295017
  97.9019987  85.7905006  61.7955017  98.2999987  84.1115006  61.9925017
  98.6109987  84.7515006  59.9725017  97.5829987  84.5275006  59.7155017
  99.2229987  83.8935006  59.7335017  99.0479987  85.8595006  59.0135017
 100.5339987  85.8315006  58.9135017 100.9469987  85.8415006  59.9125017
 100.8489987  86.7165006  58.3805017 100.8319987  84.9515006  58.3625017
  98.5529987  85.7605006  57.6015017  97.4859987  85.6005006  57.6225017
  99.0619987  84.9525006  57.1065017  98.7769987  86.6985006  57.1145017
  98.5929987  87.2085006  59.4605017  97.5159987  87.2105006  59.5445017
  98.9009987  87.9455006  58.7335017  99.0359987  87.4395006  60.4185017
 101.3639987  85.8945006  64.0985017  99.0209987  84.9845006  64.4315017
 100.5569987  89.5875006  64.9585017 101.6739987  88.9245006  65.1285017
 102.4899987  88.6395006  64.2715017 101.8079987  88.6765006  66.6315017
 102.5329987  87.8785006  66.7495017 102.2569987  89.5555006  67.0865017
 100.4509987  88.3315006  67.3005017  99.6959987  89.0505006  67.0015017
 100.0919987  87.3635006  66.9665017 100.5769987  88.3415006  68.8265017
  99.6409987  88.0015006  69.2625017 101.3269987  87.6055006  69.1075017
 100.9739987  89.6975006  69.4245017 101.8319987  90.0555006  68.8585017
 100.1699987  90.4055006  69.2385017 101.3299987  89.7335006  70.9135017
 102.2629987  89.1875006  71.0365017 101.5519987  90.7715006  71.1545017
 100.3459987  89.2325006  71.8705017  99.9709987  88.2435006  71.6115017
 100.7179987  89.1615006  72.8885017  99.3169987  90.1255006  71.8435017
  99.4509987  91.1165006  72.2615017  98.7779987  90.2585006  70.9065017
  98.4929987  89.2625006  72.7525017  98.3859987  88.1905006  72.6755017
  97.8479987  89.8675006  73.7505017  97.2119987  89.2155006  74.3315017
  97.8499987  91.3375006  74.2305017  98.7419987  91.9115006  73.9855017
  97.0049987  91.9775006  74.0025017  97.8679987  91.0795006  75.5245017
  97.7889987  92.0685006  75.9735017  96.9049987  90.5965006  75.6825017
  98.8409987  90.3635006  76.1665017  99.7829987  90.2765006  75.6245017
  99.0959987  90.7075006  77.1655017  98.1859987  88.9945006  76.2545017
  97.1109987  89.1445006  76.3265017  98.3579987  88.4705006  75.3155017
  98.6459987  88.1665006  77.3565017  98.2829987  87.1515006  77.2025017
  99.7299987  88.1015006  77.3275017  98.2009987  88.6105006  78.6965017
  98.7629987  88.0955006  79.4735017  98.4049987  89.6715006  78.8295017
  96.7519987  88.3765006  78.9285017  96.5699987  88.7545006  79.9315017
  96.2809987  89.0885006  78.2535017  96.1169987  87.1155006  78.7765017
  95.0439987  87.2055006  78.9135017  96.4769987  86.3905006  79.4985017
  96.2909987  86.7075006  77.7845017  86.5509987  94.7565006  79.2025017
  85.8809987  94.7365006  80.0565017  87.2969987  93.9805006  79.3475017
  85.9719987  94.4945006  78.3215017  87.1809987  96.0785006  79.0485017
  87.7129987  96.3065006  79.9705017  86.3859987  96.8145006  78.9645017
  88.1479987  96.2075006  77.8615017  87.6929987  95.8765006  76.9285017
  89.0289987  95.5855006  78.0045017  88.5979987  97.6545006  77.7145017
  89.4019987  97.6965006  76.9835017  89.0269987  97.9985006  78.6545017
  87.5259987  98.5865006  77.2935017  86.7789987  98.5765006  78.0835017
  87.0589987  98.1255006  76.4245017  87.8699987  99.9955006  76.9745017
  88.8369987  99.9885006  76.4755017  88.0189987 100.5155006  77.9185017
  86.8609987 100.7795006  76.1165017  87.4629987 101.4675006  75.5265017
  86.3029987 101.3925006  76.8225017  85.9079987 100.0705006  75.2215017
  85.1169987  99.5785006  75.7865017  86.4019987  99.2895006  74.6465017
  85.2959987 101.0675006  74.2785017  86.0439987 101.7265006  73.8435017
  84.5779987 101.7135006  74.7815017  84.6089987 100.3215006  73.1955017
  83.6859987 100.8755006  73.0365017  84.3219987  99.3765006  73.6555017
  85.2269987 100.0675006  71.9785017  85.9949987  99.3045006  72.0845017
  85.7299987 100.9505006  71.5895017  84.2079987  99.5825006  70.9615017
  83.5909987 100.3925006  70.5805017  83.5229987  98.8565006  71.3965017
  84.9549987  98.9215006  69.8285017  84.2499987  98.6605006  69.0405017
  85.4029987  97.9885006  70.1575017  86.0289987  99.7985006  69.2215017
  86.9589987  99.6855006  69.7695017  85.7309987 100.8395006  69.3175017
  86.2809987  99.4935006  67.7235017  85.3589987  99.5675006  67.1615017
  86.6819987  98.4945006  67.6045017  87.4979987 100.1905006  67.1905017
  88.1739987 101.0355006  67.7395017  87.7189987  99.6445006  65.9855017
  88.9059987 100.0735006  65.3415017  89.5889987 100.4705006  66.0735017
  88.5349987 100.8855006  64.7325017  89.6229987  98.9855006  64.4565017
  90.5799987  99.3735006  64.1445017  88.8009987  98.5895006  63.2375017
  88.4749987  99.4915006  62.7375017  87.9279987  98.0545006  63.5835017
  89.5429987  97.7465006  62.3565017  89.1939987  97.5955006  60.8135017
  88.0329987  96.4805006  60.8025017  87.9489987  95.5065006  61.8355017
  88.0909987  96.0355006  62.7695017  88.7229987  94.7565006  61.7365017
  86.5809987  94.8025006  61.8355017  86.3219987  94.5035006  60.8315017
  86.6209987  93.9275006  62.4695017  85.4729987  95.7115006  62.2935017
  85.7039987  96.1925006  63.1475017  85.3629987  96.4465006  61.4955017
  84.6069987  95.2175006  62.4245017  88.5809987  98.8395006  60.3315017
  90.3839987  97.0915006  60.1105017  89.7309987  97.7525006  65.1275017
  90.4109987  97.8535006  66.1465017  91.1629987  98.7665006  66.4775017
  90.0529987  96.6055006  66.8555017  89.0899987  96.2165006  66.5415017
  90.7619987  95.7935006  66.7135017  90.0349987  97.0665006  68.2945017
  90.9039987  96.5975006  68.7425017  90.2549987  98.1285006  68.2535017
  88.9129987  96.8415006  69.1185017  88.0179987  97.3165006  68.7245017
  88.6899987  95.7795006  69.1825017  89.1959987  97.3425006  70.4705017
  89.9699987  96.7715006  70.9805017  89.5079987  98.3835006  70.5145017
  87.9459987  97.1915006  71.2155017  87.3079987  98.0435006  70.9905017
  87.4329987  96.3165006  70.8225017  88.0689987  97.0495006  72.6555017
  88.2829987  98.0535006  73.0185017  87.0759987  96.7975006  73.0185017
  89.0409987  96.1005006  73.2395017  90.0119987  96.2025006  72.7685017
  89.1879987  96.3175006  74.2965017  88.5419987  94.7605006  73.1115017
  88.9759987  94.1995006  72.2975017  87.6409987  94.1365006  73.8635017
  87.4219987  93.1175006  73.5795017  86.8729987  94.6175006  75.0565017
  87.2339987  94.1285006  75.9595017  86.9629987  95.6835006  75.2315017
  85.3899987  94.2535006  74.8725017  85.2919987  93.2215006  74.5365017
  84.8769987  94.3105006  75.8305017  84.6909987  95.1905006  73.8665017
  85.2649987  95.1655006  72.9405017  83.7179987  94.7665006  73.6325017
  84.5239987  96.6055006  74.3015017  85.4159987  97.1665006  74.5695017
  83.9209987  97.2695006  73.6845017  83.7609987  96.2485006  75.5275017
  82.8939987  96.9055006  75.4995017  83.3829987  95.2495006  75.3265017
  84.4349987  96.3195006  77.1335017  85.0099987  95.3995006  77.2245017
  85.1639987  97.1265006  77.0805017  83.4509987  96.5335006  78.6365017
  82.6579987  95.8215006  78.4205017  84.1269987  96.0255006  79.3215017
  82.7959987  97.8865006  79.4205017  82.3339987  97.6005006  80.3605017
  82.0359987  98.3745006  78.8195017  83.5649987  98.6215006  79.6395017
 107.9679987  72.5015006  77.9625017 107.7209987  72.6975006  79.0015017
 107.0449987  72.2625006  77.4425017 108.3569987  73.4215006  77.5365017
 108.9589987  71.3925006  77.8405017 108.4979987  70.5495006  78.3515017
 109.7939987  71.7065006  78.4605017 109.4609987  70.9375006  76.4785017
 109.6119987  69.8595006  76.5325017 110.4499987  71.3735006  76.3485017
 108.6199987  71.2675006  75.2455017 108.5519987  72.3465006  75.1265017
 107.5979987  70.9135006  75.3735017 109.2099987  70.6665006  73.9575017
 109.1769987  69.5805006  73.9905017 110.2609987  70.9385006  73.8705017
 108.4599987  71.1475006  72.7155017 108.9119987  70.6845006  71.8405017
 108.6199987  72.2185006  72.6095017 106.9499987  70.8585006  72.7205017
 106.7049987  70.0925006  73.4535017 106.6259987  70.4715006  71.7555017
 106.1659987  72.1345006  73.0415017 106.4489987  72.9005006  72.3205017
 106.4869987  72.4995006  74.0155017 104.6439987  71.9765006  73.0395017
 104.2119987  72.8095006  73.5895017 104.3909987  71.0785006  73.6005017
 104.0059987  71.9005006  71.6515017 102.9229987  71.9135006  71.7535017
 104.2579987  70.9475006  71.1865017 104.4619987  73.0465006  70.7325017
 104.0339987  72.8775006  69.7465017 105.5419987  72.9855006  70.6085017
 104.0919987  74.4305006  71.1775017 104.4909987  74.5625006  72.1805017
 103.0079987  74.4515006  71.2765017 104.5129987  75.5655006  70.3035017
 105.5509987  75.7675006  70.5605017 103.9459987  76.4375006  70.6175017
 104.4259987  75.4395006  68.8645017 103.4629987  74.9735006  68.6815017
 105.1849987  74.7015006  68.6185017 104.5859987  76.6025006  67.9555017
 105.5269987  77.1035006  68.1435017 103.7789987  77.3105006  68.1025017
 106.0009987  76.8025006  67.6395017 106.8169987  76.8395006  68.5355017
 106.2179987  76.8335006  66.3725017 107.4979987  76.7055006  65.8355017
 108.1459987  77.0425006  66.6305017 107.6699987  77.3125006  64.9585017
 107.7569987  75.1895006  65.5295017 108.8179987  75.1795006  65.3435017
 106.9969987  74.4735006  64.3435017 107.5799987  74.6955006  63.4605017
 106.0589987  75.0115006  64.2845017 106.7599987  73.0735006  64.4445017
 107.7509987  72.1865006  63.6495017 107.3629987  72.4085006  62.0885017
 107.9389987  71.3655006  61.2515017 107.4839987  70.4015006  61.4395017
 108.9949987  71.2585006  61.4845017 107.8889987  71.7175006  59.7545017
 108.4699987  70.9375006  59.2795017 108.3859987  72.6645006  59.5995017
 106.6339987  71.7935006  59.0015017 105.6679987  72.5955006  59.8025017
 105.6319987  72.1915006  60.8045017 104.6969987  72.5065006  59.3395017
 105.9799987  73.6295006  59.7955017 106.7849987  72.5285006  57.7205017
 107.6349987  72.1245006  57.1915017 106.9129987  73.5755006  57.9295017
 105.8829987  72.3685006  57.1485017 106.1989987  70.3935006  58.7745017
 106.9709987  69.8635006  58.2365017 105.2889987  70.3945006  58.1935017
 106.0199987  69.9125006  59.7255017 109.1009987  72.7395006  63.8505017
 107.5319987  70.7605006  63.9285017 107.5009987  74.4895006  66.7655017
 108.5599987  74.4285006  67.5435017 109.6859987  74.7935006  67.2485017
 108.1499987  73.9005006  68.9135017 107.3279987  74.5085006  69.2785017
 107.7559987  72.8915006  68.8225017 109.3649987  73.9395006  69.8655017
 109.1149987  73.3095006  70.7125017 110.1869987  73.4465006  69.3565017
 109.8189987  75.3175006  70.3785017 110.6939987  75.6555006  69.8295017
 109.0369987  76.0475006  70.1825017 110.1129987  75.3095006  71.8805017
 109.3819987  74.7055006  72.4145017 111.0859987  74.8845006  72.1135017
 110.0519987  76.7355006  72.4305017 110.9169987  77.3155006  72.1165017
 109.1799987  77.2545006  72.0375017 109.9699987  76.7315006  73.9705017
 110.9629987  76.4775006  74.3375017 109.7729987  77.7485006  74.2975017
 108.9549987  75.8165006  74.6045017 108.9719987  74.7455006  74.4415017
 108.6709987  75.9635006  75.6455017 108.0049987  76.4345006  73.7915017
 107.7359987  76.3815006  72.7475017 107.3349987  77.2085006  74.5145017
 106.7969987  77.5385006  73.6375017 106.8159987  77.9935006  76.0195017
 107.4079987  77.4725006  76.7705017 107.2169987  78.9995006  75.9615017
 104.7979987  78.0735006  76.6995017 104.9919987  78.2045006  77.7635017
 104.5449987  79.0595006  76.3145017 103.3079987  76.9065006  76.4625017
 102.6049987  77.2705006  77.2115017 102.9119987  77.2155006  75.4995017
 103.3639987  75.3615006  76.5245017 104.0589987  75.3115006  75.6895017
 103.9729987  75.3645006  77.4265017 102.5379987  74.2285006  76.5285017
 101.7069987  74.4885006  77.1815017 102.1219987  74.1735006  75.5265017
 103.0699987  72.8265006  76.9645017 102.3369987  72.1305006  76.5605017
 103.9719987  72.6935006  76.3695017 103.3649987  72.4425006  78.3465017
 104.0999987  73.1075006  78.7925017 102.4639987  72.5535006  78.9455017
 103.8419987  71.0315006  78.4535017 103.9689987  70.7455006  79.4935017
 104.7959987  70.8875006  77.9575017 103.1299987  70.3435006  78.0055017
  23.0699987  11.3765006  79.1395017  23.6229987  12.3095006  79.1775017
  23.3319987  10.7995006  80.0215017  22.0119987  11.6165006  79.2055017
  23.3739987  10.6105006  77.8775017  24.4479987  10.4375006  77.8475017
  23.1459987  11.2635006  77.0395017  22.6429987   9.2725006  77.7165017
  21.5669987   9.4385006  77.6565017  22.8049987   8.6635006  78.6035017
  23.1029987   8.4725006  76.4855017  22.6329987   7.4925006  76.5175017
  24.1749987   8.2945006  76.5545017  22.7799987   9.1295006  75.1285017
  23.4769987   9.9325006  74.9035017  21.7899987   9.5825006  75.1515017
  22.8349987   8.0905006  73.9985017  21.9249987   7.4935006  74.0145017
  23.6549987   7.4005006  74.1845017  23.0049987   8.7145006  72.6125017
  23.9109987   9.3175006  72.6005017  22.1809987   9.4015006  72.4265017
  23.0689987   7.6795006  71.4785017  22.2889987   6.9295006  71.6035017
  24.0149987   7.1425006  71.5055017  22.9099987   8.3465006  70.1215017
  23.3759987   9.3295006  70.1395017  21.8529987   8.5145006  69.9175017
  23.5049987   7.5365006  69.0115017  22.9429987   6.6255006  68.8195017
  24.5269987   7.2255006  69.2255017  23.5009987   8.4285006  67.7635017
  23.9249987   9.3845006  68.0615017  22.4609987   8.6255006  67.5095017
  24.1929987   7.9725006  66.5975017  25.2649987   7.9055006  66.7665017
  24.0589987   8.6635006  65.7665017  23.6769987   6.7035006  66.2205017
  23.9989987   6.0515006  67.0305017  24.2629987   6.4205006  65.3505017
  22.3389987   6.4425006  65.9685017  21.6959987   6.8255006  66.7535017
  22.1609987   5.3725006  65.9105017  21.9169987   7.1085006  64.5675017
  22.5679987   6.7655006  63.7735017  21.9819987   8.1885006  64.6285017
  20.4659987   7.0875006  64.2355017  19.6249987   7.3275006  65.0485017
  20.2369987   6.5975006  62.9545017  18.9269987   6.5835006  62.4895017
  18.2969987   6.5275006  63.3645017  18.7679987   5.7035006  61.8835017
  18.6189987   7.8725006  61.6875017  17.5789987   7.8575006  61.4065017
  19.5059987   8.0005006  60.4205017  19.2269987   7.2275006  59.7175017
  20.5299987   7.8335006  60.7305017  19.3689987   9.3035006  59.8185017
  20.7579987   9.9515006  59.3555017  21.4019987  10.1715006  60.8045017
  22.8059987   9.9495006  60.9195017  23.3779987  10.6515006  60.3265017
  23.0489987   8.9595006  60.5445017  23.2769987   9.9525006  62.3875017
  24.3119987   9.6355006  62.3685017  22.6999987   9.2235006  62.9375017
  23.2489987  11.2325006  63.2285017  24.0109987  12.3455006  62.5895017
  24.9959987  11.9845006  62.3285017  24.0959987  13.1465006  63.3085017
  23.4659987  12.6915006  61.7235017  21.8669987  11.8235006  63.3755017
  21.1919987  11.0425006  63.6895017  21.5649987  12.2495006  62.4355017
  21.9229987  12.5915006  64.1325017  23.8589987  10.8675006  64.5495017
  23.2899987  10.0645006  64.9935017  23.8379987  11.7285006  65.2005017
  24.8819987  10.5525006  64.3995017  21.5099987   8.8975006  58.6465017
  20.5569987  11.2695006  58.7205017  18.8479987   9.0005006  62.5445017
  17.8239987   9.3875006  63.2505017  16.7279987   8.8445006  63.2615017
  18.1859987  10.7105006  63.9135017  19.2449987  10.6835006  64.1475017
  18.0589987  11.5225006  63.2025017  17.3319987  10.9315006  65.1575017
  17.5009987  11.9295006  65.5465017  16.2769987  10.8815006  64.9085017
  17.6599987   9.9035006  66.2505017  16.7109987   9.6165006  66.6965017
  18.0259987   9.0255006  65.7245017  18.6719987  10.2735006  67.3525017
  19.6809987  10.2845006  66.9445017  18.4929987  11.2705006  67.7475017
  18.6309987   9.2785006  68.4975017  19.3299987   9.6215006  69.2575017
  17.6409987   9.3505006  68.9425017  18.9199987   7.7865006  68.1655017
  18.3289987   7.5065006  67.2945017  19.9619987   7.6725006  67.8785017
  18.6109987   6.7925006  69.3445017  17.5599987   6.8825006  69.5935017
  18.7509987   5.7805006  68.9665017  19.4509987   6.9685006  70.5305017
  20.3689987   6.4145006  70.4045017  19.3059987   7.6555006  71.6665017
  20.2059987   7.4825006  72.2385017  18.3679987   8.5035006  72.3075017
  17.4949987   8.1805006  71.7425017  18.3149987   7.9955006  73.2635017
  18.2589987  10.0875006  72.5385017  18.8939987  10.7055006  71.9045017
  17.2549987  10.4985006  72.4545017  18.7109987  10.1935006  73.9425017
  19.7789987  10.4105006  73.9275017  18.2309987  11.0625006  74.3845017
  18.4589987   8.9735006  74.8205017  17.3839987   8.8175006  74.8725017
  18.8689987   8.0985006  74.3185017  18.9979987   9.0575006  76.1235017
  20.0329987   8.7615006  76.2865017  18.8429987   9.9435006  76.7335017
  18.1549987   7.9885006  76.5845017  17.0699987   8.0075006  76.5025017
  18.4429987   6.9405006  76.5275017  18.4549987   8.3985006  77.6365017
  17.6609987   7.9265006  78.2105017  19.3309987   7.7665006  77.7685017
  18.8919987  10.4235006  78.4925017  19.2229987  10.3425006  79.5235017
  18.0179987  11.0655006  78.4815017  19.6759987  10.9235006  77.9315017
  80.3089987   6.7685006  77.4915017  79.7979987   6.4815006  78.4055017
  79.5729987   6.7925006  76.6935017  80.6809987   7.7805006  77.6255017
  81.5019987   5.7565006  77.1495017  81.1009987   4.7495006  77.0475017
  82.1929987   5.7275006  77.9885017  82.2299987   6.1245006  75.8965017
  81.6449987   6.8775006  75.3695017  82.2419987   5.2475006  75.2525017
  83.6809987   6.6305006  76.0625017  84.1919987   6.0535006  76.8295017
  83.6959987   7.6645006  76.4035017  84.4799987   6.5145006  74.7405017
  84.0039987   5.7535006  74.1275017  85.4659987   6.1295006  74.9955017
  84.6369987   7.8005006  73.9075017  85.0649987   8.5725006  74.5445017
  83.6459987   8.1525006  73.6265017  85.5029987   7.6495006  72.6365017
  85.1039987   6.8615006  71.9995017  86.5139987   7.3435006  72.9025017
  85.5629987   8.9355006  71.8565017  86.0459987   9.7165006  72.4425017
  84.5609987   9.2975006  71.6355017  86.3199987   8.7425006  70.5615017
  85.7419987   8.1245006  69.8785017  87.2489987   8.2035006  70.7465017
  86.6219987  10.0135006  69.9225017  86.9519987   9.9125006  68.8905017
  87.3939987  10.5875006  70.4345017  85.2649987  10.8065006  69.9785017
  85.6229987  11.7425006  69.5545017  85.2219987  10.9595006  71.0555017
  83.4049987  10.4635006  69.2805017  82.6089987  11.1725006  69.4935017
  82.9729987   9.4725006  69.4115017  84.0329987  10.6615006  67.2915017
  84.9579987  10.0975006  67.3985017  84.3089987  11.7115006  67.3415017
  83.4189987  10.3435006  65.8165017  82.3759987  10.5795006  65.9985017
  83.5029987   9.2605006  65.8275017  83.8579987  10.9045006  64.2715017
  84.9059987  10.7095006  64.0815017  83.6829987  11.9705006  64.1935017
  83.2919987  10.4075006  63.4055017  83.8489987   9.6765006  62.6065017
  82.1749987  10.7725006  63.7995017  81.2479987  10.1485006  63.0605017
  81.4759987  10.4255006  62.0455017  80.2749987  10.5405006  63.3195017
  81.2859987   8.6245006  63.2185017  82.2849987   8.2255006  63.3025017
  80.6189987   8.0945006  61.9485017  81.2479987   8.3385006  61.1035017
  79.6739987   8.6035006  61.8305017  80.3849987   6.7065006  62.0305017
  80.7079987   5.7465006  60.8185017  82.3279987   5.7745006  60.8755017
  82.8939987   5.1865006  62.0595017  82.4179987   4.2215006  62.1805017
  82.6899987   5.7885006  62.9355017  84.4039987   5.0085006  61.9315017
  84.8139987   4.5335006  62.8095017  84.6529987   4.4215006  61.0575017
  85.0599987   6.3405006  61.8455017  84.6169987   6.9395006  61.1685017
  84.9369987   6.7805006  62.8365017  86.0379987   6.2675006  61.6235017
  80.1979987   4.4145006  61.2125017  80.2299987   6.3915006  59.5845017
  80.5919987   8.2575006  64.4085017  81.3609987   7.9005006  65.4215017
  82.5759987   7.8455006  65.4225017  80.4349987   7.4635006  66.5405017
  79.7099987   8.2645006  66.6455017  79.8769987   6.6025006  66.1815017
  81.1429987   7.1505006  67.8705017  81.5079987   6.1295006  67.8605017
  82.0179987   7.7815006  67.9935017  80.1989987   7.3335006  69.0605017
  79.2809987   6.7785006  68.8835017  80.6609987   6.8855006  69.9365017
  79.8729987   8.8055006  69.3755017  80.0289987   9.4135006  68.4865017
  78.8279987   8.9305006  69.6485017  80.7419987   9.3595006  70.4925017
  80.6609987   8.7225006  71.3705017  81.7839987   9.3155006  70.1815017
  80.4069987  10.8055006  70.8805017  80.8319987  11.4805006  70.1395017
  79.3319987  10.9615006  70.8575017  80.9289987  11.1885006  72.2745017
  80.6809987  12.2395006  72.3595017  80.2589987  10.6595006  72.9515017
  82.3219987  10.9345006  72.6945017  82.9379987  10.1335006  72.3135017
  82.8749987  11.7515006  73.5945017  83.8839987  11.4295006  73.8065017
  82.4419987  12.9935006  74.3695017  82.8309987  13.8845006  73.8805017
  81.3649987  13.1145006  74.4085017  82.9779987  12.9485006  75.7355017
  83.9689987  13.3945006  75.8095017  82.3469987  13.4935006  76.4355017
  83.0459987  11.4745006  76.1595017  82.0969987  11.0035006  75.9035017
  83.8039987  10.9755006  75.5615017  83.3269987  11.2555006  77.5915017
  84.0259987  10.4345006  77.7305017  83.7899987  12.1295006  78.0455017
  82.0939987  10.9685006  78.2685017  81.3179987  11.5965006  77.8355017
  81.8059987   9.9445006  78.0455017  82.0929987  11.1845006  79.7085017
  81.4659987  10.3475006  80.0085017  83.1169987  10.8875006  79.9265017
  81.7569987  12.3405006  80.5425017  80.7399987  12.7135006  80.4555017
  81.9209987  12.1725006  81.6045017  82.7219987  13.3965006  80.0645017
  82.6399987  14.2955006  80.6685017  82.5359987  13.6795006  79.0335017
  83.7479987  13.0465006  80.1305017  89.8499987  10.9225006  81.7055017
  89.0939987  11.1445006  82.4525017  90.8029987  10.8235006  82.2175017
  89.6099987   9.9565006  81.2695017  89.9029987  11.9105006  80.7325017
  90.0949987  12.8475006  81.2515017  88.8989987  11.9875006  80.3235017
  90.8859987  11.7505006  79.6395017  91.8339987  11.3395006  79.9855017
  91.1249987  12.7025006  79.1685017  90.3169987  10.8645006  78.6295017
  89.2739987  11.0815006  78.4095017  90.3559987   9.8085006  78.8905017
  91.1289987  11.1005006  77.3875017  92.1889987  11.1435006  77.6225017
  90.8729987  12.0665006  76.9545017  90.8989987  10.0185006  76.3615017
  91.2169987   9.0455006  76.7315017  91.4719987  10.2005006  75.4555017
  89.4059987   9.9655006  76.0135017  89.1039987  10.9525006  75.6665017
  88.8509987   9.7835006  76.9325017  89.0139987   8.9305006  74.9795017
  87.9459987   8.9575006  74.7675017  89.2319987   7.9195006  75.3175017
  89.7809987   9.2055006  73.7075017  90.8459987   9.0835006  73.8945017
  89.6409987  10.2465006  73.4185017  89.3929987   8.3635006  72.6305017
  88.4989987   8.6615006  72.0875017  89.2689987   7.3065006  72.8665017
  90.6489987   8.5415006  71.7275017  90.7379987   7.5295006  71.3375017
  91.4179987   8.6395006  72.4925017  90.9199987   9.4545006  70.6705017
  91.6109987   9.0125006  69.9565017  91.4159987  10.3395006  71.0645017
  89.6859987   9.8725006  69.9885017  88.8279987   9.9975006  70.6465017
  89.3509987   9.2445006  69.1685017  90.0549987  11.2155006  69.4535017
  90.8699987  11.1315006  68.7425017  90.4119987  11.8415006  70.2675017
  88.8879987  11.9075006  68.7915017  88.0499987  11.9735006  69.4735017
  88.5759987  11.3615006  67.9095017  89.2349987  12.7605006  67.6005017
  90.3589987  12.9845006  67.2125017  88.1169987  13.1635006  67.0515017
  88.1649987  13.9095006  65.8135017  89.0769987  14.4545006  65.6215017
  87.3939987  14.6055006  66.1105017  87.7349987  13.1065006  64.5405017
  88.4679987  12.3275006  64.4095017  87.4789987  13.7535006  63.2805017
  88.2329987  14.5285006  63.2775017  86.5179987  14.2055006  63.4925017
  87.4469987  13.0955006  62.0425017  88.7649987  13.0345006  61.1545017
  88.5409987  11.6235006  60.4725017  87.9819987  10.6005006  61.3085017
  87.4079987   9.8745006  60.7475017  87.2989987  11.0435006  62.0275017
  89.0709987   9.9105006  62.1555017  88.5629987   9.2665006  62.8625017
  89.6509987  10.6385006  62.7035017  90.0789987   9.0265006  61.4425017
  89.4439987   8.1705006  60.3935017  88.6039987   7.6515006  60.8335017
  90.1789987   7.4545006  60.0585017  89.1429987   8.7955006  59.5665017
  91.1229987   9.8215006  60.7605017  91.5199987  10.5385006  61.4615017
  90.6909987  10.3065006  59.9035017  91.8989987   9.1375006  60.4505017
  90.7619987   8.1525006  62.4275017  91.2489987   8.7665006  63.1705017
  91.4979987   7.5505006  61.9165017  90.0359987   7.5095006  62.9035017
  88.8339987  14.1005006  60.1405017  89.9119987  12.8805006  62.0845017
  86.4989987  12.7475006  64.6135017  86.6519987  11.8325006  65.3435017
  87.4539987  10.8785006  65.3525017  85.6169987  12.3115006  66.2755017
  85.5519987  13.3635006  66.0155017  84.7029987  11.8565006  65.9015017
  85.7699987  12.0875006  67.8965017  85.7329987  11.0565006  68.2295017
  86.6479987  12.5225006  68.3635017  84.1569987  13.0195006  68.5135017
  84.1669987  14.0415006  68.1435017  83.2919987  12.5415006  68.0615017
  83.9869987  13.0135006  69.9635017  83.5989987  12.0345006  70.2375017
  84.9659987  13.0935006  70.4305017  83.1779987  13.9505006  70.4875017
  83.3639987  14.9665006  70.1465017  82.1179987  13.7645006  70.3235017
  83.4499987  13.8635006  71.9105017  82.9109987  14.7355006  72.2765017
  82.8629987  12.9965006  72.1995017  84.9059987  13.7795006  72.6495017
  85.4269987  14.5905006  72.1545017  84.6489987  14.1415006  73.6445017
  85.8269987  12.5245006  72.7965017  86.2189987  12.2725006  71.8225017
  86.2179987  11.7415006  73.8475017  86.8699987  10.9185006  73.5905017
  85.8989987  11.8335006  75.2985017  84.9029987  12.2595006  75.4105017
  85.8659987  10.8565006  75.7675017  86.8469987  12.6885006  76.0195017
  87.8219987  12.5495006  75.5545017  86.5559987  13.7165006  75.8125017
  86.9699987  12.4955006  77.5285017  86.9199987  11.4315006  77.7585017
  87.9469987  12.8325006  77.8625017  85.8929987  13.2245006  78.3035017
  85.9279987  14.2725006  78.0155017  84.9239987  12.8515006  77.9765017
  85.9929987  13.1005006  79.7915017  85.0319987  12.7565006  80.1685017
  86.7039987  12.3145006  80.0295017  86.3419987  14.3205006  80.5045017
  87.3539987  14.6145006  80.2305017  85.6919987  15.1245006  80.1655017
  86.2559987  14.2375006  82.0265017  86.8269987  13.3645006  82.3315017
  86.8139987  15.0975006  82.3895017  84.9979987  14.2165006  82.6545017
  85.1059987  14.2445006  83.7345017  84.4359987  13.3225006  82.4075017
  84.3999987  15.0735006  82.3595017 100.9499987  23.2035006  79.5155017
 100.4489987  23.1895006  80.4785017 101.7919987  23.8865006  79.5895017
 101.3489987  22.2085006  79.3365017 100.1269987  23.5645006  78.5525017
  99.7309987  24.5775006  78.5875017  99.2809987  22.9135006  78.3505017
 101.0829987  23.4705006  77.4955017 101.5899987  22.5145006  77.3615017
 101.8629987  24.2295006  77.4815017 100.1849987  23.7055006  76.3585017
  99.8229987  24.7305006  76.4045017  99.3049987  23.0705006  76.4515017
 100.8209987  23.4805006  75.0145017 100.1119987  23.0655006  74.3025017
 101.6339987  22.7605006  75.0905017 101.3599987  24.7885006  74.4665017
 101.9589987  25.2675006  75.2385017 100.5229987  25.4555006  74.2735017
 102.1989987  24.6475006  73.1885017 103.0209987  23.9665006  73.3995017
 102.6519987  25.6145006  72.9755017 101.4379987  24.1555006  71.9395017
 101.1029987  23.1355006  72.1225017 102.1399987  24.1005006  71.1095017
 100.2369987  25.0165006  71.5295017 100.5709987  26.0435006  71.4015017
  99.5199987  25.0305006  72.3495017  99.5359987  24.5495006  70.2545017
  98.7439987  25.2605006  70.0285017  99.0439987  23.6005006  70.4645017
 100.4579987  24.3815006  69.0315017 101.1309987  23.5395006  69.1795017
 101.0929987  25.2555006  68.8975017  99.6699987  24.1425006  67.7715017
  99.6199987  25.0705006  67.2065017  98.6459987  23.8985006  68.0465017
 100.1929987  23.0735006  66.9335017  99.3779987  22.6485006  66.3505017
 100.5829987  22.2655006  67.5455017 101.3199987  23.5485006  65.9235017
 102.0389987  24.0125006  66.5905017 100.8089987  24.3535006  65.4025017
 102.0759987  22.6865006  64.8795017 101.3759987  22.1865006  64.2225017
 102.6819987  21.9385006  65.3755017 100.9819987  22.2285006  63.9575017
  99.9219987  21.9045006  64.3995017 101.4039987  22.0015006  62.7385017
 100.4919987  21.1455006  62.0235017 100.6439987  20.1945006  62.5115017
 100.9469987  21.1165006  61.0445017  98.9629987  21.4645006  61.9215017
  98.5849987  20.9625006  61.0465017  98.7809987  22.9545006  61.7755017
  97.9059987  23.1125006  61.1595017  99.6529987  23.3015006  61.2355017
  98.6539987  23.6445006  63.0005017  98.1949987  25.1445006  63.0695017
  99.1109987  25.7815006  61.9595017 100.5209987  25.8035006  62.0815017
 100.8889987  25.2625006  62.9435017 100.8809987  26.8235006  62.1815017
 101.1579987  25.2755006  60.7855017 100.8799987  24.2335006  60.6935017
 102.2339987  25.3425006  60.8625017 100.7929987  25.9195006  59.4575017
 100.6279987  27.4205006  59.5625017  99.9529987  27.6375006  60.3785017
 100.2029987  27.7745006  58.6355017 101.5979987  27.8705006  59.7115017
 101.8529987  25.6405006  58.4665017 102.0599987  24.5815006  58.4755017
 102.7269987  26.2145006  58.7165017 101.4759987  25.9365006  57.4985017
  99.5079987  25.3325006  58.9885017  99.6199987  24.2625006  58.8905017
  99.2519987  25.7585006  58.0305017  98.7279987  25.5545006  59.7025017
  96.8019987  25.2985006  62.6205017  98.6109987  25.6765006  64.3755017
  98.2389987  21.0995006  63.0315017  97.0269987  21.1765006  63.3235017
  96.1039987  21.3985006  62.5465017  96.9669987  20.9925006  64.7775017
  96.0789987  20.4825006  65.1365017  97.8089987  20.4865006  65.2425017
  96.9539987  22.5485006  65.1485017  97.6589987  22.5045006  65.9715017
  97.5149987  22.9085006  64.2925017  95.5519987  23.7985006  65.5845017
  95.5909987  24.2095006  64.5785017  94.8129987  23.0015006  65.5575017
  95.0829987  24.8595006  66.5625017  95.3179987  25.7835006  66.0375017
  93.9999987  24.7675006  66.5455017  95.5479987  25.0015006  68.0265017
  96.6279987  24.8755006  68.0555017  95.3539987  26.0275006  68.3335017
  94.8659987  24.0075006  69.0945017  93.7829987  24.1195006  69.0795017
  95.0699987  22.9665006  68.8575017  95.3809987  24.2965006  70.4925017
  96.3909987  23.9395006  70.6545017  95.3939987  25.3635006  70.7105017
  94.4179987  23.6305006  71.4235017  93.4289987  23.4575006  71.0255017
  94.6449987  23.2325006  72.6395017  93.9179987  22.7575006  73.2815017
  95.9119987  23.3955006  73.2295017  96.1189987  22.3765006  73.5535017
  96.5579987  23.5815006  72.3785017  96.3029987  24.3865006  74.4185017
  97.3299987  24.1475006  74.6915017  96.3299987  25.3815006  73.9785017
  95.4719987  24.4155006  75.6225017  94.6139987  24.9445006  75.2075017
  95.1959987  23.3655006  75.6535017  95.7429987  24.9365006  77.1025017
  96.7079987  25.3815006  76.8715017  95.0179987  25.7475006  77.0665017
  95.7679987  24.2815006  78.6605017  96.1699987  25.1085006  79.2425017
  94.7089987  24.2365006  78.9005017  96.4899987  22.9535006  79.1375017
  96.6459987  22.3265006  78.2615017  97.4819987  23.2275006  79.4925017
  95.8079987  22.1235006  80.2085017  95.0519987  21.4885006  79.7535017
  96.5519987  21.4465006  80.6225017  95.1809987  22.9235006  81.3515017
  94.7919987  22.2605006  82.1185017  94.3589987  23.5425006  81.0095017
  95.9129987  23.5755006  81.8185017   5.2889987  39.1485006  80.8705017
   5.9779987  39.1555006  81.7095017   5.3129987  38.1555006  80.4305017
   4.2889987  39.3105006  81.2625017   5.6339987  40.1535006  79.9035017
   6.6249987  40.0125006  79.4745017   5.6199987  41.1595006  80.3145017
   4.5749987  40.0205006  78.7885017   3.5629987  40.1155006  79.1825017
   4.6249987  39.0385006  78.3235017   4.7899987  41.0455006  77.7445017
   5.8579987  41.2285006  77.6495017   4.3489987  41.9885006  78.0635017
   3.9039987  40.4395006  75.5535017   3.9539987  41.3185006  74.9155017
   2.8459987  40.2165006  75.6845017   4.6169987  39.2065006  74.7995017
   4.4199987  38.2265006  75.2315017   5.6979987  39.2865006  74.7065017
   4.0559987  39.2735006  73.5665017   4.3959987  40.0555006  72.8905017
   2.9689987  39.2625006  73.4965017   4.5689987  38.0155006  73.1275017
   4.4919987  37.2065006  73.8535017   5.6059987  38.0285006  72.7955017
   3.7039987  37.7245006  71.9895017   2.6649987  37.9155006  72.2485017
   3.7629987  36.6675006  71.7325017   4.0679987  38.5285006  70.8185017
   5.0239987  38.1375006  70.4765017   4.2649987  39.5335006  71.1915017
   3.0999987  38.6095006  69.6625017   2.1219987  38.7205006  70.1265017
   3.1089987  37.6195006  69.2095017   3.2339987  39.6505006  68.5825017
   3.4269987  40.6175006  69.0415017   2.2799987  39.7435006  68.0675017
   4.2789987  39.3435006  67.5865017   5.1439987  39.8335006  68.0305017
   3.9799987  39.9595006  66.7435017   4.7269987  37.9685006  67.0685017
   4.5609987  37.0905006  67.6835017   5.7339987  37.8855006  66.6675017
   3.7839987  37.9615006  65.9595017   3.9099987  38.8475006  65.3495017
   2.7659987  37.9355006  66.3295017   3.9439987  36.6925006  65.3045017
   4.9679987  36.0385006  65.2635017   2.8539987  36.5715006  64.6665017
   2.7769987  35.6425006  63.6235017   3.1789987  34.7125006  63.9885017
   3.3799987  35.9815006  62.7935017   1.2919987  35.4595006  63.1965017
   1.2049987  34.5905006  62.5635017   0.9779987  36.6835006  62.4195017
   0.2529987  36.4465006  61.6525017   1.8809987  37.0345006  61.9405017
   0.4939987  37.6965006  63.2945017  -0.2490013  38.8635006  62.6255017
   0.9129987  39.0055006  61.5845017   0.4979987  39.6715006  60.4745017
   1.1299987  40.5505006  60.4415017  -0.5280013  39.9845006  60.6155017
   0.5889987  38.9785006  59.2745017  -0.0800013  38.1325006  59.2345017
   0.4189987  39.6095006  58.4135017   1.9079987  38.4375006  59.2225017
   2.6099987  39.1265006  59.4375017   1.9269987  37.6655006  59.9925017
   2.1159987  38.0315006  58.3265017  -1.4170013  38.4185006  61.8345017
  -0.2770013  40.1105006  63.4005017   0.3579987  35.3325006  64.2895017
  -0.8930013  35.2965006  63.8715017  -1.3110013  35.0085006  62.7665017
  -1.7720013  35.6015006  65.0445017  -2.3320013  36.4585006  64.6845017
  -2.4750013  34.7725006  65.0605017  -1.1760013  35.8485006  66.4385017
  -1.9640013  35.7325006  67.1745017  -0.4460013  35.0755006  66.6555017
  -0.5450013  37.2085006  66.6015017   0.4569987  37.2145006  66.1795017
  -1.1170013  37.9395006  66.0345017  -0.5000013  37.6515006  68.0605017
  -0.4500013  36.7925006  68.7265017   0.3699987  38.2625006  68.2875017
  -1.7700013  38.4515006  68.3965017  -1.9370013  39.1875006  67.6125017
  -2.6170013  37.7685006  68.3565017  -1.7690013  39.1525006  69.7615017
  -2.6670013  38.8675006  70.3075017  -0.9270013  38.8105006  70.3575017
  -1.7050013  40.6775006  69.6535017  -2.3000013  41.0595006  68.8325017
  -2.0820013  41.1585006  70.5555017  -0.2750013  41.0345006  69.4885017
   0.1659987  40.9185006  68.5095017   0.5239987  41.5105006  70.4725017
   1.5529987  41.7295006  70.2235017   0.1729987  41.7855006  71.8835017
   0.7569987  42.6005006  72.3075017  -0.8660013  42.0235006  72.0805017
   0.5389987  40.5235006  72.6005017   0.2959987  39.6375006  72.0155017
   1.6089987  40.4755006  72.7935017  -0.2130013  40.4795006  73.9275017
  -1.1840013  40.9425006  73.7515017  -0.4110013  39.4345006  74.1485017
   0.4419987  41.1335006  75.1275017   1.3399987  40.5535006  75.3295017
   0.7799987  42.1145006  74.7985017  -0.3900013  41.2895006  76.4265017
   0.2089987  41.8435006  77.1475017  -1.2530013  41.9145006  76.2155017
  -0.8330013  39.9965006  77.0835017  -1.7640013  40.1685006  77.6215017
  -1.0620013  39.2655006  76.3105017   0.2609987  39.3295006  78.1275017
   1.0779987  39.1915006  77.4235017   0.4899987  40.2435006  78.6715017
   0.2339987  37.9665006  79.2805017   1.1609987  37.9205006  79.8445017
   0.1109987  37.0125006  78.7785017  -0.5810013  38.0725006  79.9915017
  14.4759987  14.2885006  83.4475017  15.4699987  14.1755006  83.8685017
  13.9219987  13.3775006  83.6545017  13.9839987  15.0995006  83.9765017
  14.5449987  14.6035006  81.7605017  15.1249987  13.7615006  81.3865017
  15.1999987  15.4695006  81.7175017  13.2289987  14.8355006  80.7815017
  13.0369987  15.8965006  80.9425017  12.4659987  14.3025006  81.3445017
  13.0209987  14.4515006  79.0285017  13.2369987  13.3855006  79.0375017
  13.9029987  14.9345006  78.6105017  11.7879987  14.7075006  78.0825017
  11.7289987  15.7745006  77.8815017  10.8899987  14.4515006  78.6425017
  11.7849987  13.9215006  76.6985017  11.0699987  14.3885006  76.0235017
  11.4289987  12.9075006  76.8635017  13.1769987  13.8695006  76.0145017
  13.7789987  13.2425006  76.6695017  13.5689987  14.8805006  76.1165017
  13.3549987  13.3975006  74.5465017  12.6179987  12.6175006  74.3585017
  14.3299987  12.9195006  74.4675017  13.2329987  14.4845006  73.4605017
  13.7059987  14.1145006  72.5535017  13.8159987  15.3495006  73.7755017
  11.7819987  14.9345006  73.1375017  11.8369987  15.8215006  72.5095017
  11.3059987  15.2465006  74.0665017  10.9099987  13.8595006  72.4575017
  10.6399987  13.0945006  73.1825017  11.4729987  13.3515006  71.6765017
   9.6009987  14.4425006  71.8505017   9.1909987  15.1525006  72.5645017
   8.8809987  13.6285006  71.7835017   9.7309987  15.1015006  70.4595017
  10.6549987  15.6755006  70.4195017   8.9249987  15.8105006  70.2915017
   9.7529987  14.0905006  69.3125017   8.8419987  13.5015006  69.3315017
  10.5759987  13.4015006  69.4805017   9.9189987  14.7205006  67.9215017
  10.8059987  15.3405006  67.8895017   9.0579987  15.3325006  67.6795017
  11.3069987  15.3285006  67.7245017  12.1919987  15.3775006  68.5545017
  11.3739987  15.7535006  66.4595017  12.6809987  15.9585006  65.8835017
  13.3459987  16.1435006  66.7135017  12.6639987  16.8295006  65.2435017
  13.1389987  14.6985006  65.0965017  14.1039987  14.8835006  64.6545017
  12.0929987  14.4115006  63.9805017  11.9479987  15.3135006  63.4025017
  11.1629987  14.1645006  64.4775017  12.5009987  13.3495006  63.1445017
  11.5139987  12.5515006  62.2055017  12.6339987  12.0005006  61.2015017
  13.0409987  12.7975006  60.0795017  12.2449987  13.4775006  59.8045017
  13.1829987  12.1315006  59.2335017  14.3809987  13.5465006  60.2355017
  14.2159987  14.3025006  60.9925017  14.6319987  14.0355006  59.3055017
  15.6129987  12.8095006  60.6575017  16.7739987  13.6585006  60.3005017
  16.6819987  13.9505006  59.2635017  17.6699987  13.0715006  60.4355017
  16.7979987  14.5135006  60.9595017  15.6199987  12.5535006  62.1245017
  14.6729987  12.1165006  62.4005017  15.7909987  13.4805006  62.6415017
  16.4219987  11.8585006  62.3275017  15.6579987  11.4885006  59.9575017
  14.7679987  10.9275006  60.1995017  16.5299987  10.9435006  60.2845017
  15.7109987  11.6475006  58.8905017  10.8889987  11.4605006  62.9895017
  10.5719987  13.4455006  61.4695017  13.2539987  13.5615006  65.9745017
  14.4669987  13.4165006  66.4935017  15.3769987  14.2105006  66.3765017
  14.5619987  12.0685006  67.1875017  14.6669987  11.3025006  66.4255017
  15.4689987  12.0195006  67.7855017  13.3219987  11.8495006  68.0505017
  12.9099987  12.8115006  68.3355017  12.5509987  11.3525006  67.4715017
  13.6229987  11.0475006  69.3035017  14.0279987  10.0655006  69.0705017
  14.3729987  11.5485006  69.9105017  12.3629987  10.9065006  70.1175017
  11.7869987  11.8235006  70.0105017  11.7469987  10.1115006  69.7055017
  12.5739987  10.6465006  71.5915017  13.3319987   9.8925006  71.7945017
  12.8829987  11.5395006  72.1315017  11.2419987  10.1825006  72.1455017
  10.5579987  11.0065006  71.9485017  10.9249987   9.3615006  71.5085017
  11.1079987   9.7605006  73.5715017  11.5829987  10.5155006  74.1875017
  10.0479987   9.7845006  73.8195017  11.6199987   8.4505006  73.8695017
  11.6819987   7.5605006  73.2615017  12.0809987   8.3755006  75.0595017
  12.4109987   7.3685006  75.2685017  12.2869987   9.4195006  76.3065017
  13.1469987  10.0235006  76.0225017  11.4339987  10.0895006  76.3145017
  12.5269987   8.8785006  77.7305017  11.6549987   8.2995006  78.0325017
  13.3569987   8.1765006  77.6865017  12.8319987   9.9695006  78.8165017
  13.6839987  10.5785006  78.5145017  11.9939987  10.6525006  78.9255017
  13.1429987   9.2955006  80.2045017  12.5259987   9.9435006  80.8225017
  12.5749987   8.3775006  80.0655017  14.5579987   8.9485006  80.9875017
  14.2559987   8.4065006  81.8815017  15.0619987   8.2225006  80.3555017
  15.5469987  10.0535006  81.4145017  15.6809987  10.3845006  80.3865017
  14.7449987  10.6645006  81.8255017  16.7069987  10.3215006  82.1175017
  16.5619987   9.9285006  83.1205017  17.4619987   9.6875006  81.6585017
  17.2259987  11.6855006  82.1995017  18.1839987  11.7035006  82.7105017
  16.5549987  12.3425006  82.7425017  17.3719987  12.1085006  81.2095017
  98.6179987  97.6215006  77.7985017  99.6829987  97.4135006  77.8045017
  98.3519987  98.0195006  78.7735017  98.4379987  98.4025006  77.0645017
  97.8499987  96.4285006  77.4905017  98.0509987  95.6495006  78.2235017
  98.1539987  96.0275006  76.5275017  96.3739987  96.7315006  77.4825017
  96.0569987  97.1325006  78.4455017  95.8069987  95.8145006  77.3375017
  96.0079987  97.6815006  76.4155017  96.2469987  98.7055006  76.6925017
  94.9419987  97.6705006  76.1945017  96.7979987  97.3175006  75.1405017
  97.1989987  96.3135006  75.2555017  97.6569987  97.9845006  75.0805017
  96.0309987  97.3875006  73.8655017  96.8199987  97.0875006  73.1785017
  95.9459987  98.4685006  73.7785017  94.6949987  96.7335006  73.4275017
  94.1409987  97.2305006  72.6335017  93.9729987  96.5165006  74.2135017
  95.2389987  95.4945006  72.9245017  95.3699987  94.8085006  73.7605017
  96.2349987  95.6865006  72.5305017  94.4189987  94.8395006  71.8795017
  94.9379987  93.9555006  71.5145017  94.3209987  95.5085006  71.0255017
  93.0049987  94.4355006  72.3795017  92.4699987  95.3285006  72.6975017
  93.0999987  93.8055006  73.2635017  92.2209987  93.7145006  71.3505017
  92.0429987  94.3905006  70.5175017  91.2409987  93.4695006  71.7555017
  92.8169987  92.5545006  70.8555017  93.1849987  91.8765006  71.6215017
  93.6569987  92.7455006  70.1905017  91.7019987  91.8865006  70.0535017
  90.8609987  91.8635006  70.7445017  92.0219987  90.8555006  69.9305017
  91.1959987  92.4145006  68.7135017  90.4709987  93.1965006  68.9145017
  90.6559987  91.5995006  68.2385017  92.2469987  92.9425006  67.7305017
  93.0009987  92.1885006  67.5405017  92.7309987  93.8245006  68.1335017
  91.6779987  93.5165006  66.5295017  90.5029987  93.7505006  66.4295017
  92.6679987  93.8845006  65.7305017  92.2979987  94.8025006  64.7175017
  92.0769987  95.7725006  65.1355017  91.4029987  94.3995006  64.2665017
  93.4309987  94.9135006  63.6865017  93.2429987  95.7405006  63.0215017
  93.5689987  93.6485006  62.8985017  92.7669987  93.4865006  62.1915017
  93.6439987  92.7815006  63.5425017  94.7979987  93.8675006  62.2155017
  95.6049987  92.6695006  61.6415017  96.5989987  93.3355006  60.6215017
  96.2299987  94.5375006  60.0195017  95.1559987  94.6065006  59.9025017
  96.6519987  94.5765006  59.0195017  96.7899987  95.7815006  60.7435017
  96.2149987  95.8865006  61.6545017  96.6429987  96.6635006  60.1375017
  98.2559987  95.8065006  61.1725017  99.1379987  95.4285006  60.0265017
  98.7749987  94.5025006  59.6025017 100.1379987  95.2865006  60.4085017
  99.1359987  96.2305006  59.3035017  98.5969987  97.1755006  61.5505017
  97.8489987  97.5375006  62.2395017  98.6419987  97.7835006  60.6645017
  99.5629987  97.1465006  62.0335017  98.5379987  94.8795006  62.3175017
  97.9159987  95.1525006  63.1575017  99.5779987  94.9645006  62.5945017
  98.3249987  93.8635006  62.0195017  96.6599987  92.2725006  62.5455017
  94.6779987  91.7445006  60.9515017  94.7159987  95.0675006  64.3645017
  95.4399987  96.1365006  64.0965017  95.1379987  96.9655006  63.2525017
  96.4739987  96.3375006  65.3165017  97.2329987  95.5855006  65.1255017
  96.9509987  97.2965006  65.1295017  95.9259987  96.2575006  66.7775017
  96.0859987  97.2885006  67.0735017  94.8659987  96.1685006  66.5605017
  96.2809987  95.3755006  67.8975017  97.3039987  95.5005006  68.2445017
  95.6449987  95.5335006  68.7655017  96.0759987  93.9925006  67.4075017
  95.0279987  93.7965006  67.1905017  96.6219987  93.7735006  66.4925017
  96.5179987  93.0485006  68.4675017  97.3279987  93.4285006  69.0865017
  95.7169987  92.7755006  69.1515017  96.9689987  91.8375006  67.7635017
  96.1619987  91.3975006  67.1805017  97.7759987  92.0415006  67.0655017
  97.4329987  90.8775006  68.7365017  98.1569987  90.2055006  68.2915017
  97.9489987  91.3925006  69.5455017  96.3899987  90.1955006  69.2545017
  95.7109987  89.7875006  68.5215017  96.1579987  89.9995006  70.3245017
  95.2759987  89.3765006  70.2865017  96.5549987  90.2435006  71.4725017
  96.2709987  89.3505006  72.0275017  97.6379987  90.2355006  71.4165017
  96.0889987  91.4875006  72.2815017  97.0029987  92.0465006  72.4795017
  95.5229987  92.0765006  71.5625017  95.1729987  91.3415006  73.7425017
  94.1999987  91.1425006  73.2935017  95.5569987  90.3805006  74.0745017
  94.9839987  92.3015006  75.0005017  94.4439987  93.1165006  74.5235017
  94.2449987  91.7345006  75.5645017  96.0369987  92.8655006  75.9695017
  96.8809987  92.2365006  75.6945017  96.2139987  93.8245006  75.4905017
  96.0479987  93.0235006  77.4375017  97.0759987  93.0705006  77.7915017
  95.5939987  93.9765006  77.7015017  95.3429987  91.9435006  78.1775017
  94.8529987  92.3025006  79.0795017  94.5539987  91.5145006  77.5635017
  96.2729987  90.9095006  78.5195017  95.7629987  90.0705006  78.9825017
  97.0269987  91.2575006  79.2175017  96.7859987  90.5385006  77.6365017
  21.0379987 102.7135006  78.9095017  22.1169987 102.7175006  78.7905017
  20.8209987 102.5205006  79.9565017  20.6759987 103.7115006  78.6775017
  20.3819987 101.6655006  78.0045017  20.8369987 100.7105006  78.2635017
  20.7099987 101.8955006  76.9945017  18.8489987 101.5235006  78.0435017
  18.3589987 102.4715006  77.8225017  18.5179987 101.2385006  79.0405017
  18.3629987 100.4535006  77.0425017  17.2769987 100.3915006  77.0745017
  18.7299987  99.4695006  77.3305017  18.7959987 100.7555006  75.5965017
  19.6619987 100.1445006  75.3535017  19.1309987 101.7905006  75.5545017
  17.7109987 100.5295006  74.5285017  17.3289987  99.5125006  74.5965017
  18.1409987 100.6275006  73.5335017  16.5379987 101.5275006  74.6775017
  16.9109987 102.3945006  75.2195017  15.7919987 101.0645006  75.3215017
  15.8719987 101.9895006  73.3865017  15.0639987 102.6435006  73.7135017
  15.3969987 101.0955006  72.9865017  16.6619987 102.6815006  72.2725017
  17.4269987 101.9965006  71.9125017  17.1929987 103.5315006  72.6995017
  15.8039987 103.1625006  71.0805017  15.2419987 104.0395006  71.3925017
  15.0669987 102.3945006  70.8475017  16.6209987 103.4825006  69.8125017
  17.0679987 102.5735006  69.4165017  17.4489987 104.1505006  70.0425017
  15.7509987 104.1135006  68.7135017  15.6119987 105.1625006  68.9655017
  14.7669987 103.6535006  68.7765017  16.2669987 103.9785006  67.2635017
  17.2669987 104.4055006  67.2135017  15.6489987 104.5705006  66.5945017
  16.3389987 102.5685006  66.7465017  15.3759987 102.0795006  66.8495017
  17.0449987 102.0035006  67.3495017  16.7889987 102.4985006  65.2685017
  17.7339987 103.0105006  65.1355017  16.0489987 102.9615006  64.6265017
  15.7859987 103.0725006  64.2725017  14.6029987 102.8575006  64.1635017
  16.2759987 103.9825006  63.5505017  15.0709987 104.4825006  62.8455017
  14.3829987 104.9785006  63.5125017  14.5539987 103.6815006  62.3365017
  15.6309987 105.4455006  61.8815017  14.9349987 106.1945006  61.5425017
  16.1299987 104.6135006  60.6825017  16.5609987 105.2715006  59.9395017
  15.2719987 104.1145006  60.2485017  17.1029987 103.6465006  61.1245017
  17.6079987 102.6905006  59.9565017  18.9659987 102.1705006  60.5755017
  19.1979987 101.8635006  61.9385017  19.9269987 101.0695006  62.0305017
  18.2739987 101.4845006  62.3665017  19.5849987 103.0775006  62.8165017
  19.8049987 102.7095006  63.8105017  18.7439987 103.7535006  62.8745017
  20.7649987 103.9195006  62.4225017  22.0029987 103.0855006  62.2075017
  22.1479987 102.4535006  63.0725017  22.8429987 103.7565006  62.1025017
  21.8839987 102.5085006  61.3025017  20.4579987 104.6765006  61.1625017
  19.5069987 105.1715006  61.2835017  20.4409987 103.9895006  60.3355017
  21.2419987 105.4075006  61.0255017  21.0219987 104.8905006  63.5305017
  20.1379987 105.4895006  63.6905017  21.8479987 105.5295006  63.2575017
  21.2659987 104.3505006  64.4335017  16.6259987 101.6085006  59.7705017
  17.9399987 103.5565006  58.7855017  16.7379987 106.1115006  62.5185017
  16.3659987 106.8365006  63.5485017  15.2299987 107.2105006  63.7775017
  17.5809987 107.0505006  64.4475017  17.9099987 106.0785006  64.7995017
  18.4059987 107.4495006  63.8625017  17.2279987 107.9695006  65.5825017
  16.9689987 108.9225006  65.1335017  16.3139987 107.5875006  66.0245017
  18.2249987 108.1875006  66.6195017  19.0269987 108.8105006  66.2315017
  17.7669987 108.7515006  67.4285017  18.8169987 106.8505006  67.2115017
  17.9759987 106.1655006  67.2955017  19.4789987 106.4285006  66.4595017
  19.5609987 106.8805006  68.5735017  20.4819987 107.3575006  68.2455017
  18.9719987 107.6585006  69.0555017  19.8769987 105.8405006  69.5735017
  18.9459987 105.6715006  70.1135017  20.0769987 104.9305006  69.0145017
  21.0119987 106.0575006  70.5775017  21.2069987 105.1575006  71.1485017
  21.9379987 106.2975006  70.0565017  20.6669987 107.1745006  71.4555017
  20.3569987 108.0825006  70.9605017  20.6819987 107.1845006  72.7425017
  20.3989987 108.1305006  73.1815017  21.0079987 106.1485006  73.7185017
  21.0819987 105.1675006  73.2525017  21.9369987 106.2995006  74.2565017
  19.8489987 106.1205006  74.7075017  20.0819987 105.4815006  75.5585017
  19.6779987 107.1155006  75.1135017  18.5549987 105.6205006  74.0265017
  18.5489987 106.0135006  73.0095017  18.6229987 104.5405006  73.9345017
  17.2369987 105.9925006  74.7195017  17.2059987 107.0655006  74.8925017
  16.3939987 105.7645006  74.0695017  17.0699987 105.2485006  76.0385017
  17.7359987 104.3875006  76.0375017  17.4069987 105.8835006  76.8535017
  15.6459987 104.7435006  76.3195017  14.9679987 105.5865006  76.4425017
  15.2759987 104.1815006  75.4635017  15.5489987 103.8565006  77.5605017
  15.0299987 102.9255006  77.3485017  16.5489987 103.5715006  77.8795017
  14.8499987 104.5775006  78.7175017  14.8669987 103.9695006  79.6165017
  13.8119987 104.7955006  78.4915017  15.3419987 105.5185006  78.9455017
  14.7849987  97.6365006  79.3235017  15.5649987  97.5795006  80.0755017
  13.8459987  97.3715006  79.7995017  14.7099987  98.6725006  79.0035017
  15.0849987  96.7155006  78.1405017  15.1779987  95.6885006  78.4905017
  16.0479987  96.9805006  77.7125017  13.9749987  96.7865006  77.0475017
  14.4289987  96.3945006  76.1375017  13.8139987  97.8485006  76.8705017
  12.5709987  96.0975006  77.2685017  12.1459987  96.5555006  78.1585017
  12.7669987  95.0585006  77.5285017  11.4969987  96.1535006  76.1105017
  11.2139987  97.1915006  75.9515017  10.6019987  95.6435006  76.4645017
  11.9279987  95.5465006  74.7725017  12.1169987  94.4945006  74.9815017
  12.8959987  95.9915006  74.5525017  11.0139987  95.6655006  73.5215017
  10.8309987  96.7155006  73.3015017  10.0409987  95.2255006  73.7365017
  11.6209987  94.9785006  72.2705017  11.7979987  93.9385006  72.5415017
  12.6019987  95.4235006  72.1155017  10.8279987  95.0315006  70.9565017
  10.7919987  96.0735006  70.6445017   9.8019987  94.7475006  71.1885017
  11.3429987  94.1675006  69.7895017  11.3839987  93.1465006  70.1635017
  12.3749987  94.4695006  69.6125017  10.5639987  94.2105006  68.4515017
   9.6159987  93.6915006  68.5715017  11.1119987  93.6665006  67.6845017
  10.2719987  95.6535006  67.9475017  11.2039987  96.2055006  68.0395017
   9.5859987  96.0925006  68.6695017   9.6899987  95.8355006  66.5485017
   9.0219987  94.9775006  66.4935017  10.5449987  95.5965006  65.9225017
   8.9669987  97.0265006  65.9625017   8.2749987  97.5645006  66.6015017
   8.4589987  96.8625006  65.0165017  10.1439987  97.8595006  65.7205017
  10.8649987  97.3295006  65.1105017  10.6139987  98.1305006  66.6585017
   9.8249987  99.0705006  64.9715017   8.7549987  99.5995006  64.7525017
  11.0069987  99.4915006  64.6615017  11.0239987 100.8015006  64.1815017
  11.2479987 101.3645006  65.0745017  10.0509987 101.0945006  63.8135017
  12.1269987 101.0405006  63.0995017  12.3509987 102.0925006  63.1575017
  11.6029987 100.6945006  61.6955017  12.1909987 101.2575006  60.9835017
  10.5829987 101.0575006  61.6675017  11.6429987  99.3115006  61.3875017
  12.1639987  98.9605006  59.9185017  12.2569987  97.3885006  60.0315017
  11.4919987  96.6675006  60.9995017  11.2969987  95.6585006  60.6605017
  10.5239987  97.1495006  61.1035017  12.1039987  96.6685006  62.4275017
  11.3549987  96.2805006  63.1065017  12.3639987  97.6715006  62.7335017
  13.3539987  95.8215006  62.6595017  13.0499987  94.3535006  62.4025017
  12.1689987  94.0795006  62.9665017  13.8949987  93.7735006  62.7425017
  12.9119987  94.2045006  61.3425017  14.4369987  96.3525006  61.7475017
  14.4969987  97.4225006  61.8735017  14.2009987  96.0885006  60.7315017
  15.3669987  95.8915006  62.0475017  13.7999987  96.0205006  64.0715017
  13.9969987  97.0695006  64.2375017  14.7019987  95.4515006  64.2425017
  13.0259987  95.6815006  64.7455017  11.0759987  99.2765006  58.9605017
  13.4949987  99.5645006  59.7475017  13.3169987 100.3245006  63.3885017
  13.8099987 100.5965006  64.5655017  13.3299987 101.3645006  65.4005017
  15.1199987  99.8575006  64.7235017  15.1119987  98.9395006  64.1455017
  15.9679987 100.4315006  64.3595017  15.2399987  99.5905006  66.2075017
  16.0189987  98.8565006  66.3855017  15.5499987 100.4895006  66.7305017
  13.9299987  99.0785006  66.7915017  13.2089987  99.8865006  66.8915017
  13.4839987  98.3565006  66.1125017  14.1479987  98.4125006  68.1245017
  13.4859987  97.5555006  68.2375017  15.1599987  98.0315006  68.2365017
  13.8639987  99.3855006  69.2495017  14.3319987 100.3415006  69.0265017
  12.7929987  99.5735006  69.2815017  14.3179987  98.9085006  70.6275017
  13.6949987  98.0835006  70.9685017  15.3379987  98.5335006  70.6045017
  14.2409987 100.0315006  71.6215017  14.3069987  99.6045006  72.6155017
  15.1309987 100.6455006  71.4915017  13.0509987 100.8935006  71.4915017
  12.8859987 101.4625006  70.5885017  12.1529987 100.9985006  72.4325017
  11.3189987 101.6525006  72.2225017  12.0899987 100.3215006  73.8205017
  12.9369987  99.6575006  73.9815017  12.0719987 101.0015006  74.6645017
  10.8379987  99.4935006  73.8205017  10.9289987  98.8065006  72.9795017
  10.8919987  98.8815006  74.7185017   9.4909987 100.1805006  73.7675017
   9.5899987 100.9325006  72.9845017   8.8009987  99.4335006  73.3855017
   8.8949987 100.8315006  75.0215017   9.1289987 101.8935006  75.0105017
   7.8089987 100.7585006  74.9855017   9.3859987 100.2165006  76.2855017
   8.9809987  99.2135006  76.4015017  10.4659987 100.1005006  76.2735017
   8.9709987 101.0195006  77.4735017   9.2459987 102.0725006  77.4625017
   7.9129987 100.9865006  77.7265017   9.6949987 100.3785006  78.4965017
   9.5399987 100.8325006  79.4715017   9.3759987  99.3435006  78.5985017
  11.3949987 100.4055006  78.1065017  11.9669987  99.8405006  78.8365017
  11.7919987 101.4145006  78.0935017  11.5789987  99.9665006  77.1305017
  -1.6630013  19.1545006  80.2985017  -2.4180013  18.7675006  80.9755017
  -1.2170013  20.0285006  80.7645017  -0.8860013  18.4005006  80.2035017
  -2.2300013  19.4805006  79.0125017  -3.0260013  20.2045006  79.1775017
  -2.7080013  18.5815006  78.6335017  -1.2580013  20.0325006  77.9785017
  -0.4740013  19.3155006  77.7345017  -0.7490013  20.9185006  78.3535017
  -2.0060013  20.4065006  76.7125017  -2.3180013  21.4485006  76.7395017
  -2.9170013  19.8225006  76.5935017  -1.1100013  20.1975006  75.4965017
  -1.7020013  20.1975006  74.5845017  -0.6390013  19.2175006  75.5545017
  -0.0210013  21.2785006  75.3845017   0.8349987  21.0045006  75.9995017
  -0.3930013  22.2195006  75.7835017   0.4389987  21.4885006  73.9455017
   0.9399987  22.4505006  73.8495017  -0.4220013  21.5255006  73.2785017
   1.3899987  20.3735006  73.4845017   0.8589987  19.4305006  73.3645017
   2.1689987  20.1915006  74.2225017   2.0399987  20.7625006  72.1475017
   2.8009987  20.0325006  71.8795017   2.5559987  21.7165006  72.2505017
   1.0089987  20.8635006  71.0105017   0.2159987  21.5235006  71.3545017
   0.5569987  19.8795006  70.8905017   1.5429987  21.3465006  69.6435017
   2.0879987  22.2695006  69.8315017   0.6799987  21.6225006  69.0405017
   2.4419987  20.4135006  68.8385017   2.9879987  19.7555006  69.5105017
   3.1919987  20.9995006  68.3115017   1.6519987  19.5825006  67.8075017
   2.3359987  18.8685006  67.3525017   1.3079987  20.2285006  67.0045017
   0.4879987  18.8215006  68.3525017  -0.2260013  19.4625006  68.8595017
   0.8099987  18.0765006  69.0755017  -0.1980013  18.1195006  67.2145017
   0.5049987  17.4995006  66.6735017  -0.6250013  18.8415006  66.5285017
  -1.2180013  19.0205006  66.5725017  -2.1460013  19.5915006  67.1155017
  -0.8880013  19.1055006  65.3855017  -1.7050013  19.6755006  64.4385017
  -2.3980013  20.2315006  65.0515017  -2.2260013  18.8495006  63.9775017
  -1.0800013  20.5915006  63.3785017  -1.8710013  21.1435006  62.8985017
  -0.2310013  19.9175006  62.3455017  -0.8510013  19.7255006  61.4805017
   0.0669987  18.9695006  62.7755017   0.9419987  20.6965006  61.9695017
   0.9959987  21.2805006  60.5025017   1.6809987  22.6165006  60.4355017
   1.0309987  23.7105006  61.0085017   0.4539987  23.5245006  61.9045017
   0.3699987  24.2265006  60.3185017   2.1509987  24.6755006  61.2785017
   1.8089987  25.6255006  61.6705017   2.6749987  24.8515006  60.3505017
   3.1999987  24.1745006  62.2615017   4.1339987  23.2345006  61.5535017
   3.5459987  22.4875006  61.0375017   4.7549987  22.7585006  62.2975017
   4.7519987  23.8005006  60.8735017   3.9669987  25.3355006  62.8115017
   3.2639987  26.0775006  63.1575017   4.6079987  25.7295006  62.0425017
   4.5569987  24.9695006  63.6395017   2.5039987  23.3735006  63.3115017
   1.7649987  23.9915006  63.7995017   3.2279987  23.0345006  64.0375017
   2.0229987  22.5205006  62.8545017   1.8099987  20.3995006  59.6615017
  -0.3910013  21.5905006  60.0965017  -0.3070013  21.4975006  64.1355017
  -1.1610013  22.2445006  64.8095017  -2.3440013  22.3665006  64.5355017
  -0.4490013  22.9655006  65.9145017  -0.1940013  22.2335006  66.6735017
   0.4969987  23.3535006  65.5455017  -1.3370013  24.1045006  66.4815017
  -0.6930013  24.7185006  67.1015017  -1.6310013  24.7285006  65.6435017
  -2.5920013  23.6955006  67.2995017  -3.1270013  24.6015006  67.5705017
  -3.2460013  23.1465006  66.6265017  -2.3420013  22.8335006  68.5555017
  -3.3110013  22.6245006  69.0055017  -1.9350013  21.8725006  68.2505017
  -1.4290013  23.4405006  69.6335017  -1.2250013  22.6755006  70.3805017
  -0.4740013  23.6685006  69.1645017  -1.9490013  24.7075006  70.3305017
  -2.3430013  25.3995006  69.5875017  -2.7740013  24.4705006  70.9965017
  -0.8440013  25.4095006  71.1445017  -1.2640013  26.1285006  71.8385017
  -0.2960013  24.6855006  71.7465017   0.1169987  26.0705006  70.1945017
  -0.3180013  26.8155006  69.5455017   1.4319987  25.8505006  70.0745017
   1.9929987  26.4105006  69.3395017   2.2669987  24.8775006  70.8775017
   1.6499987  24.0665006  71.2605017   3.0669987  24.4105006  70.3135017
   2.8569987  25.6285006  72.0645017   3.6399987  26.3155006  71.7465017
   2.0959987  26.2385006  72.5465017   3.4249987  24.6465006  73.0755017
   2.6059987  24.0315006  73.4475017   4.1029987  23.9715006  72.5605017
   4.1299987  25.2725006  74.2275017   5.1909987  25.4335006  74.0505017
   3.7209987  26.2365006  74.5245017   3.9329987  24.2485006  75.3925017
   4.0709987  23.2735006  74.9295017   4.7919987  24.3925006  76.0425017
   2.6479987  24.1965006  76.2255017   2.0319987  23.4375006  75.7475017
   2.9529987  23.7785006  77.1835017   1.7989987  25.4065006  76.4825017
   2.4689987  26.2485006  76.6345017   1.2829987  25.6035006  75.5455017
   0.7949987  25.3675006  77.5815017   0.1989987  26.2755006  77.5915017
   1.2629987  25.2755006  78.5555017   0.1169987  24.5275006  77.4615017
   8.1439987  94.4025006  81.3525017   7.3569987  94.6895006  82.0425017
   8.9549987  95.1175006  81.4595017   8.5189987  93.4315006  81.6635017
   7.6389987  94.3595006  79.9335017   7.2409987  95.3425006  79.6895017
   6.7969987  93.6735006  79.9055017   8.6779987  93.9615006  78.8805017
   8.8379987  92.8835006  78.8955017   9.6379987  94.4115006  79.1275017
   8.2829987  94.4005006  77.4445017   9.0689987  94.0625006  76.7725017
   8.2999987  95.4885006  77.4045017   6.9249987  93.8895006  76.9135017
   6.1499987  94.1985006  77.6105017   6.9509987  92.8015006  76.9495017
   6.5269987  94.3445006  75.4865017   6.4829987  95.4315006  75.5085017
   5.5069987  94.0015006  75.3235017   7.4089987  93.8945006  74.3065017
   7.4479987  92.8085006  74.2375017   8.4379987  94.2285006  74.4355017
   6.8529987  94.4655006  72.9965017   6.7769987  95.5475006  73.0965017
   5.8359987  94.1005006  72.8635017   7.6599987  94.1365006  71.7735017
   7.8449987  93.0655006  71.7185017   8.6389987  94.6115006  71.8255017
   6.9519987  94.5885006  70.5125017   6.8359987  95.6685006  70.5695017
   5.9449987  94.1725006  70.5265017   7.6229987  94.2115006  69.2245017
   7.6279987  93.1265006  69.1425017   8.6669987  94.5165006  69.2625017
   6.9679987  94.7925006  67.9515017   7.0789987  95.8715006  68.0265017
   5.9029987  94.5885006  68.0505017   7.4419987  94.2995006  66.5465017
   8.5189987  94.4535006  66.5715017   7.0459987  95.0315006  65.8485017
   7.1939987  92.9755006  66.0305017   6.1349987  92.7405006  66.0315017
   7.6819987  92.2315006  66.6545017   7.7399987  92.8465006  64.5945017
   8.7899987  93.1095006  64.5635017   7.1969987  93.5025006  63.9235017
   9.1689987  92.3075006  64.5445017   9.9599987  92.3365006  65.4675017
   9.4059987  91.8065006  63.3245017  10.4779987  90.8425006  63.2745017
  11.2059987  91.2145006  63.9755017  10.9339987  90.7795006  62.2965017
   9.9479987  89.4575006  63.7315017  10.7359987  88.7235006  63.6815017
   8.7619987  89.0355006  62.7865017   8.7779987  87.9555006  62.7265017
   8.9909987  89.4355006  61.8095017   7.4789987  89.5155006  63.1975017
   6.1609987  89.1675006  62.3815017   6.6079987  89.4855006  60.8635017
   6.4639987  90.8245006  60.3645017   6.8289987  91.4975006  61.1305017
   5.4349987  91.0745006  60.1425017   7.2999987  90.9895006  59.0775017
   7.1589987  90.1255006  58.4465017   6.9669987  91.8745006  58.5515017
   8.7999987  91.0775006  59.3355017   9.0229987  91.7395006  60.0605017
   9.0879987  90.0805006  59.6705017   9.3139987  91.3205006  58.5055017
   5.7789987  87.7535006  62.5405017   5.1519987  90.1945006  62.7065017
   9.5729987  89.5635006  65.1135017   9.0029987  88.5255006  65.6805017
   8.7009987  87.4645006  65.1625017   8.9159987  88.7745006  67.2015017
   9.7969987  88.2995006  67.6195017   9.0499987  89.8415006  67.3605017
   7.6239987  88.2745006  67.8655017   7.5049987  87.2105006  67.6905017
   7.6739987  88.3975006  68.9425017   6.3979987  89.0145006  67.3125017
   6.5159987  90.0895006  67.4255017   6.3139987  88.8295006  66.2445017
   5.1069987  88.5555006  67.9895017   4.9069987  87.5205006  67.7175017
   5.2079987  88.5715006  69.0725017   3.8789987  89.4115006  67.5885017
   4.2319987  90.4355006  67.4845017   3.5989987  89.0845006  66.5885017
   2.6159987  89.3925006  68.4875017   1.8839987  88.7205006  68.0425017
   2.8639987  88.9755006  69.4595017   1.9679987  90.7925006  68.6975017
   1.4429987  91.0295006  67.7795017   1.2039987  90.6605006  69.4625017
   2.8749987  91.9225006  69.1115017   2.7859987  92.7915006  68.4765017
   3.7459987  91.9995006  70.1415017   4.3069987  92.9155006  70.2615017
   4.0459987  90.9625006  71.1715017   3.1639987  90.3295006  71.2575017
   4.8499987  90.3185006  70.8325017   4.3819987  91.5065006  72.5595017
   5.1989987  92.2255006  72.5265017   3.5329987  92.0325006  72.9915017
   4.7669987  90.3375006  73.4715017   3.9679987  89.5965006  73.4985017
   5.6459987  89.8225006  73.0935017   5.0389987  90.8355006  74.8895017
   5.9179987  91.4765006  74.8775017   4.2119987  91.4605006  75.2215017
   5.2399987  89.6895006  75.8895017   4.4879987  88.9245006  75.7075017
   6.1989987  89.2115006  75.7115017   5.1309987  90.1185006  77.3615017
   5.9019987  90.8425006  77.6165017   4.1789987  90.6105006  77.5535017
   5.2569987  88.9195006  78.3065017   4.5719987  88.1225006  78.0265017
   6.2549987  88.4975006  78.2135017   5.0209987  89.3025006  79.7635017
   5.2019987  88.4555006  80.4185017   4.0029987  89.6345006  79.9355017
   5.6859987  90.1055006  80.0685017  34.9349987   2.7275006  78.3175017
  35.6169987   2.0975006  78.8795017  34.0509987   2.8865006  78.9285017
  35.4149987   3.6925006  78.1775017  34.5729987   2.0935006  76.9745017
  34.1239987   1.1185006  77.1555017  35.4899987   1.9095006  76.4215017
  33.6159987   2.9385006  76.1385017  34.1599987   3.6825006  75.5565017
  32.9439987   3.4965006  76.7875017  32.7709987   2.0735006  75.1915017
  32.1609987   2.7335006  74.5785017  32.0739987   1.4785006  75.7795017
  33.5779987   1.1455006  74.2635017  32.8999987   0.4925006  73.7195017
  34.2029987   0.4955006  74.8745017  34.4569987   1.8925006  73.2605017
  35.3049987   1.2485006  73.0365017  34.8619987   2.7615006  73.7745017
  33.8139987   2.3325006  71.9735017  33.0209987   3.0685006  72.0875017
  33.3959987   1.5255006  71.3725017  34.9649987   2.9545006  71.2365017
  35.8639987   2.3395006  71.2525017  35.2539987   3.9245006  71.6365017
  34.5379987   3.1095006  69.9205017  33.6419987   3.7155006  69.8045017
  34.3429987   2.1755006  69.3955017  35.7969987   3.8685006  69.2185017
  36.4859987   4.1935006  69.9955017  35.4379987   4.7745006  68.7305017
  36.5469987   2.9875006  68.1745017  35.9919987   2.8715006  67.2465017
  36.7609987   1.9795006  68.5265017  37.8289987   3.6845006  67.8705017
  38.2299987   4.1225006  68.7815017  37.6319987   4.5145006  67.1945017
  38.8389987   2.7925006  67.2445017  39.8019987   3.2865006  67.1305017
  38.5579987   2.4415006  66.2555017  39.0299987   1.6085006  68.1495017
  38.0639987   1.1505006  68.3375017  39.3939987   1.9775006  69.1045017
  40.0169987   0.5245006  67.6285017  40.9789987   0.9655006  67.4025017
  39.6279987   0.0605006  66.7305017  39.8069987  -0.4064994  66.7555017
  40.3389987  -1.4974994  66.7355017  39.0219987   0.1835006  65.8655017
  38.5609987  -0.8304994  65.1255017  38.3049987  -1.6024994  65.8345017
  39.3389987  -1.1954994  64.4715017  37.3339987  -0.4164994  64.3325017
  36.9959987  -1.2594994  63.7535017  37.7349987   0.7355006  63.3945017
  38.5319987   0.3615006  62.7655017  38.1379987   1.5005006  64.0465017
  36.6799987   1.2665006  62.5995017  36.3099987   0.5965006  61.2395017
  35.0609987   1.4995006  60.7525017  34.1299987   2.0805006  61.6865017
  34.3639987   3.1245006  61.8495017  34.2559987   1.5835006  62.6445017
  32.6179987   1.8925006  61.3215017  32.3759987   2.3765006  60.3835017
  32.1129987   2.4135006  62.1215017  31.9959987   0.5505006  61.2545017
  32.2979987  -0.0564994  60.0245017  32.0509987   0.6335006  59.2295017
  31.6929987  -0.9464994  59.9345017  33.3429987  -0.3264994  60.0145017
  32.4929987  -0.1634994  62.4365017  32.3449987   0.4635006  63.3025017
  33.5329987  -0.3984994  62.2935017  31.9149987  -1.0704994  62.5325017
  30.5379987   0.5905006  61.2095017  30.1689987   1.1035006  62.0855017
  30.1559987  -0.4194994  61.1935017  30.2189987   1.1115006  60.3185017
  37.4169987   0.6045006  60.2495017  35.8439987  -0.7094994  61.6665017
  36.2699987  -0.0164994  65.1945017  35.2849987  -0.8264994  65.3195017
  35.1249987  -1.9774994  64.9585017  34.2309987  -0.1294994  66.1215017
  34.6479987   0.7995006  66.4975017  33.3999987   0.1555006  65.4815017
  33.8059987  -0.9644994  67.1525017  33.0889987  -0.4744994  67.8025017
  33.3169987  -1.8634994  66.7905017  34.8879987  -1.2914994  67.8635017
  34.5099987  -2.1704994  68.3795017  35.5219987  -1.6604994  67.0605017
  35.7719987  -0.4254994  68.8455017  36.3239987   0.1925006  68.1395017
  35.0339987   0.2255006  69.3085017  36.7859987  -0.9334994  69.9665017
  37.1929987  -0.0614994  70.4755017  36.2029987  -1.4734994  70.7105017
  37.8879987  -1.7944994  69.5175017  37.4509987  -2.4734994  68.7865017
  38.5789987  -1.1594994  68.9705017  38.6549987  -2.5794994  70.5195017
  38.0549987  -3.3214994  71.0325017  39.4899987  -3.1164994  70.0715017
  39.1359987  -1.6804994  71.3705017  39.3839987  -0.9124994  70.6535017
  39.3869987  -1.4144994  72.6665017  39.8509987  -0.4614994  72.8795017
  39.1369987  -2.1794994  73.7835017  39.2709987  -3.2464994  73.6135017
  39.6999987  -1.9414994  74.6795017  37.6689987  -1.9214994  74.0305017
  37.2089987  -1.9684994  73.0445017  37.3289987  -2.8054994  74.5665017
  37.1939987  -0.7074994  74.7405017  37.2599987   0.1395006  74.0565017
  36.1399987  -0.8264994  74.9755017  37.9559987  -0.3884994  75.9995017
  38.9759987  -0.1464994  75.7095017  37.5359987   0.5215006  76.4245017
  37.9619987  -1.4444994  77.0245017  36.9279987  -1.7024994  77.2475017
  38.4059987  -2.3394994  76.5975017  38.7159987  -1.0624994  78.4605017
  39.5849987  -1.7184994  78.4775017  39.0989987  -0.0584994  78.2885017
  37.9789987  -1.1024994  79.9895017  37.2069987  -0.3694994  79.7685017
  37.5139987  -2.0754994  79.8465017  38.2869987  -1.0064994  81.0555017
  37.4469987  -1.1924994  81.7175017  38.6649987  -0.0154994  81.2805017
  39.0669987  -1.7214994  81.3025017  74.9609987 109.7795006  78.4225017
  76.0149987 109.9815006  78.5835017  74.6749987 108.9635006  79.0805017
  74.4049987 110.6605006  78.7305017  74.6799987 109.4365006  76.9655017
  75.2809987 108.5715006  76.6905017  75.0289987 110.2595006  76.3475017
  73.2089987 109.1425006  76.6675017  72.5739987 109.9345006  77.0645017
  72.9059987 108.2295006  77.1765017  72.9339987 108.9775006  75.1725017
  73.3079987 109.8595006  74.6575017  71.8579987 108.9655006  75.0075017
  73.5579987 107.7365006  74.5325017  74.5829987 107.6745006  74.8885017
  73.6169987 107.9415006  73.4645017  72.8939987 106.4205006  74.7435017
  72.1559987 106.3835006  73.9445017  72.3369987 106.5665006  75.6665017
  73.6289987 105.0965006  74.8085017  73.1469987 104.4625006  75.5505017
  74.6409987 105.2725006  75.1695017  73.6909987 104.3665006  73.4985017
  72.7489987 104.3225006  72.9535017  74.0549987 103.3425006  73.5605017
  74.6479987 105.1725006  72.7425017  75.5249987 105.3765006  73.3525017
  74.2119987 106.1425006  72.5055017  75.0709987 104.4985006  71.4755017
  75.2119987 103.4375006  71.6685017  76.0429987 104.8845006  71.1695017
  74.0619987 104.6965006  70.3245017  73.9499987 105.7615006  70.1335017
  73.0809987 104.3395006  70.6325017  74.4549987 104.0195006  69.0295017
  74.5599987 102.9775006  69.3215017  75.4639987 104.3905006  68.8585017
  73.6769987 104.1225006  67.7385017  72.6939987 103.6885006  67.9125017
  74.1549987 103.5005006  66.9865017  73.4809987 105.5135006  67.1765017
  73.0209987 106.1825006  67.8965017  72.8279987 105.4895006  66.3085017
  74.8169987 106.0775006  66.7575017  75.3099987 105.4085006  66.0635017
  75.4559987 106.2145006  67.6215017  74.7949987 107.5975006  66.5945017
  75.5989987 108.3535006  67.1175017  73.7899987 107.9915006  66.0295017
  73.5959987 109.4685006  66.0725017  74.2879987 109.8505006  66.8085017
  72.5869987 109.7015006  66.3815017  73.8959987 110.0585006  64.7185017
  73.4489987 111.0375006  64.7755017  73.6019987 109.4085006  63.2875017
  73.8539987 110.1555006  62.5475017  72.5309987 109.2475006  63.2665017
  74.2879987 108.1995006  63.0235017  73.8489987 107.0365006  62.0265017
  75.2759987 106.4255006  61.7005017  76.4169987 106.8925006  62.4095017
  77.1869987 106.1365006  62.4915017  76.1349987 107.1565006  63.4245017
  76.9759987 108.1845006  61.7985017  77.8409987 108.4155006  62.4065017
  76.2659987 108.9945006  61.8835017  77.4609987 108.2065006  60.3695017
  78.4759987 107.1055006  60.1735017  79.2249987 107.1845006  60.9495017
  78.9369987 107.2455006  59.2075017  77.9689987 106.1525006  60.1975017
  76.3629987 107.9835006  59.3715017  75.5489987 108.6525006  59.6025017
  76.0519987 106.9555006  59.4165017  76.7639987 108.2105006  58.3945017
  77.9539987 109.6405006  60.3265017  77.1359987 110.3045006  60.5625017
  78.3229987 109.8595006  59.3355017  78.7499987 109.7695006  61.0455017
  72.9679987 106.0635006  62.7005017  73.3959987 107.6775006  60.7765017
  75.2569987 110.1835006  64.8915017  75.7599987 111.1095006  64.2655017
  75.1789987 112.0615006  63.8035017  77.2299987 110.9285006  64.2325017
  77.4939987 110.6515006  63.2175017  77.7089987 111.8875006  64.4135017
  77.6939987 109.8745006  65.2565017  77.2349987 110.1075006  66.2115017
  77.3009987 108.9065006  64.9625017  79.2029987 109.7865006  65.4375017
  79.7049987 109.4645006  64.5285017  79.6189987 110.7595006  65.6845017
  79.5149987 108.8175006  66.5805017  79.1719987 107.8365006  66.2565017
  80.5959987 108.7455006  66.6745017  78.9229987 109.1025006  67.9445017
  77.8369987 109.1555006  67.9185017  79.1709987 108.3155006  68.6545017
  79.4789987 110.4165006  68.4625017  80.5669987 110.4135006  68.4075017
  79.1439987 111.2545006  67.8585017  79.0459987 110.6535006  69.9125017
  79.4229987 109.8285006  70.5055017  79.5669987 111.5445006  70.2605017
  77.5649987 110.8455006  70.1275017  77.1419987 111.6915006  69.6075017
  76.7179987 110.0905006  70.8705017  75.6789987 110.3845006  70.9015017
  77.0339987 108.8545006  71.6835017  76.3719987 108.0505006  71.3665017
  78.0449987 108.5035006  71.5075017  76.8269987 109.0815006  73.1945017
  75.8999987 109.6315006  73.3525017  76.6919987 108.1155006  73.6765017
  77.9889987 109.8285006  73.8735017  78.7639987 109.1145006  74.1535017
  78.4489987 110.5155006  73.1685017  77.5409987 110.5995006  75.1175017
  76.9119987 111.4285006  74.7995017  76.9089987 109.9535006  75.7255017
  78.7039987 111.1225006  75.9755017  79.2049987 111.8955006  75.3955017
  78.2749987 111.6285006  76.8355017  79.7689987 110.1115006  76.4365017
  80.3139987 109.7645006  75.5605017  80.4939987 110.6385006  77.0535017
  79.2819987 108.9275006  77.1895017  78.7079987 109.3495006  78.0105017
  78.5519987 108.4985006  76.5075017  80.1919987 107.7895006  77.7265017
  79.5969987 106.9945006  78.1655017  80.8749987 108.1435006  78.4915017
  80.7869987 107.3555006  76.9275017 103.0369987  35.3055006  80.9325017
 102.6589987  35.6205006  81.8995017 103.2639987  34.2455006  80.9955017
 102.2359987  35.4285006  80.2085017 104.3139987  36.1405006  80.5145017
 104.8449987  35.9185006  81.4385017 103.8119987  37.0915006  80.6715017
 105.2939987  36.2575006  79.4045017 105.1279987  35.4815006  78.6575017
 106.3029987  36.1025006  79.7805017 105.2339987  37.6025006  78.7415017
 105.7409987  38.3705006  79.3215017 104.2169987  37.9615006  78.5895017
 105.9859987  37.4615006  77.2845017 105.7159987  38.4145006  76.8365017
 105.3419987  36.7135006  76.8245017 107.6049987  37.1155006  76.9075017
 107.6069987  36.0275006  76.9495017 108.1129987  37.4555006  77.8075017
 108.3379987  37.5425006  75.7655017 109.4249987  37.5745006  75.8175017
 108.0309987  38.4515006  75.2505017 107.9409987  36.4195006  75.0055017
 106.9429987  36.4545006  74.5695017 108.0269987  35.4485006  75.4895017
 108.9329987  36.5165006  73.9425017 109.9209987  36.1575006  74.2215017
 109.0739987  37.5245006  73.5555017 108.3799987  35.6515006  72.8675017
 107.3889987  36.0175006  72.6065017 108.2399987  34.6465006  73.2645017
 109.2439987  35.5815006  71.6375017 110.2879987  35.4345006  71.9075017
 109.2069987  36.5085006  71.0685017 108.8119987  34.4245006  70.7425017
 107.7339987  34.4325006  70.6035017 109.0499987  33.4755006  71.2205017
 109.5099987  34.4785006  69.4025017 109.2959987  35.4185006  68.8965017
 109.1789987  33.6895006  68.7335017 111.0089987  34.3765006  69.5815017
 111.2909987  33.3585006  69.8295017 111.3109987  34.9985006  70.4195017
 111.7749987  34.8205006  68.3505017 111.4849987  35.8235006  68.0645017
 111.5769987  34.1515006  67.5215017 111.5339987  34.1755006  67.0205017
 112.4869987  33.8125006  66.3885017 110.3399987  34.2435006  66.4935017
 110.3719987  33.3475006  65.3325017 111.3669987  32.9445006  65.4165017
 110.3149987  33.9545006  64.4395017 109.3749987  32.2525006  65.2955017
 109.6799987  31.4725006  65.9745017 109.1049987  31.6425006  63.8595017
 108.4689987  30.7795006  63.9995017 110.0599987  31.3065006  63.4825017
 108.5369987  32.5605006  62.9295017 108.2949987  32.2115006  61.4015017
 107.3409987  30.9555006  61.5775017 107.5149987  29.7705006  60.8435017
 108.4999987  29.3845006  61.0755017 107.4449987  29.9305006  59.7755017
 106.4549987  28.7615006  61.2535017 106.5649987  27.8615006  60.6685017
 106.5719987  28.5225006  62.3015017 105.0609987  29.2485006  60.9985017
 104.9129987  30.1795006  61.3515017 104.9619987  29.2645006  59.9125017
 104.3679987  28.6375006  61.3955017 107.5789987  33.3325006  60.7525017
 109.5889987  31.8305006  60.8075017 108.2179987  32.8825006  65.8855017
 107.3699987  32.0385006  66.3355017 107.5329987  30.8335006  66.3895017
 106.0999987  32.7435006  66.7595017 106.4379987  33.7335006  67.0485017
 105.5219987  32.8805006  65.8495017 105.2599987  32.0865006  67.8505017
 104.3809987  32.6995006  68.0145017 104.8959987  31.1315006  67.4835017
 105.9809987  31.8905006  69.1705017 106.9129987  31.3415006  69.0665017
 106.2389987  32.8405006  69.6315017 105.0359987  31.1425006  70.0975017
 104.1119987  31.7095006  70.1995017 104.7569987  30.1805006  69.6735017
 105.6119987  30.9185006  71.4785017 106.1059987  31.8225006  71.8305017
 104.8019987  30.7235006  72.1785017 106.5879987  29.7585006  71.5315017
 106.1919987  28.8855006  71.0155017 107.5359987  29.9925006  71.0555017
 106.8489987  29.4055006  72.9885017 105.9369987  29.2755006  73.5605017
 107.4079987  28.4755006  73.0875017 107.6689987  30.5105006  73.5345017
 108.5499987  30.5265006  72.9105017 107.5979987  31.4115006  74.5015017
 108.4009987  32.1125006  74.6805017 106.4519987  31.5645006  75.4145017
 106.3289987  32.6385006  75.5425017 105.5639987  31.2165006  74.8995017
 106.5189987  30.9275006  76.7905017 105.5109987  30.7445006  77.1615017
 106.9939987  29.9515006  76.7085017 107.2759987  31.7635006  77.7865017
 108.3089987  31.9365006  77.4845017 106.8359987  32.7455006  77.9385017
 107.2589987  30.9925006  79.0965017 106.2429987  30.9645006  79.4835017
 107.5459987  29.9575006  78.9195017 108.1939987  31.6025006  80.1335017
 108.5789987  30.8265006  80.7925017 109.0639987  32.0465006  79.6575017
 107.5019987  32.6145006  80.9745017 107.3289987  33.4995006  80.3655017
 106.5179987  32.2245006  81.2275017 108.1999987  33.0425006  82.2655017
 108.4189987  32.1525006  82.8495017 109.1649987  33.4495006  81.9725017
 107.4799987  34.0695006  83.1495017 108.1049987  34.3615006  83.9875017
 106.5539987  33.6765006  83.5555017 107.2389987  34.9675006  82.5875017
  83.0649987 106.6625006  77.4195017  82.5699987 107.6275006  77.3855017
  82.4489987 105.9955006  78.0155017  83.0919987 106.2685006  76.4075017
  84.3439987 106.7705006  77.9465017  84.2039987 107.2315006  78.9225017
  84.8299987 107.5165006  77.3235017  85.2179987 105.5775006  78.0905017
  84.6699987 104.6745006  78.3565017  85.9729987 105.7095006  78.8625017
  85.9329987 105.3595006  76.7375017  85.2789987 104.6715006  76.2065017
  86.8259987 104.7905006  76.9915017  86.3279987 106.5495006  75.7535017
  87.2929987 106.9575006  76.0425017  85.6069987 107.3565006  75.8735017
  86.3839987 106.1445006  74.3035017  85.8149987 105.2265006  74.1695017
  87.4119987 105.9065006  74.0405017  85.8529987 107.2125006  73.3455017
  86.3409987 108.1645006  73.5495017  84.7899987 107.3705006  73.5245017
  86.0689987 106.8375006  71.8685017  85.5549987 107.5705006  71.2475017
  85.5819987 105.8825006  71.6785017  87.5259987 106.7505006  71.4405017
  88.0079987 105.8775006  71.8755017  88.0879987 107.6145006  71.7935017
  87.6209987 106.6755006  69.9275017  88.6819987 106.6585006  69.6875017
  87.2359987 107.6195006  69.5425017  86.9189987 105.5365006  69.2385017
  87.2429987 105.4955006  68.2005017  85.8469987 105.7255006  69.2125017
  87.1719987 104.1895006  69.8695017  86.7029987 104.1525006  70.8495017
  88.2409987 104.0695006  70.0385017  86.6869987 103.0415006  69.0175017
  86.8029987 102.1165006  69.5805017  87.3109987 102.9405006  68.1335017
  85.2419987 103.1485006  68.5905017  85.0609987 104.1115006  68.1255017
  84.6099987 103.1015006  69.4735017  84.8229987 102.0515006  67.6405017
  85.0259987 101.0795006  68.0715017  85.3619987 102.1365006  66.7045017
  83.5809987 102.5585006  67.4475017  82.5569987 102.2595006  67.9915017
  83.8409987 103.5825006  66.4325017  83.4049987 103.4195006  65.1105017
  82.6399987 102.7835006  65.5285017  84.2339987 102.8075006  64.7845017
  82.7289987 104.3955006  63.7245017  81.6679987 104.2185006  63.6615017
  83.4049987 103.7985006  62.5635017  82.9589987 102.8485006  62.3025017
  84.4479987 103.6375006  62.8055017  83.2849987 104.6955006  61.5125017
  83.7459987 104.1365006  60.1215017  85.1529987 104.8305006  60.0835017
  85.3779987 106.1795006  60.4555017  84.5719987 106.8175006  60.1185017
  86.2779987 106.5345006  59.9625017  85.6419987 106.3705006  61.9685017
  84.8999987 105.8375006  62.5495017  85.5719987 107.4235006  62.1985017
  86.9849987 105.9175006  62.5005017  87.0629987 104.4525006  62.2005017
  86.1639987 103.9765006  62.5685017  87.9229987 104.0525006  62.7155017
  87.1829987 104.3185006  61.1355017  88.0669987 106.6475006  61.7555017
  87.8389987 107.7025006  61.7665017  88.1199987 106.2665006  60.7515017
  88.9969987 106.4645006  62.2745017  87.0499987 106.1155006  63.9865017
  86.8859987 107.1585006  64.2135017  88.0249987 105.8165006  64.3415017
  86.2909987 105.5135006  64.4645017  84.0039987 102.6745006  60.1755017
  82.8169987 104.7525006  59.1565017  82.8229987 105.8065006  63.9375017
  81.7729987 106.3305006  64.6215017  80.5979987 106.0195006  64.5765017
  82.3549987 107.2955006  65.6535017  83.1059987 107.8135006  65.0665017
  81.5519987 108.0115006  65.8085017  82.9299987 106.7845006  67.0235017
  83.5649987 105.9295006  66.8175017  83.5819987 107.5515006  67.4285017
  81.8739987 106.3865006  68.0745017  81.1809987 107.2045006  68.2525017
  81.2769987 105.5605006  67.6955017  82.5319987 105.9505006  69.4055017
  83.2379987 105.1505006  69.1905017  83.1169987 106.7705006  69.8145017
  81.5529987 105.4555006  70.4805017  80.8229987 106.2345006  70.6915017
  80.9909987 104.6155006  70.0775017  82.2219987 105.0145006  71.7935017
  82.9699987 105.7645006  72.0435017  81.4789987 105.0455006  72.5855017
  82.8749987 103.6305006  71.7895017  83.8079987 103.8825006  71.2985017
  83.1019987 103.5385006  72.8505017  82.3469987 102.3305006  71.3025017
  82.3389987 102.1225006  70.2435017  81.8939987 101.3985006  72.0945017
  81.5109987 100.4005006  71.9365017  81.9239987 101.8175006  73.5225017
  82.7039987 102.5705006  73.6185017  80.9939987 102.3085006  73.7865017
  82.1899987 100.7845006  74.4495017  81.3099987 100.1485006  74.5375017
  82.9809987 100.1545006  74.0475017  82.5779987 101.2555006  75.7595017
  81.5729987 101.2145006  76.1805017  83.0699987 100.3345006  76.0585017
  83.3039987 102.4145006  76.3375017  84.3209987 102.3955006  75.9525017
  82.8509987 103.3275006  75.9555017  83.3259987 102.4635006  77.8725017
  83.8269987 103.3995006  78.1125017  82.2879987 102.5985006  78.1655017
  83.9729987 101.3485006  78.7195017  83.9839987 101.7135006  79.7445017
  83.2729987 100.5145006  78.7035017  85.2989987 100.8445006  78.3945017
  85.7199987 100.1525006  79.1195017  85.3259987 100.3255006  77.4395017
  86.2129987 102.1265006  78.3005017  87.2139987 101.8625006  77.9735017
  86.3059987 102.6295006  79.2575017  85.8099987 102.8415006  77.5895017
  94.7569987  10.4805006  77.7495017  94.2369987   9.9565006  78.5445017
  94.0229987  11.0655006  77.2025017  95.4529987  11.1755006  78.2115017
  95.5199987   9.4605006  76.7835017  94.7899987   8.7645006  76.3735017
  96.1999987   8.8675006  77.3885017  96.2629987  10.1095006  75.6635017
  96.8769987  10.9045006  76.0875017  95.5259987  10.6025006  75.0325017
  97.1399987   9.2085006  74.7775017  96.5649987   8.3995006  74.3315017
  97.9489987   8.7335006  75.3315017  97.7219987  10.0555006  73.6695017
  98.3479987   9.4235006  73.0445017  98.3859987  10.7865006  74.1275017
  96.7149987  10.7755006  72.7885017  96.0609987  11.4465006  73.3425017
  96.0629987  10.0995006  72.2395017  97.5459987  11.5845006  71.8015017
  98.3229987  10.9355006  71.4025017  98.0589987  12.3695006  72.3555017
  96.7739987  12.2065006  70.6515017  96.0739987  12.9655006  70.9975017
  96.1809987  11.4685006  70.1145017  97.7759987  12.8455006  69.6875017
  98.4339987  12.0815006  69.2795017  98.4169987  13.5405006  70.2285017
  97.0839987  13.5855006  68.5375017  96.1749987  14.0455006  68.9205017
  96.7669987  12.8565006  67.7925017  97.9499987  14.6275006  67.8745017
  98.3769987  15.2855006  68.6285017  97.3529987  15.2625006  67.2215017
  99.0709987  14.0235006  67.0865017  99.5699987  13.3155006  67.7425017
  99.7859987  14.8235006  66.9025017  98.7289987  13.3525006  65.7455017
  98.3239987  14.1145006  65.0815017  97.9349987  12.6265006  65.8955017
  99.9149987  12.6625006  65.0165017 100.7019987  13.4055006  65.0935017
  99.5729987  12.6715006  63.9845017 100.4759987  11.3295006  65.3135017
  99.7009987  10.5745006  65.2755017 100.9229987  11.3195006  66.3005017
 101.7839987  11.1805006  64.4995017 102.5649987  12.0775006  64.1985017
 101.9329987   9.9225006  64.2955017 103.0099987   9.4845006  63.4605017
 103.5429987   8.8265006  64.1295017 103.6599987  10.2985006  63.1735017
 102.5219987   8.7065006  62.2235017 103.3359987   8.1435006  61.7975017
 101.8859987   9.6135006  61.1405017 101.9499987   9.1485006  60.1655017
 102.4219987  10.5535006  61.1125017 100.5519987   9.8245006  61.4945017
  99.5889987  10.8235006  60.7945017  98.2209987  10.5865006  61.5705017
  98.1179987   9.6355006  62.6165017  97.6539987  10.0375006  63.5075017
  99.1059987   9.2935006  62.9115017  97.3839987   8.3765006  62.1335017
  97.2159987   7.8355006  63.0565017  97.9889987   7.7665006  61.4785017
  96.0269987   8.4845006  61.4665017  96.0909987   9.2065006  60.1505017
  96.6099987  10.1445006  60.2955017  95.0789987   9.3975006  59.8255017
  96.5899987   8.5775006  59.4295017  95.6739987   7.0995006  61.1665017
  95.8099987   6.5095006  62.0605017  96.2949987   6.7455006  60.3635017
  94.6349987   7.0875006  60.8695017  95.0279987   9.1125006  62.4065017
  94.9599987   8.5155006  63.3035017  94.0629987   9.1515006  61.9245017
  95.3479987  10.1135006  62.6565017 100.0609987  12.1645006  61.1515017
  99.3859987  10.4915006  59.3755017 101.6649987   7.7325006  62.8155017
 101.2629987   6.6865006  62.1515017 101.4349987   6.4515006  60.9745017
 100.6289987   5.7635006  63.1905017 100.4049987   4.8145006  62.7135017
 101.3419987   5.5385006  63.9795017  99.3779987   6.4275006  63.7535017
  99.5699987   7.4785006  63.9375017  98.5689987   6.3915006  63.0305017
  98.9389987   5.7645006  65.0565017  98.7269987   4.7125006  64.8805017
  99.7689987   5.7935006  65.7585017  97.7299987   6.4425006  65.7025017
  97.0599987   6.7505006  64.9015017  97.1829987   5.7105006  66.2915017
  98.0229987   7.6565006  66.5765017  98.6589987   8.3645006  66.0505017
  97.0969987   8.1855006  66.7955017  98.6879987   7.2625006  67.9025017
  98.0619987   6.4965006  68.3575017  99.6389987   6.7875006  67.6765017
  98.9329987   8.4015006  68.9285017  97.9509987   8.6455006  69.3155017
  99.4759987   7.9275006  69.7455017  99.6839987   9.6545006  68.5095017
  99.1129987  10.4365006  68.0325017 101.0019987   9.8805006  68.6945017
 101.4469987  10.8095006  68.3685017 101.9739987   8.9285006  69.3465017
 101.4189987   8.2355006  69.9775017 102.5009987   8.3215006  68.6185017
 102.9719987   9.6545006  70.2085017 103.8119987   9.0135006  70.4755017
 103.3959987  10.5045006  69.6785017 102.2819987  10.1495006  71.4835017
 102.7889987  11.0475006  71.8355017 101.2629987  10.4465006  71.2525017
 102.2679987   9.1175006  72.5925017 101.5929987   8.3015006  72.3425017
 103.2519987   8.6705006  72.7195017 101.8419987   9.7595006  73.8905017
 102.5839987  10.4865006  74.2155017 100.9149987  10.3145006  73.7705017
 101.6909987   8.7355006  74.9795017 100.8359987   8.0835006  74.8115017
 102.5599987   8.0835006  75.0465017 101.5169987   9.4065006  76.2615017
 102.3129987  10.0675006  76.5965017 100.5969987   9.9785006  76.3595017
 101.4349987   8.1055006  77.2525017 101.2139987   8.4105006  78.2705017
 102.3679987   7.5525006  77.2735017 100.6529987   7.4215006  76.9345017
  90.0889987   4.6945006  81.9055017  90.6209987   4.5545006  82.8415017
  89.1329987   5.1575006  82.1335017  90.6589987   5.3965006  81.3035017
  89.9089987   3.4335006  81.2075017  89.3729987   2.7625006  81.8765017
  90.8959987   3.0005006  81.0675017  89.1679987   3.5045006  79.8635017
  88.2599987   4.0965006  79.9785017  88.8419987   2.5035006  79.5885017
  90.0109987   4.0835006  78.6995017  90.7899987   3.3625006  78.4595017
  90.5249987   4.9765006  79.0515017  89.2349987   4.4165006  77.4115017
  88.5289987   5.2235006  77.5925017  88.6429987   3.5545006  77.1095017
  90.1679987   4.8195006  76.2575017  91.0189987   4.1415006  76.2175017
  90.5769987   5.8105006  76.4425017  89.4509987   4.8135006  74.9025017
  88.5069987   5.3505006  74.9745017  89.1999987   3.7935006  74.6145017
  90.2899987   5.4335006  73.8375017  91.2439987   4.9095006  73.7955017
  90.5189987   6.4585006  74.1245017  89.6279987   5.4305006  72.3965017
  88.7519987   6.0735006  72.3495017  89.2909987   4.4365006  72.1045017
  90.6739987   5.9235006  71.3935017  91.3759987   5.0995006  71.2925017
  91.2109987   6.7215006  71.9065017  90.2099987   6.4535006  69.9065017
  91.0739987   6.6375006  69.2715017  89.6709987   7.3975006  69.9645017
  89.3639987   5.4545006  69.2545017  89.0359987   5.7545006  68.2625017
  88.4599987   5.2405006  69.8225017  90.1809987   4.2065006  69.1705017
  89.7149987   3.5645006  68.4245017  90.1069987   3.6775006  70.1165017
  91.6659987   4.3655006  68.7985017  92.1879987   3.4375006  69.0055017
  92.0979987   5.1215006  69.4495017  91.9209987   4.7735006  67.3385017
  91.3819987   5.6815006  67.0985017  91.5969987   3.9885006  66.6655017
  93.4209987   4.6385006  66.9965017  94.2529987   4.0965006  67.7045017
  93.6609987   5.2265006  65.8325017  94.9529987   5.0785006  65.2045017
  95.5469987   4.5205006  65.9105017  95.3619987   6.0725006  65.1025017
  94.9139987   4.3405006  63.8175017  95.9289987   4.1265006  63.5285017
  94.2259987   5.1975006  62.7515017  94.2919987   4.6435006  61.8245017
  94.8459987   6.0835006  62.6655017  92.8949987   5.5505006  63.0275017
  91.7559987   4.8965006  62.1795017  92.0869987   3.3675006  62.1975017
  91.1339987   2.4265006  61.7425017  90.0779987   2.6685006  61.7875017
  91.3089987   1.5785006  62.3855017  91.5349987   2.0175006  60.3265017
  91.8629987   2.8855006  59.7735017  90.3199987   1.4645006  59.6505017
  90.5159987   0.4625006  59.6095017  89.4329987   1.6865006  60.1485017
  90.2419987   1.7925006  58.7055017  92.7979987   1.0975006  60.4145017
  90.4989987   5.0855006  62.9265017  91.7889987   5.4585006  60.8035017
  94.1789987   3.1335006  63.8935017  94.6869987   2.1715006  64.5895017
  95.8539987   2.1025006  64.9535017  92.6629987  -0.1254994  60.1365017
  93.9059987   1.5565006  60.7715017  93.5959987   1.0965006  64.8735017
  93.1669987   0.9285006  63.8915017  94.1569987   0.1955006  65.1105017
  92.4949987   1.3775006  65.9545017  93.0199987   1.6135006  66.8735017
  91.9839987   2.2885006  65.6585017  91.4519987   0.2525006  66.2365017
  90.5059987   0.7415006  66.4545017  91.3119987  -0.2734994  65.2955017
  91.7779987  -0.7834994  67.3355017  90.9939987  -1.5354994  67.2785017
  92.6999987  -1.2834994  67.0495017  91.8989987  -0.3164994  68.8045017
  92.6399987  -0.9464994  69.2925017  92.3199987   0.6865006  68.7845017
  90.6329987  -0.2944994  69.6355017  89.9789987   0.4335006  69.1575017
  90.1569987  -1.2634994  69.5105017  90.7269987   0.0185006  71.1455017
  89.8909987  -0.4454994  71.6555017  91.6259987  -0.4524994  71.5395017
  90.7889987   1.4785006  71.4335017  89.8639987   2.0355006  71.4295017
  91.9039987   2.1555006  71.7115017  91.7969987   3.2135006  71.9035017
  93.3209987   1.6545006  71.8045017  93.2849987   0.6115006  72.1135017
  93.7989987   1.6665006  70.8315017  94.1909987   2.4235006  72.8095017
  95.1859987   1.9825006  72.8415017  94.3229987   3.4435006  72.4525017
  93.6019987   2.4565006  74.2215017  92.5929987   2.8675006  74.1995017
  93.5109987   1.4515006  74.6245017  94.4529987   3.2855006  75.1345017
  95.5009987   3.1345006  74.8865017  94.2509987   4.3425006  74.9715017
  94.2149987   2.9535006  76.5805017  93.5329987   3.6095006  77.1175017
  93.9029987   1.9405006  76.8205017  95.6489987   3.2105006  77.1195017
  96.3169987   2.4255006  76.7695017  96.0309987   4.1405006  76.7025017
  95.7369987   3.2795006  78.5065017  94.7289987   3.5695006  78.7935017
  95.8259987   2.2255006  78.7605017  97.2169987   4.4365006  79.7165017
  97.0959987   4.2285006  80.7755017  97.1039987   5.5065006  79.5805017
  98.2349987   4.1745006  79.4425017   5.2979987  15.1115006  78.1915017
   5.4839987  16.0465006  78.7105017   5.8549987  15.1335006  77.2595017
   5.7059987  14.3095006  78.8005017   3.8359987  14.9085006  77.9435017
   3.4239987  15.7145006  77.3385017   3.2789987  14.9115006  78.8765017
   3.6409987  13.6255006  77.2405017   4.0989987  12.7975006  77.7815017
   4.1159987  13.6445006  76.2615017   2.1379987  13.3395006  77.0495017
   1.5879987  13.6375006  77.9395017   1.9599987  12.2725006  76.9285017
   1.5649987  14.0875006  75.8475017   1.8979987  15.1195006  75.9155017
   0.4839987  14.1065006  75.9765017   1.8989987  13.5465006  74.4465017
   1.2519987  12.7035006  74.2085017   2.9169987  13.1635006  74.4265017
   1.7439987  14.6215006  73.3715017   2.4639987  15.4185006  73.5485017
   0.7589987  15.0785006  73.4545017   1.9289987  14.0835006  71.9685017
   1.4269987  13.1305006  71.8045017   2.9729987  13.9275006  71.7015017
   1.3179987  15.1485006  71.0325017   1.8409987  16.0925006  71.1725017
   0.2829987  15.3295006  71.3195017   1.3689987  14.7645006  69.5955017
   1.2329987  13.6855006  69.5635017   2.3879987  14.9535006  69.2585017
   0.3689987  15.4585006  68.6185017   0.5969987  16.5185006  68.7095017
  -0.6080013  15.3195006  69.0775017   0.2789987  15.0955006  67.0665017
   0.4529987  14.0225006  67.0275017   1.1599987  15.5625006  66.6295017
  -0.9790013  15.4745006  66.1925017  -1.0010013  16.5625006  66.1785017
  -1.8530013  15.1595006  66.7555017  -1.1090013  14.9865006  64.7655017
  -1.9780013  15.4485006  64.3085017  -1.2990013  13.9165006  64.7915017
   0.0709987  15.2315006  63.9205017   0.9569987  14.8065006  64.3745017
   0.2249987  16.2955006  63.7865017   0.4779987  16.5305006  63.6995017
  -0.2630013  17.3155006  64.1585017   1.5209987  16.7445006  63.0705017
   1.9189987  18.1155006  63.0435017   1.6159987  18.5995006  63.9595017
   1.4459987  18.6125006  62.2085017   3.3649987  18.1445006  62.9135017
   3.8049987  19.1275006  62.9535017   3.6559987  17.4995006  61.5585017
   4.6779987  17.6935006  61.2635017   2.9939987  17.9375006  60.8225017
   3.4239987  16.0945006  61.6625017   3.0069987  15.1875006  60.4515017
   3.6889987  13.8205006  60.8895017   4.9249987  13.4325006  60.3195017
   4.8949987  13.4215006  59.2375017   5.1719987  12.4215006  60.6305017
   6.0729987  14.2995006  60.8265017   5.8419987  15.3465006  60.6765017
   6.9299987  14.0425006  60.2205017   6.5319987  14.1795006  62.2705017
   5.4489987  13.7695006  63.2435017   4.5969987  14.4205006  63.1055017
   5.8379987  13.8865006  64.2435017   5.1969987  12.7335006  63.0715017
   7.7059987  13.2705006  62.3515017   8.4319987  13.5825006  61.6165017
   7.3799987  12.2605006  62.1785017   8.1199987  13.3645006  63.3455017
   6.9239987  15.5705006  62.6105017   7.6939987  15.8995006  61.9285017
   7.3009987  15.5955006  63.6215017   6.0629987  16.2175006  62.5295017
   1.5569987  14.9655006  60.3895017   3.7089987  15.7525006  59.2795017
   3.9169987  17.3755006  63.9725017   3.9419987  17.8765006  65.1645017
   3.8729987  19.0615006  65.4545017   4.3049987  16.7065006  66.0815017
   3.3919987  16.1445006  66.2495017   4.9719987  16.0365006  65.5455017
   4.9329987  17.1765006  67.3855017   5.6199987  16.4145006  67.7355017
   5.5349987  18.0605006  67.1985017   3.9219987  17.4645006  68.4675017
   3.1409987  18.0835006  68.0335017   3.4529987  16.5165006  68.7175017
   4.4359987  18.0945006  69.7335017   5.2559987  18.7675006  69.4905017
   3.6689987  18.7065006  70.2015017   4.9279987  17.0935006  70.7285017
   4.1579987  16.4075006  71.0775017   5.7319987  16.4725006  70.3375017
   5.4559987  17.8865006  71.8945017   6.2349987  18.5795006  71.5795017
   4.6849987  18.4865006  72.3695017   6.0259987  16.9245006  72.9245017
   5.2269987  16.4945006  73.5165017   6.5109987  16.0935006  72.4145017
   7.0299987  17.6035006  73.7895017   8.0769987  17.4425006  73.5785017
   6.7329987  18.4125006  74.8055017   7.5299987  18.8695006  75.3745017
   5.3399987  18.7895006  75.2785017   5.0089987  19.6945006  74.7715017
   4.5959987  18.0315006  75.0625017   5.3629987  19.0615006  76.7655017
   6.0939987  18.3875006  77.2105017   5.7589987  20.0665006  76.8965017
   4.0569987  18.9435006  77.5035017   3.3889987  19.7125006  77.1155017
   3.6069987  17.9905006  77.2405017   4.1349987  19.0645006  78.9975017
   4.5349987  18.2015006  79.5255017   4.6649987  19.9325006  79.3865017
   2.6539987  19.2105006  79.2915017   2.2249987  20.1645006  78.9905017
   2.0089987  18.4475006  78.8655017   2.6179987  19.1455006  80.6485017
   3.0389987  18.1655006  80.8665017   3.3689987  19.8715006  80.9545017
   1.4339987  19.3325006  81.4705017   1.5249987  19.3315006  82.5535017
   0.7959987  20.1795006  81.2285017   0.8419987  18.2405006  81.0845017
  -0.1560013  18.1735006  81.5065017   1.3859987  17.3535006  81.3925017
   0.7459987  18.2095006  80.0025017  21.4509987   0.7265006  78.9835017
  21.7189987  -0.3114994  78.8115017  20.4169987   0.7505006  79.3155017
  22.0659987   1.0955006  79.7995017  21.6419987   1.5455006  77.7555017
  21.0379987   1.0595006  76.9915017  22.6789987   1.3845006  77.4725017
  21.3309987   3.0225006  77.7685017  21.6189987   3.4755006  78.7175017
  20.2589987   3.1835006  77.6705017  22.0289987   3.7435006  76.6405017
  22.7289987   3.0555006  76.1705017  22.6309987   4.5545006  77.0485017
  21.1009987   4.2935006  75.5755017  21.6589987   4.7645006  74.7705017
  20.4569987   5.0655006  75.9935017  20.2469987   3.1915006  74.9995017
  19.4299987   3.5975006  74.4055017  19.7849987   2.5995006  75.7875017
  21.0929987   2.2925006  74.1335017  20.5849987   1.3445006  73.9655017
  22.0269987   2.0515006  74.6395017  21.4079987   2.9555006  72.7635017
  21.9399987   3.8725006  73.0125017  20.4399987   3.2625006  72.3705017
  22.1819987   2.2005006  71.6705017  21.8889987   1.1545006  71.7375017
  23.2359987   2.2385006  71.9425017  22.0149987   2.6825006  70.2245017
  22.4229987   3.6895006  70.1785017  20.9459987   2.7775006  70.0375017
  22.6439987   1.8095006  69.1265017  23.5699987   1.4005006  69.5245017
  22.9309987   2.4585006  68.3005017  21.8439987   0.7155006  68.6185017
  21.2969987   0.2115006  69.4115017  22.4669987  -0.0434994  68.1485017
  20.8859987   1.2555006  67.5905017  21.0369987   2.3285006  67.4885017
  19.8579987   1.1225006  67.9145017  21.0639987   0.6055006  66.1745017
  20.1919987   0.6645006  65.5315017  21.3569987  -0.4404994  66.2115017
  22.1309987   1.3565006  65.5905017  23.0019987   1.3395006  66.2325017
  21.8299987   2.3865006  65.4405017  21.5769987   2.7235006  65.5385017
  20.5179987   3.2245006  65.9255017  22.4029987   3.1725006  64.7365017
  22.1609987   4.3975006  64.2475017  21.6309987   5.0355006  64.9365017
  21.5809987   4.2915006  63.3425017  23.7279987   5.0485006  63.9065017
  23.4519987   6.0145006  63.5175017  24.3469987   4.2975006  62.9315017
  25.0579987   4.8885006  62.3695017  23.6029987   3.9115006  62.2425017
  24.9839987   3.2605006  63.5935017  26.3629987   2.7825006  63.2505017
  26.0559987   2.9555006  61.6895017  25.2839987   1.9035006  61.1155017
  24.4839987   1.6065006  61.7845017  25.9429987   1.0585006  60.9895017
  24.7189987   2.2705006  59.7075017  25.5509987   2.4255006  59.0365017
  23.9299987   3.5295006  59.7655017  22.9679987   3.2025006  59.6625017
  24.0849987   4.0735006  60.6395017  24.1279987   4.1255006  58.9825017
  23.8219987   1.1335006  59.2075017  27.4559987   3.7055006  63.6335017
  26.2979987   1.3975006  63.7205017  24.9489987   5.0865006  64.9215017
  25.9649987   6.2875006  64.8635017  25.7549987   7.2465006  64.1405017
  22.6409987   1.4035006  58.8485017  24.3099987  -0.0124994  59.2095017
  26.6559987   6.4765006  66.2635017  27.6489987   6.0815006  66.0775017
  26.7759987   7.5535006  66.3495017  26.0169987   5.8725006  67.5655017
  25.0059987   6.2505006  67.6715017  25.9259987   4.7955006  67.4635017
  26.7749987   6.1935006  68.7675017  27.2089987   7.1855006  68.8675017
  26.3089987   5.9695006  69.7235017  27.8499987   5.1865006  68.5135017
  28.3309987   5.4815006  67.5835017  28.6009987   5.2965006  69.2925017
  27.4589987   3.7005006  68.4065017  26.4329987   3.6525006  68.7645017
  27.4159987   3.5095006  67.3365017  28.2919987   2.5755006  69.0785017
  29.2919987   2.5895006  68.6475017  28.4099987   2.7975006  70.1355017
  27.6829987   1.1315006  68.9325017  27.6489987   0.9105006  67.8715017
  28.4099987   0.4455006  69.3655017  26.3249987   0.8845006  69.5905017
  25.4719987   0.9085006  68.9285017  26.0839987   0.6285006  70.8985017
  25.0749987   0.4595006  71.2465017  27.1239987   0.5455006  71.9745017
  27.2549987  -0.4944994  72.2675017  28.0959987   0.8915006  71.6405017
  26.6909987   1.3535006  73.2295017  26.5499987   2.3995006  72.9585017
  25.7199987   0.9935006  73.5625017  27.6889987   1.2555006  74.3885017
  27.7929987   0.2025006  74.6505017  28.6619987   1.5765006  74.0285017
  27.3199987   2.0545006  75.6455017  27.2069987   3.1055006  75.3885017
  26.3539987   1.7285006  76.0265017  28.3739987   1.8955006  76.7435017
  29.2719987   1.4405006  76.3305017  28.6809987   2.8665006  77.1225017
  27.8849987   1.0095006  77.8995017  27.1799987   0.2695006  77.5245017
  28.7229987   0.4475006  78.3095017  27.2149987   1.7865006  79.0415017
  27.6039987   1.4575006  80.0015017  27.4959987   2.8335006  78.9505017
  25.7109987   1.6885006  79.0495017  25.2869987   2.3245006  79.8205017
  25.3719987   0.6765006  79.2405017  25.2939987   2.0015006  78.0965017
 102.6699987  15.3505006  79.0185017 102.8829987  15.9265006  79.9135017
 103.3279987  14.4865006  79.0175017 101.6489987  14.9865006  79.0945017
 102.8589987  16.1865006  77.7665017 103.8829987  16.5565006  77.7535017
 102.2189987  17.0615006  77.8465017 102.5769987  15.4485006  76.4655017
 101.5059987  15.2665006  76.3815017 103.0459987  14.4675006  76.5155017
 103.0709987  16.1595006  75.1985017 104.0449987  15.7645006  74.9195017
 103.2209987  17.2195006  75.3965017 102.1149987  15.9945006  74.0065017
 102.4029987  16.7055006  73.2365017 101.1219987  16.2905006  74.3395017
 102.0439987  14.5985006  73.3905017 101.2849987  14.5715006  72.6115017
 101.7359987  13.8735006  74.1405017 103.3719987  14.1785006  72.8075017
 103.3449987  13.1705006  72.3975017 104.1709987  14.1845006  73.5475017
 103.7129987  15.1755006  71.6845017 104.3049987  16.0025006  72.0745017
 102.8059987  15.6175006  71.2755017 104.4349987  14.5325006  70.6375017
 103.8219987  13.6865006  70.3345017 105.3229987  14.1115006  71.1075017
 104.8499987  15.3295006  69.3955017 105.8339987  15.0035006  69.0655017
 104.9479987  16.3845006  69.6495017 103.8729987  15.1835006  68.2945017
 104.3199987  15.6615006  67.4255017 103.0069987  15.7875006  68.5595017
 103.4049987  13.7775006  67.8865017 102.6989987  13.3465006  68.5915017
 104.2319987  13.0735006  67.8155017 102.7709987  13.9075006  66.5365017
 102.2079987  13.0115006  66.2815017 103.4989987  14.0465006  65.7425017
 101.8099987  15.0785006  66.5355017 102.3159987  15.9745006  66.8815017
 101.0099987  14.8765006  67.2435017 101.1789987  15.3535006  65.1415017
 100.6959987  14.4625006  64.7615017 101.9409987  15.6635006  64.4365017
 100.0529987  16.3055006  65.0205017  99.7259987  17.0745006  65.8935017
  99.4649987  16.0745006  63.8475017  98.5809987  17.0455006  63.4435017
  98.2609987  17.5425006  64.3465017  97.7179987  16.6285006  62.9445017
  99.3209987  18.0295006  62.5295017  98.6439987  18.8665006  62.4905017
  99.6929987  17.5805006  61.0835017  99.7029987  18.4345006  60.4205017
  98.9379987  16.8835006  60.7405017 100.9549987  16.9625006  61.1075017
 101.2819987  15.8465006  60.0495017 102.7819987  15.6235006  60.4265017
 103.2499987  15.2615006  61.7025017 104.1869987  14.7235006  61.6535017
 102.5359987  14.5935006  62.1755017 103.3549987  16.4495006  62.6295017
 103.7019987  16.1105006  63.5975017 102.3889987  16.9185006  62.7515017
 104.2839987  17.5305006  62.2245017 105.6569987  17.0505006  62.3605017
 105.7809987  16.6365006  63.3515017 106.3189987  17.8945006  62.2335017
 105.8499987  16.3185006  61.5905017 104.1949987  18.1485006  60.8835017
 103.1689987  18.4315006  60.7035017 104.5429987  17.4445006  60.1485017
 104.8259987  19.0255006  60.8895017 103.9509987  18.5665006  63.1645017
 102.9039987  18.8115006  63.0675017 104.5479987  19.4415006  62.9545017
 104.1549987  18.2215006  64.1685017 100.4759987  14.6765006  60.3605017
 101.1859987  16.4315006  58.6955017 100.5389987  18.4205006  63.1795017
 100.2079987  19.1935006  64.1845017  99.0859987  19.4335006  64.4765017
 101.4369987  19.6675006  64.9235017 102.1159987  18.8265006  65.0215017
 101.9659987  20.4085006  64.3285017 101.0229987  20.2545006  66.3195017
 100.3319987  21.0635006  66.1105017 100.4429987  19.4855006  66.8195017
 102.1279987  20.7665006  67.2575017 103.0269987  21.0855006  66.7375017
 101.8029987  21.6175006  67.8505017 102.4289987  19.6915006  68.1355017
 102.9579987  18.9075006  67.5965017 103.0879987  20.0035006  68.9415017
 101.1829987  19.0985006  68.7295017 100.4169987  19.8455006  68.9275017
 100.7279987  18.3685006  68.0625017 101.5509987  18.4125006  70.0095017
 102.5829987  18.0705006  69.9425017 101.5159987  19.1195006  70.8345017
 100.6519987  17.2345006  70.3405017 100.6719987  16.5115006  69.5335017
 101.0359987  16.7215006  71.2215017  99.3109987  17.6705006  70.6115017
  98.5309987  17.5615006  69.8725017  98.9799987  18.1925006  71.7415017
  97.9489987  18.4885006  71.8715017  99.8489987  18.4525006  72.9415017
  99.7599987  17.4845006  73.4315017 100.8339987  18.4745006  72.4885017
  99.7609987  19.5085006  73.9805017 100.7009987  19.5375006  74.5305017
  99.6739987  20.4705006  73.4785017  98.5409987  19.3385006  75.0115017
  98.0549987  20.2845006  75.2495017  97.7579987  18.6785006  74.6475017
  99.0699987  18.8285006  76.1165017  99.0459987  17.7435006  76.0435017
 100.1209987  19.1065006  76.1705017  98.3589987  19.2835006  77.4015017
  98.6919987  20.2725006  77.7105017  97.2829987  19.3595006  77.2735017
  98.6619987  18.3715006  78.4525017  98.0749987  17.4705006  78.2835017
  99.7039987  18.0785006  78.3375017  98.4269987  18.8665006  80.0075017
  98.3189987  19.9355006  79.8425017  97.4169987  18.4845006  80.1395017
  99.2659987  18.6115006  81.3785017  98.7459987  19.0335006  82.2325017
 100.2509987  19.0645006  81.3415017  99.3979987  17.5495006  81.5635017
  99.8819987  93.7785006  81.4165017  99.7199987  94.6185006  82.0855017
 100.5889987  93.1065006  81.8945017  98.9389987  93.2475006  81.3175017
 100.4739987  94.3155006  79.8475017 101.3459987  94.8905006  80.1545017
  99.7039987  95.0405006  79.5975017 100.9509987  93.1965006  78.1995017
 100.8219987  93.9565006  77.4285017 100.0619987  92.5705006  78.1565017
 102.4719987  92.1185006  77.7745017 102.2759987  91.2695006  78.4255017
 103.2539987  92.6985006  78.2625017 102.9179987  91.6695006  76.6195017
 103.0569987  92.4475006  75.8725017 102.2569987  90.9295006  76.1705017
 104.2869987  91.0145006  76.9215017 104.2759987  90.1175006  77.5375017
 105.0579987  91.6595006  77.3375017 104.6469987  90.6545006  75.5505017
 104.4329987  91.4755006  74.8685017 104.0529987  89.8095006  75.2055017
 106.1069987  90.3035006  75.4625017 106.2229987  89.4955006  74.7415017
 106.4229987  89.9015006  76.4235017 107.0289987  91.4635006  75.0735017
 108.0569987  91.1545006  75.2475017 106.8419987  92.2915006  75.7555017
 106.8829987  91.9575006  73.6235017 107.3349987  92.9405006  73.5085017
 105.8319987  92.0715006  73.3585017 107.5359987  90.9675006  72.6665017
 107.1779987  89.9685006  72.9055017 108.6099987  90.9535006  72.8435017
 107.2749987  91.2285006  71.1975017 107.9159987  90.5685006  70.6175017
 107.6039987  92.2425006  70.9775017 105.8179987  91.0785006  70.7475017
 105.1859987  91.7485006  71.3275017 105.4499987  90.0735006  70.9355017
 105.6239987  91.4125006  69.2645017 106.1019987  90.6505006  68.6575017
 106.1359987  92.3485006  69.0565017 104.1559987  91.5525006  68.8355017
 103.6489987  92.2845006  69.4515017 103.6429987  90.6025006  68.9305017
 104.0399987  91.6125006  67.3125017 104.8489987  91.1525006  66.5265017
 102.8799987  92.1745006  67.0125017 102.5939987  92.4085006  65.6225017
 101.5489987  92.1785006  65.4815017 103.1849987  91.7655006  64.9865017
 102.8609987  93.8895006  65.3085017 102.1729987  94.4965006  65.8735017
 102.7149987  94.1975006  63.7955017 102.7229987  95.2695006  63.6535017
 101.7519987  93.8125006  63.4835017 103.7589987  93.5885006  63.0445017
 103.9679987  93.7855006  61.4935017 104.9179987  92.5275006  61.1275017
 105.9879987  92.2315006  62.0345017 105.7639987  92.6265006  63.0165017
 106.8769987  92.7515006  61.6885017 106.4049987  90.7065006  62.1165017
 105.4679987  90.1735006  62.2145017 106.9989987  90.5305006  63.0015017
 107.1509987  90.0275006  60.9695017 106.2379987  89.8345006  59.8205017
 105.3389987  89.3475006  60.1725017 106.7369987  89.2025006  59.1015017
 106.0279987  90.7955006  59.3745017 108.1789987  90.8555006  60.5305017
 108.7509987  91.1755006  61.3875017 107.7549987  91.6935006  60.0065017
 108.8009987  90.2735006  59.8655017 107.7729987  88.7275006  61.2595017
 108.4769987  88.8435006  62.0695017 108.2889987  88.3765006  60.3785017
 107.0089987  88.0165006  61.5375017 102.6399987  93.6795006  60.8415017
 104.6739987  95.0695006  61.2545017 104.1899987  94.1855006  65.7605017
 104.5909987  95.4245006  65.6135017 103.8719987  96.3785006  65.3585017
 106.1059987  95.4725006  65.7665017 106.5249987  95.1255006  64.8275017
 106.4119987  96.5115006  65.8635017 106.5809987  94.6655006  66.9195017
 106.2269987  95.0995006  67.8485017 106.1709987  93.6615006  66.8825017
 108.0659987  94.6045006  66.9455017 108.5949987  93.7985006  66.4435017
 108.6279987  95.5115006  66.7365017 108.0639987  94.3695006  68.4525017
 107.6819987  93.3505006  68.4255017 109.1389987  94.2875006  68.5935017
 107.3739987  95.1795006  69.8385017 107.1819987  96.1955006  69.5005017
 106.3989987  94.7125006  69.9625017 108.1729987  95.2265006  71.3925017
 107.8929987  94.3555006  71.9835017 109.2529987  95.1875006  71.2805017
 107.8619987  96.3045006  72.0445017 108.5089987  96.5435006  72.8805017
 107.8159987  97.1995006  71.4265017 106.5389987  95.9885006  72.4905017
 105.7719987  96.0735006  71.7355017 106.1589987  95.6005006  73.6935017
 105.1049987  95.4035006  73.8305017 106.9879987  95.3825006  74.9265017
 106.7729987  94.3655006  75.2495017 108.0349987  95.3965006  74.6455017
 106.7619987  96.3445006  76.1475017 106.9799987  97.3535006  75.8005017
 105.6949987  96.3215006  76.3615017 107.5509987  96.0645006  77.4555017
 108.6059987  96.3155006  77.3505017 107.1809987  96.6515006  78.2915017
 107.4169987  94.5675006  77.7815017 106.3729987  94.3105006  77.6195017
 107.9839987  94.0265006  77.0265017 107.8599987  94.1035006  79.1755017
 108.6999987  94.7175006  79.4955017 107.0629987  94.2965006  79.8885017
 108.2949987  92.6235006  79.2565017 107.7559987  92.0285006  78.5215017
 109.3499987  92.5275006  79.0075017 108.0629987  92.0045006  80.6565017
 107.0409987  92.1875006  80.9795017 108.1549987  90.9245006  80.5635017
 109.0279987  92.4865006  81.7315017 108.8669987  91.9505006  82.6625017
 108.9069987  93.5445006  81.9405017 110.0589987  92.3255006  81.4305017
   3.4829987  81.2525006  80.1155017   3.9599987  80.9025006  81.0255017
   2.4109987  81.1255006  80.2325017   3.6799987  82.3175006  80.0275017
   4.0009987  80.4925006  78.8875017   3.8139987  79.4345006  79.0655017
   5.0809987  80.6145006  78.8785017   3.4139987  80.8855006  77.5245017
   3.6429987  81.9295006  77.3125017   2.3289987  80.8195006  77.5735017
   3.9029987  80.0135006  76.3595017   3.7699987  78.9645006  76.6135017
   4.9719987  80.1535006  76.2075017   3.1569987  80.3005006  75.0385017
   2.9259987  81.3605006  74.9745017   2.2009987  79.7805006  75.0585017
   3.9329987  79.8845006  73.7835017   3.7439987  78.8315006  73.5835017
   4.9989987  79.9705006  73.9815017   3.5799987  80.7115006  72.5325017
   2.5199987  80.9595006  72.5505017   3.7349987  80.1045006  71.6415017
   4.3979987  81.9985006  72.4145017   5.4579987  81.7475006  72.4405017
   4.2109987  82.6185006  73.2895017   4.1029987  82.8065006  71.1535017
   3.0269987  82.8675006  71.0065017   4.4989987  82.2805006  70.2855017
   4.6919987  84.2265006  71.1985017   5.7659987  84.2025006  71.0265017
   4.5499987  84.6745006  72.1815017   4.0079987  85.1085006  70.1365017
   4.3009987  86.1455006  70.2845017   2.9269987  85.0785006  70.2625017
   4.3609987  84.7075006  68.7005017   4.1209987  83.6575006  68.5545017
   5.4379987  84.7935006  68.5695017   3.6689987  85.5585006  67.6345017
   3.5819987  86.5855006  67.9865017   2.6559987  85.2125006  67.4525017
   4.4459987  85.5775006  66.2925017   5.5039987  85.6425006  66.5265017
   4.1769987  86.5045006  65.7925017   4.2129987  84.4065006  65.3145017
   3.1579987  84.3015006  65.0925017   4.5719987  83.4785006  65.7445017
   5.1589987  83.2355006  65.6105017   5.5289987  82.8505006  66.7075017
   5.4319987  82.6505006  64.4675017   5.9779987  81.3245006  64.5175017
   6.1079987  81.1405006  65.5735017   6.9389987  81.2655006  64.0275017
   4.9779987  80.2965006  63.9095017   5.3469987  79.3015006  64.0955017
   4.7689987  80.5065006  62.3785017   4.2249987  79.6645006  61.9735017
   5.7489987  80.5405006  61.9185017   4.0639987  81.7195006  62.1345017
   3.4439987  82.0975006  60.7275017   2.1839987  81.1275006  60.5735017
   1.0129987  81.3055006  61.3625017   1.1789987  81.2905006  62.4315017
   0.2699987  80.5405006  61.1555017   0.3669987  82.6215006  60.9245017
  -0.1860013  82.4155006  60.0165017   1.1509987  83.3305006  60.6995017
  -0.6130013  83.3565006  61.8535017   0.2929987  83.8055006  62.9315017
   0.8659987  82.9555006  63.2775017  -0.3140013  84.1885006  63.7385017
   0.9279987  84.5915006  62.5515017  -1.2460013  84.6005006  61.3115017
  -1.6530013  84.3815006  60.3365017  -0.5050013  85.3785006  61.2625017
  -2.0390013  84.8815006  61.9895017  -1.6620013  82.3975006  62.3215017
  -2.1750013  81.9865006  61.4655017  -2.3670013  82.9215006  62.9485017
  -1.1970013  81.6025006  62.8865017   2.9289987  83.4825006  60.8365017
   4.4009987  81.8095006  59.6505017   3.7699987  80.4385006  64.6665017
   2.6759987  79.8165006  64.3145017   2.5659987  78.8635006  63.5695017
   1.5159987  80.4235006  65.1045017   1.1119987  81.2315006  64.5025017
   0.7209987  79.6855006  65.1845017   1.9659987  80.9125006  66.5045017
   2.6179987  80.1645006  66.9425017   2.5669987  81.8105006  66.3985017
   0.7989987  81.1785006  67.4575017  -0.0980013  81.3365006  66.8645017
   0.6299987  80.2675006  68.0255017   0.9909987  82.3435006  68.4445017
   1.7269987  82.0925006  69.2065017   1.3499987  83.2495006  67.9625017
  -0.3550013  82.6505006  69.1485017  -1.1160013  82.8265006  68.3915017
  -0.6650013  81.7575006  69.6875017  -0.3300013  83.8355006  70.1325017
   0.7089987  84.1185006  70.2965017  -0.8120013  84.6935006  69.6735017
  -1.0080013  83.5585006  71.5005017  -2.0360013  83.2445006  71.3595017
  -0.5020013  82.7355006  72.0035017  -0.9280013  84.7955006  72.3885017
  -0.0240013  85.3745006  72.2735017  -1.8350013  85.2475006  73.2685017
  -1.6660013  86.1485006  73.8405017  -3.1530013  84.5795006  73.5515017
  -3.9450013  85.2125006  73.1545017  -3.2320013  83.6315006  73.0305017
  -3.4150013  84.3645006  75.0355017  -3.1300013  85.2545006  75.5955017
  -4.4830013  84.2345006  75.1965017  -2.6470013  83.1115006  75.6105017
  -3.0760013  82.2545006  75.0915017  -1.6270013  83.2065006  75.2495017
  -2.6310013  82.8345006  77.1065017  -1.9920013  83.6295006  77.4835017
  -3.6450013  83.0875006  77.4135017  -2.2500013  81.5625006  77.7085017
  -2.9660013  80.7995006  77.4095017  -1.2910013  81.2415006  77.3125017
  -2.2030013  81.5895006  79.2285017  -2.7380013  82.4575006  79.6085017
  -2.7130013  80.7185006  79.6355017  -0.7750013  81.6175006  79.7805017
  -0.8880013  81.5705006  80.8605017  -0.3730013  80.6515006  79.4825017
   0.2379987  82.7025006  79.4215017   1.2099987  82.4805006  79.8525017
  -0.0650013  83.6775006  79.7875017   0.3629987  82.7785006  78.3455017
  92.0339987  95.7035006  76.3955017  92.8949987  95.6015006  77.0485017
  92.2959987  95.2765006  75.4315017  91.2299987  95.1035006  76.8125017
  91.6119987  97.1705006  76.2565017  92.4609987  97.7335006  75.8715017
  91.4159987  97.5575006  77.2525017  90.4169987  97.4035006  75.3655017
  89.5369987  97.0185006  75.8795017  90.5469987  96.7805006  74.4835017
  90.1479987  98.8375006  74.9105017  91.0139987  99.0935006  74.3045017
  90.2249987  99.4375006  75.8155017  88.9139987  99.2225006  74.1655017
  88.1639987  98.6395006  74.6935017  89.0919987  98.7085006  73.2225017
  88.3609987 100.5875006  73.8885017  87.4029987 100.5665006  74.4055017
  88.1339987 100.5425006  72.8255017  89.0359987 101.8385006  74.1805017
  89.8609987 101.8495006  74.8895017  88.4459987 102.7305006  74.3855017
  89.5699987 101.9145006  72.8145017  88.7699987 102.0165006  72.0825017
  90.1109987 101.0085006  72.5495017  90.4779987 103.0715006  72.7075017
  91.0789987 103.1575006  73.6095017  89.9009987 103.9925006  72.6385017
  91.3979987 102.9615006  71.4955017  92.1839987 102.2545006  71.7515017
  91.8859987 103.9275006  71.3655017  90.7299987 102.5495006  70.1685017
  89.7159987 102.9435006  70.1615017  90.6329987 101.4655006  70.1435017
  91.4499987 103.0295006  68.8805017  92.4099987 102.5255006  68.8045017
  91.6709987 104.0905006  68.9835017  90.6329987 102.8185006  67.5825017
  89.7889987 103.5055006  67.6255017  90.2119987 101.8175006  67.6045017
  91.3529987 103.0325006  66.2315017  92.2709987 103.5925006  66.3755017
  90.7199987 103.6285006  65.5795017  91.6769987 101.7025006  65.5205017
  90.7789987 101.1105006  65.3955017  92.3929987 101.1305006  66.0985017
  93.0049987 101.1585006  65.9765017  93.2169987 100.6085006  67.0435017
  93.8419987 101.4685006  65.0385017  95.1869987 100.9995006  65.0495017
  95.4119987 100.6725006  66.0505017  95.8609987 101.8005006  64.7835017
  95.3099987  99.8225006  64.0615017  96.2249987  99.2915006  64.2685017
  95.2489987 100.1985006  62.5745017  95.5949987  99.3825006  61.9555017
  95.8699987 101.0615006  62.3825017  93.8959987 100.5285006  62.2865017
  93.4859987 101.1755006  60.9205017  93.9449987 102.6935006  61.1095017
  93.3689987 103.5145006  62.1165017  93.3499987 102.9455006  63.0375017
  92.3609987 103.8275006  61.8785017  94.2469987 104.7725006  62.2935017
  93.7429987 105.4835006  62.9305017  95.1909987 104.4955006  62.7425017
  94.4949987 105.4925006  60.9845017  94.7949987 104.8655006  60.2565017
  93.5279987 105.9145006  60.7075017  95.1749987 106.2275006  61.0795017
  94.3279987 100.6365006  59.8405017  92.0149987 101.2085006  60.7745017
  94.1929987  98.9675006  64.3835017  94.4959987  98.4735006  65.5455017
  95.5589987  98.6835006  66.0995017  93.4839987  97.4615006  65.9245017
  92.5279987  97.8915006  65.6455017  93.6249987  96.6025006  65.2725017
  93.5179987  97.0405006  67.4185017  94.4529987  96.5105006  67.5605017
  93.5999987  97.9545006  67.9985017  92.5099987  96.2885006  67.8915017
  91.6169987  96.8585006  67.6475017  92.5079987  95.4245006  67.2315017
  92.4429987  95.8235006  69.2595017  91.4409987  95.4235006  69.4025017
  93.1239987  94.9825006  69.3645017  92.7209987  96.8195006  70.3665017
  92.8259987  96.1435006  71.2125017  93.7299987  97.1225006  70.0935017
  91.9469987  98.0485006  70.7985017  91.7999987  98.6035006  69.8735017
  90.9689987  97.6765006  71.0915017  92.4429987  98.9785006  71.8595017
  91.7439987  99.7585006  72.1395017  92.7249987  98.4735006  72.7825017
  93.6809987  99.5595006  71.2325017  93.6739987  99.7505006  70.1695017
  94.7579987  99.8625006  71.8775017  95.6189987 100.2865006  71.3815017
  94.9239987  99.6835006  73.2615017  94.9569987  98.6065006  73.1065017
  95.9489987 100.0315006  73.1925017  94.3959987  99.9465006  74.6595017
  93.3509987 100.2505006  74.7085017  94.4989987  99.1055006  75.3425017
  95.2499987 101.0505006  75.1205017  96.2549987 100.7075006  75.3675017
  95.3699987 101.8215006  74.3645017  94.6229987 101.6385006  76.3315017
  94.5239987 100.8775006  77.1015017  95.2619987 102.4135006  76.7505017
  93.2629987 102.2315006  76.0105017  93.3039987 102.9725006  75.2145017
  92.5269987 101.4975006  75.6945017  92.8009987 102.9155006  77.2495017
  92.6689987 102.1905006  78.0515017  93.5619987 103.6135006  77.5955017
  91.4619987 103.6965006  77.0615017  91.4849987 104.3365006  76.1835017
  90.6479987 102.9935006  76.8945017  91.1449987 104.5215006  78.2715017
  90.1719987 104.9925006  78.1725017  91.8739987 105.3095006  78.4265017
  91.1259987 103.9085006  79.1685017  18.4229987   8.4965006  81.1505017
  19.2949987   7.8915006  81.3795017  17.5829987   8.0905006  81.7055017
  18.6099987   9.4995006  81.5245017  18.1879987   8.5105006  79.9155017
  18.1139987   7.4465006  79.6945017  19.1469987   8.8375006  79.5235017
  16.7719987   9.4325006  79.0355017  17.2819987  10.0035006  78.2595017
  16.4489987  10.1575006  79.7805017  15.7129987   8.8625006  78.5255017
  14.8899987   9.0275006  79.2175017  15.8819987   7.7865006  78.5085017
  15.3099987   9.3005006  77.2205017  15.9899987  10.0135006  76.7605017
  14.3249987   9.7645006  77.2065017  15.2799987   8.0665006  76.3995017
  14.7769987   7.2545006  76.9215017  16.2839987   7.7105006  76.1785017
  14.6249987   8.3245006  75.2265017  13.6499987   7.8615006  75.3695017
  15.1509987   7.7075006  74.4985017  14.4299987   9.7805006  74.6345017
  14.1579987  10.4845006  75.4195017  13.6159987   9.8005006  73.9125017
  15.5789987  10.2035006  74.0285017  16.4739987  10.3075006  74.6375017
  15.5329987  11.0935006  73.4015017  15.7109987   8.9745006  73.1455017
  14.9719987   8.2485006  73.4755017  16.6859987   8.5255006  73.3355017
  15.5589987   9.2305006  71.6455017  15.9809987  10.2255006  71.5175017
  14.4839987   9.3385006  71.5095017  16.1149987   8.3315006  70.5545017
  16.1089987   7.3145006  70.9385017  17.1609987   8.6005006  70.4225017
  15.4519987   8.3815006  69.2515017  15.5909987   9.3935006  68.8755017
  14.3849987   8.2625006  69.4185017  15.8849987   7.4345006  68.1895017
  16.9069987   7.6675006  67.9105017  15.2699987   7.6205006  67.3135017
  15.7879987   5.9605006  68.5445017  14.7819987   5.7115006  68.8585017
  16.4729987   5.7205006  69.3485017  16.5459987   5.0265006  67.6185017
  17.3479987   4.1695006  67.9645017  16.1869987   5.3105006  66.3995017
  16.7509987   4.4935006  65.3755017  17.7589987   4.3045006  65.7035017
  16.7829987   5.0395006  64.4435017  15.9799987   3.1605006  65.2115017
  16.3549987   2.4815006  65.9615017  16.2339987   2.5665006  63.7755017
  15.9049987   1.5385006  63.8435017  17.3089987   2.5755006  63.6655017
  15.6529987   3.2205006  62.6655017  14.7399987   2.4235006  61.6205017
  14.7079987   3.5915006  60.5735017  14.3779987   4.9335006  60.8425017
  14.1929987   4.9885006  61.9075017  13.4779987   5.2235006  60.3165017
  15.5019987   5.9005006  60.4585017  15.6549987   5.9455006  59.3915017
  15.3349987   6.8995006  60.8385017  16.7599987   5.3505006  61.0275017
  16.6599987   5.0955006  61.9965017  16.9619987   4.4495006  60.4465017
  17.5279987   5.9935006  60.9395017  15.4969987   1.3395006  60.9835017
  13.4199987   2.1235006  62.1785017  14.5919987   3.3375006  65.4185017
  13.9249987   2.3135006  65.9265017  14.2989987   1.1865006  66.1485017
  12.6749987   2.8525006  66.4475017  12.0119987   3.0885006  65.6215017
  12.1479987   2.1175006  67.0515017  13.0319987   4.1135006  67.2855017
  13.7489987   3.7285006  68.0025017  13.6009987   4.7205006  66.5885017
  12.0449987   4.9545006  67.9935017  12.4739987   5.9195006  68.2505017
  11.2039987   5.1615006  67.3365017  11.5139987   4.2525006  69.2695017
  11.1239987   5.0865006  69.8505017  10.6489987   3.6955006  68.9175017
  12.3119987   3.3785006  70.1795017  12.3369987   2.4055006  69.6925017
  13.3239987   3.7735006  70.1195017  11.9379987   3.1965006  71.6735017
  11.7499987   4.1525006  72.1605017  11.0409987   2.5995006  71.8135017
  13.1229987   2.4855006  72.3795017  12.8369987   2.1705006  73.3765017
  13.3869987   1.5795006  71.8345017  14.3309987   3.3935006  72.4205017
  14.7449987   3.6965006  71.4705017  14.9249987   3.8655006  73.5225017
  15.7819987   4.5125006  73.4055017  14.5449987   3.6115006  74.9405017
  14.0619987   2.6385006  75.0165017  15.4019987   3.5775006  75.6035017
  13.5979987   4.6345006  75.4165017  13.8169987   5.6505006  75.0885017
  12.5619987   4.4445006  75.1415017  13.7349987   4.5495006  76.8945017
  14.7199987   4.9405006  77.1485017  13.0139987   5.2355006  77.3315017
  13.5579987   3.1025006  77.5495017  12.7399987   2.7195006  76.9425017
  14.4599987   2.6085006  77.1915017  13.3259987   2.7265006  79.0645017
  12.2599987   2.8375006  79.2525017  13.5369987   1.6655006  79.1665017
  14.1189987   3.5585006  80.1985017  14.9319987   2.8465006  80.3245017
  14.4969987   4.3345006  79.5355017  13.7899987   4.2325006  81.6475017
  14.2479987   5.1985006  81.4485017  12.7259987   4.3665006  81.4635017
  13.9829987   3.8825006  83.0585017  13.5149987   4.6185006  83.7055017
  15.0339987   3.8375006  83.3255017  13.5429987   2.9155006  83.2845017
  11.7329987 106.9435006  78.0775017  11.2409987 107.3005006  78.9765017
  12.7129987 107.4085006  78.0295017  11.8819987 105.8725006  78.1855017
  10.9149987 107.2585006  76.8395017  10.7599987 108.3325006  76.7465017
   9.9269987 106.8125006  76.9165017  11.6199987 106.7495006  75.6035017
  12.5329987 107.3225006  75.4395017  10.9899987 106.9335006  74.7355017
  11.9579987 105.2705006  75.6475017  12.8299987 105.1145006  76.2795017
  12.2359987 104.9145006  74.6565017  10.8189987 104.4315006  76.1795017
   9.8509987 104.7745006  75.8235017  10.7729987 104.4625006  77.2665017
  11.0229987 103.0445006  75.7425017  10.1429987 102.4465006  75.9725017
  11.8479987 102.5955006  76.2915017  11.3069987 102.9635006  74.2675017
  11.2729987 101.8855006  74.1225017  12.3609987 103.2395006  74.2575017
  10.6049987 103.6415006  73.1205017  11.2599987 103.5655006  72.2535017
  10.5419987 104.7005006  73.3625017   9.2089987 103.1235006  72.7475017
   8.5399987 103.2725006  73.5925017   9.2619987 102.0475006  72.5885017
   8.6239987 103.7745006  71.5305017   9.4519987 104.2185006  70.9825017
   8.0069987 104.6035006  71.8755017   7.7959987 102.8855006  70.5995017
   6.8379987 102.6325006  71.0495017   8.2919987 101.9385006  70.3935017
   7.5309987 103.6165006  69.2765017   7.3189987 104.6575006  69.5085017
   6.6149987 103.2065006  68.8555017   8.6379987 103.5265006  68.2215017
   8.8279987 102.4795006  67.9935017   9.5699987 103.9265006  68.6105017
   8.2939987 104.2435006  66.9055017   9.1859987 104.3855006  66.3045017
   7.9029987 105.2335006  67.1265017   7.2399987 103.4715006  66.0775017
   6.3519987 103.2895006  66.6695017   7.6409987 102.5195006  65.7495017
   6.9029987 103.9335006  64.6145017   7.2869987 103.3665006  63.6065017
   6.2879987 105.0365006  64.7165017   5.9019987 105.9395006  63.6695017
   5.0739987 106.4935006  64.0855017   5.5409987 105.3185006  62.8625017
   6.9509987 106.8655006  63.1965017   6.6339987 107.8805006  63.0265017
   7.3439987 106.2395006  61.9145017   6.4739987 105.9265006  61.3535017
   7.9569987 105.3705006  62.1175017   8.0759987 107.1975006  61.1925017
   8.8029987 106.6455006  59.9015017  10.1289987 106.0315006  60.4545017
  10.7219987 106.5575006  61.6255017  10.3969987 107.5545006  61.8925017
  11.8039987 106.5975006  61.5445017  10.4429987 105.5745006  62.7475017
   9.3769987 105.5125006  62.9285017  10.9289987 105.9205006  63.6485017
  10.8999987 104.1805006  62.5485017  12.2999987 104.1575006  62.2215017
  12.4749987 104.8445006  61.4045017  12.5539987 103.1545006  61.9135017
  12.8689987 104.4225006  63.0995017  10.6109987 103.5865006  63.8485017
   9.5929987 103.8255006  64.1155017  11.3079987 103.9695006  64.5725017
  10.7269987 102.5175006  63.7475017  10.2759987 103.4025006  61.4475017
   9.2089987 103.3575006  61.6045017  10.6829987 102.4025006  61.4445017
  10.4869987 103.8815006  60.5025017   7.9899987 105.6345006  59.2215017
   9.2589987 107.7705006  59.0805017   8.0389987 106.9165006  64.1515017
   7.7579987 107.5995006  65.2535017   6.6779987 108.0375006  65.5425017
   9.0289987 107.8155006  66.0845017   9.3589987 106.8015006  66.2865017
   9.7499987 108.2285006  65.3835017   8.9529987 108.6865006  67.4015017
   9.9519987 108.8035006  67.8055017   8.6079987 109.6865006  67.1595017
   8.0969987 108.1025006  68.4145017   7.2589987 107.5935006  67.9455017
   8.6549987 107.3375006  68.9485017   7.6019987 109.1005006  69.3965017
   8.2589987 109.9655006  69.4695017   6.6109987 109.4885006  69.1725017
   7.5659987 108.4415006  70.6945017   7.1079987 107.4555006  70.6375017
   8.5709987 108.2865006  71.0815017   6.8439987 109.2435006  71.6155017
   7.3469987 110.1725006  71.8795017   5.8419987 109.5175006  71.2985017
   6.7369987 108.3415006  72.8745017   7.7439987 108.0565006  73.1575017
   6.3559987 108.9645006  73.6825017   5.8639987 107.1535006  72.7415017
   5.2019987 107.2485006  71.8935017   5.7769987 106.0515006  73.4465017
   5.0599987 105.2935006  73.1655017   6.5689987 105.7115006  74.6105017
   6.4169987 104.6705006  74.8915017   7.6369987 105.8365006  74.4745017
   6.1259987 106.5395006  75.6975017   6.2199987 107.6045006  75.4905017
   5.0809987 106.3705006  75.9505017   7.0379987 106.1575006  76.9525017
   8.0389987 106.4735006  76.6585017   6.7219987 106.8415006  77.7355017
   7.1029987 104.7395006  77.5115017   6.2769987 104.1695006  77.0935017
   8.0139987 104.2615006  77.1545017   7.0619987 104.6685006  79.1135017
   8.0419987 104.9615006  79.4855017   6.3689987 105.4245006  79.4735017
   6.7089987 103.2825006  79.7335017   7.5509987 102.6435006  79.4745017
   6.7709987 103.4415006  80.8085017   5.3879987 102.5125006  79.4225017
   5.2829987 102.4845006  78.3405017   5.5799987 101.4865006  79.7275017
   4.0289987 102.9885006  80.0705017   3.2239987 102.3005006  79.8275017
   3.7339987 103.9715006  79.7185017   4.1079987 103.0355006  81.1525017
   6.4979987   5.7905006  82.4515017   6.6919987   5.4225006  83.4545017
   5.7759987   5.1235006  81.9875017   6.0319987   6.7675006  82.5425017
   7.9169987   5.8785006  81.5455017   8.2059987   4.8425006  81.7145017
   8.4539987   6.4695006  82.2825017   8.3909987   6.3485006  79.9435017
   8.2349987   5.4245006  79.3875017   9.4679987   6.4515006  80.0615017
   7.9059987   7.4655006  79.1595017   8.0719987   8.3735006  79.7355017
   6.8269987   7.3705006  79.0505017   8.5239987   7.6345006  77.8155017
   9.0479987   6.7285006  77.5205017   9.2749987   8.4225006  77.8545017
   7.4799987   7.9805006  76.7375017   6.8789987   8.8505006  76.9955017
   6.7779987   7.1695006  76.5535017   8.2579987   8.2675006  75.4665017
   8.8279987   7.3755006  75.2135017   8.9899987   9.0425006  75.6895017
   7.4279987   8.6915006  74.2625017   8.0629987   8.9795006  73.4255017
   6.8139987   9.5605006  74.4905017   6.5219987   7.5305006  73.8335017
   5.5979987   7.9335006  73.4225017   6.2379987   6.9565006  74.7145017
   7.1659987   6.5975006  72.8105017   6.5889987   5.6775006  72.7485017
   8.1609987   6.3115006  73.1525017   7.2759987   7.2445006  71.4185017
   8.1189987   7.9315006  71.3745017   6.3929987   7.8335006  71.1755017
   7.4699987   6.1935006  70.3735017   7.4239987   6.5905006  69.3625017
   6.7109987   5.4145006  70.4285017   8.7879987   5.5845006  70.6195017
   8.8889987   5.0725006  71.5745017   9.6559987   6.2305006  70.5275017
   8.8299987   4.5675006  69.5515017   7.8729987   4.0635006  69.4635017
   9.5639987   3.8065006  69.8045017   9.2109987   5.1845006  68.1765017
  10.1479987   5.7215006  68.2485017   8.4409987   5.8715006  67.8445017
   9.3419987   4.1215006  67.0545017  10.2799987   3.4485006  66.6865017
   8.2299987   3.9815006  66.5685017   8.3299987   3.0935006  65.4315017
   8.7189987   2.1795006  65.8545017   8.9529987   3.3905006  64.6005017
   6.9439987   2.9055006  65.0065017   6.8179987   1.9675006  64.4905017
   6.6309987   4.0185006  64.1015017   6.0969987   4.7975006  64.6285017
   6.0029987   3.6485006  63.3005017   7.8669987   4.5235006  63.5755017
   8.3209987   4.1045006  62.1255017   7.7169987   5.3715006  61.3475017
   8.3009987   6.6395006  61.6665017   9.3729987   6.5665006  61.7965017
   7.8989987   6.9925006  62.6115017   7.9379987   7.7415006  60.6315017
   8.4199987   7.5305006  59.6855017   8.3299987   8.6695006  61.0215017
   6.4719987   8.0125006  60.2995017   5.7119987   8.0135006  61.5965017
   5.9529987   7.1095006  62.1385017   4.6569987   8.0275006  61.3645017
   5.9729987   8.9005006  62.1545017   6.3599987   9.3515006  59.6575017
   7.0839987   9.4105006  58.8595017   6.5299987  10.1115006  60.3985017
   5.3599987   9.4355006  59.2575017   5.9279987   6.8835006  59.4525017
   6.5169987   6.7995006  58.5515017   4.9009987   7.0955006  59.1955017
   5.9769987   5.9585006  60.0095017   9.7939987   4.1275006  62.0695017
   7.6169987   2.8555006  61.7615017   6.1429987   2.7535006  66.2245017
   4.8479987   2.7605006  66.1075017   4.2109987   2.7715006  65.0725017
   4.2019987   2.7125006  67.4665017   3.1969987   3.0545006  67.2435017
   4.1149987   1.6475006  67.6695017   4.7879987   3.4295006  68.6225017
   5.8119987   3.1035006  68.7705017   4.8379987   4.4945006  68.4185017
   3.9929987   3.1835006  69.9065017   4.4689987   3.7975006  70.6665017
   3.0199987   3.6315006  69.7205017   3.7809987   1.7535006  70.4395017
   2.8149987   1.4305006  70.0555017   4.5239987   1.1155006  69.9675017
   3.8049987   1.5115006  71.9255017   2.7689987   1.4625006  72.2535017
   4.2129987   0.5115006  72.0615017   4.5989987   2.5095006  72.8495017
   5.5649987   2.5345006  72.3465017   4.1149987   3.4575006  72.6305017
   4.8199987   2.4085006  74.3735017   3.9459987   2.8815006  74.8045017
   4.7289987   1.3445006  74.5875017   6.0949987   2.9255006  75.0155017
   6.1439987   3.9285006  74.6195017   7.0759987   2.5495006  75.8525017
   7.8209987   3.3205006  75.9855017   7.3369987   1.3355006  76.6105017
   6.6239987   0.6225006  76.2005017   8.3189987   0.9945006  76.3015017
   7.2489987   1.2915006  77.9765017   6.4449987   0.5695006  77.8385017
   8.1759987   0.7215006  77.9535017   7.1319987   1.8365006  79.0895017
   7.0929987   2.9205006  79.1995017   6.5079987   1.4285006  79.8795017
   8.5649987   1.3645006  79.2815017   8.5929987   0.4455006  78.7005017
   9.1459987   2.0955006  78.7225017   9.1819987   1.1515006  80.5705017
   9.0779987   2.1625006  80.9585017   8.3809987   0.5755006  81.0255017
  10.3539987   0.6845006  80.9625017  10.4039987  -0.3974994  81.0695017
  11.1909987   0.9635006  80.3245017  10.5649987   1.3335006  82.3695017
   9.8499987   0.5685006  82.6615017  11.5239987   0.8265006  82.2875017
  10.6769987   2.5715006  83.6625017  11.0189987   2.1275006  84.5925017
   9.7189987   3.0405006  83.8595017  11.3779987   3.3555006  83.3925017
   5.1869987  99.0435006  78.8555017   4.3759987  98.8065006  79.5375017
   5.9309987  99.6095006  79.4085017   5.6469987  98.1075006  78.5505017
   4.6779987  99.8345006  77.6345017   4.1929987 100.7365006  78.0035017
   3.8989987  99.2395006  77.1645017   5.7059987 100.2085006  76.6355017
   6.4419987 100.9225006  77.0045017   5.2839987 100.6495006  75.7345017
   6.4039987  98.9235006  76.2575017   6.0939987  98.1725006  76.9805017
   7.4709987  99.0705006  76.4145017   6.1709987  98.3745006  74.8535017
   5.1049987  98.2545006  74.6755017   6.6059987  97.3785006  74.7845017
   6.7499987  99.2435006  73.7755017   7.7609987  99.4985006  74.0895017
   6.1849987 100.1725006  73.7865017   6.7879987  98.6955006  72.3545017
   7.4739987  97.8575006  72.2455017   7.1009987  99.4415006  71.6255017
   5.3849987  98.2365006  72.0285017   4.6619987  98.9305006  72.4555017
   5.1939987  97.2725006  72.4965017   5.1489987  98.1235006  70.5425017
   5.9379987  97.5255006  70.0915017   5.2169987  99.1095006  70.0855017
   3.8349987  97.5255006  70.2195017   3.5099987  97.7925006  69.2165017
   3.0549987  97.8745006  70.8955017   3.9629987  96.0135006  70.3405017
   3.6749987  95.6835006  71.3365017   4.9929987  95.6885006  70.1995017
   3.1249987  95.3525006  69.3865017   2.8929987  94.3105006  69.5915017
   3.4729987  95.3895006  68.3565017   1.9509987  96.1455006  69.4975017
   2.1129987  96.3855006  70.5475017   1.2679987  95.3005006  69.4805017
   1.2619987  97.3695006  68.8265017   1.7849987  98.3015006  69.0145017
   0.2449987  97.5015006  69.1875017   1.2169987  97.1295006  67.4085017
   0.7279987  96.1865006  67.1995017   2.2199987  97.0995006  66.9985017
   0.9659987  98.1805006  66.7045017   0.4979987  99.0365006  67.3695017
   1.2239987  98.0415006  65.4595017   0.7659987  99.0875006  64.6965017
   0.9009987  99.9455006  65.3345017  -0.2890013  98.8745006  64.6045017
   1.3879987  99.3355006  63.3425017   0.8909987 100.1025006  62.7725017
   1.3539987  98.0425006  62.6095017   1.5449987  98.2185006  61.5595017
   0.3559987  97.6305006  62.7105017   2.3149987  97.1595006  63.1545017
   3.7759987  96.9635006  62.6365017   3.7689987  97.6825006  61.2205017
   4.9319987  98.2545006  60.6525017   5.5619987  97.5305006  60.1475017
   5.4889987  98.6585006  61.4825017   4.5829987  99.4415006  59.7005017
   3.8639987  99.1085006  58.9675017   5.8149987  99.8715006  58.9805017
   6.0389987 100.7655006  59.4215017   6.5909987  99.1805006  59.0425017
   5.6309987 100.0535006  58.0115017   3.9589987 100.6155006  60.4405017
   4.7419987  97.6605006  63.5205017   3.9479987  95.5065006  62.5005017
   2.7569987  99.7225006  63.5265017   2.7169987 100.9345006  63.7975017
   1.6459987 101.5285006  63.9065017   4.6429987 101.6645006  60.5275017
   2.7689987 100.5155006  60.8175017   4.1509987 101.4255006  64.0865017
   4.8029987 100.5745006  63.9185017   4.4169987 102.1575006  63.3285017
   4.3159987 102.0025006  65.4895017   5.3599987 101.8625006  65.7465017
   4.1699987 103.0745006  65.3995017   3.4499987 101.4565006  66.6135017
   2.4179987 101.6395006  66.3235017   3.5849987 100.3775006  66.5885017
   3.6859987 101.9415006  68.0325017   4.7409987 101.8945006  68.2965017
   3.3799987 102.9735006  68.1875017   2.9279987 101.0675006  68.9735017
   1.9129987 100.8675006  68.6375017   3.4039987 100.0965006  69.0955017
   2.8859987 101.7405006  70.2855017   3.8859987 102.0975006  70.5265017
   2.2519987 102.6205006  70.2285017   2.3899987 100.8615006  71.3995017
   3.0829987 100.0785006  71.6835017   2.1659987 101.4175006  72.3095017
   1.1749987 100.3135006  70.8885017   0.8039987 100.5375006  69.8995017
   0.4439987  99.4665006  71.6405017  -0.4060013  99.3025006  70.9935017
   0.3869987  98.8325006  72.7455017  -0.4680013  98.2215006  72.4615017
   1.2659987  98.2175006  72.5845017   0.2789987  99.1255006  74.0575017
   0.8189987 100.0115006  74.3895017  -0.7410013  99.2385006  74.4195017
   0.8829987  97.9185006  74.6725017   0.8809987  98.1715006  75.7325017
   0.1089987  97.1685006  74.5385017   2.2589987  97.3135006  74.2945017
   2.5019987  97.7825006  73.3435017   2.9529987  97.7275006  75.0235017
   2.4769987  95.7535006  74.1975017   1.7829987  95.3805006  73.4475017
   3.4709987  95.5855006  73.7915017   2.2849987  94.9305006  75.4635017
   1.2589987  94.9835006  75.8235017   2.4879987  93.8755006  75.2865017
   3.1929987  95.4115006  76.5445017   4.1439987  95.7585006  76.1495017
   2.7469987  96.2715006  77.0395017   3.4389987  94.3365006  77.5705017
   4.0279987  94.7205006  78.3975017   3.9769987  93.4925006  77.1525017
   2.5029987  93.9625006  77.9765017 104.6359987  99.8105006  78.6135017
 104.1399987 100.4065006  79.3735017 105.6969987  99.7925006  78.8475017
 104.2639987  98.7935006  78.6965017 104.3869987 100.3755006  77.2135017
 104.7419987 101.4045006  77.1975017 103.3119987 100.4215006  77.0625017
 105.0499987  99.5945006  76.0665017 105.0299987  98.5285006  76.2935017
 106.1009987  99.8715006  76.0165017 104.4129987  99.8325006  74.6775017
 105.1969987  99.7695006  73.9265017 104.0299987 100.8505006  74.6295017
 103.2899987  98.8475006  74.3005017 102.4319987  99.0325006  74.9415017
 103.6339987  97.8415006  74.5335017 102.8309987  98.9005006  72.8195017
 102.3069987  97.9735006  72.5955017 103.7189987  98.9085006  72.1905017
 101.9269987 100.1035006  72.4435017 102.3529987 101.0135006  72.8615017
 100.9539987  99.9785006  72.9165017 101.7359987 100.2825006  70.9275017
 101.6279987  99.2775006  70.5215017 102.6839987 100.6625006  70.5505017
 100.5729987 101.1815006  70.3945017 100.4459987 102.0475006  71.0415017
  99.6319987 100.6345006  70.4315017 100.8279987 101.6555006  68.9515017
  99.9779987 102.2575006  68.6385017 100.8399987 100.7825006  68.3005017
 102.1359987 102.4495006  68.7585017 102.0859987 102.9025006  67.7705017
 102.9509987 101.7295006  68.7195017 102.4799987 103.5535006  69.7825017
 102.7259987 103.0985006  70.7385017 101.5969987 104.1655006  69.9555017
 103.6299987 104.4685006  69.3185017 103.7589987 105.2165006  70.0995017
 103.2889987 105.0045006  68.4375017 104.9949987 103.8515006  69.0285017
 104.8439987 102.8615006  68.6105017 105.4999987 103.7165006  69.9815017
 105.9189987 104.6635006  68.0925017 106.0569987 105.6675006  68.4735017
 105.4909987 104.7245006  67.0995017 105.5139987 104.2345006  66.6825017
 104.7279987 103.3295006  66.5475017 106.1269987 104.7445006  65.7335017
 105.9939987 104.2325006  64.4135017 106.6839987 104.9335006  63.9685017
 104.9829987 104.5375006  64.1835017 106.2489987 102.9275006  63.9395017
 107.2029987 102.5365006  64.2535017 106.1569987 102.9085006  62.4055017
 106.3589987 101.9265006  61.9995017 106.8639987 103.6115006  61.9825017
 104.8439987 103.2995006  62.1115017 104.2239987 102.6745006  60.8685017
 104.5049987 101.1465006  61.1625017 104.0839987 100.1065006  60.3155017
 104.7609987  99.2645006  60.3705017 104.1149987 100.4595006  59.2885017
 102.6209987  99.6595006  60.5475017 102.1849987  99.0545006  59.7625017
 102.0859987 100.5965006  60.6015017 102.3189987  98.9315006  61.8455017
 100.8539987  98.9105006  62.0945017 100.4739987  99.9195006  62.0075017
 100.6919987  98.5465006  63.0985017 100.3879987  98.2415006  61.3865017
 102.9159987  97.5585006  61.7265017 103.9399987  97.6575006  61.4005017
 102.3349987  96.9825006  61.0285017 102.8809987  97.1045006  62.7065017
 102.7809987  99.7145006  63.0245017 103.8429987  99.8915006  62.9395017
 102.5779987  99.1535006  63.9245017 102.2539987 100.6575006  63.0605017
 102.7829987 102.9815006  60.9615017 104.9579987 103.1355006  59.6815017
 105.2909987 102.1625006  64.6025017 105.9129987 101.1945006  64.9795017
 106.9989987 100.9215006  64.5875017 105.1209987 100.3245006  65.7995017
 104.5999987 100.9505006  66.5165017 104.3479987  99.8685006  65.1855017
 105.9359987  99.3115006  66.4525017 106.4769987  98.8345006  65.6425017
 106.6749987  99.8675006  67.0205017 105.3149987  98.2525006  67.3215017
 104.6829987  97.6165006  66.7065017 106.1129987  97.6155006  67.6955017
 104.5469987  98.7685006  68.4715017 104.1659987  99.7725006  68.2945017
 103.6869987  98.1595006  68.7395017 105.4369987  98.8165006  69.5775017
 104.9149987  98.8085006  70.5325017 106.1049987  97.9575006  69.5895017
 106.3279987 100.1625006  69.4645017 107.3549987  99.8535006  69.2735017
 106.0049987 100.7135006  68.5855017 106.2969987 101.1735006  70.7595017
 105.3189987 101.6195006  70.6235017 106.1939987 100.4485006  71.5655017
 107.4209987 102.3175006  71.2125017 107.8489987 102.7475006  70.3195017
 107.8519987 102.7765006  72.3615017 108.6619987 103.4875006  72.2845017
 107.4369987 102.5065006  73.7065017 106.9169987 101.5875006  73.9725017
 107.9239987 102.8525006  74.6115017 106.3669987 103.5635006  73.2535017
 106.8079987 104.5565006  73.1805017 105.9969987 103.3225006  72.2585017
 105.2439987 103.5965006  74.1895017 104.6859987 102.6605006  74.1455017
 105.5959987 103.6925006  75.2135017 104.3119987 104.7495006  73.8655017
 104.8039987 105.6835006  74.1285017 104.1429987 104.7865006  72.7905017
 102.9769987 104.6495006  74.5775017 102.4009987 105.5325006  74.3065017
 102.4399987 103.8035006  74.1575017 102.9969987 104.5525006  76.0835017
 103.7629987 103.8495006  76.4055017 103.2689987 105.5135006  76.5165017
 101.7409987 104.1435006  76.6385017 100.9769987 104.9165006  76.6765017
 101.2939987 103.3115006  76.0985017 102.0679987 103.6915006  78.0395017
 101.1899987 103.2745006  78.5245017 102.4229987 104.5095006  78.6565017
 102.8379987 102.9245006  78.0325017 103.2009987  -2.0144994  82.2475017
 102.3589987  -1.5794994  82.7775017 103.9459987  -2.2984994  82.9855017
 102.8529987  -2.9234994  81.7645017 103.7299987  -1.1204994  81.3145017
 103.9429987  -0.2534994  81.9375017 102.8439987  -0.8714994  80.7365017
 105.1859987  -1.4274994  80.1655017 104.6599987  -1.4864994  79.2125017
 105.4199987  -2.4524994  80.4445017 106.9839987  -0.3854994  79.8975017
 107.4429987  -0.8254994  79.0155017 107.6189987  -0.6614994  80.7375017
 106.9839987   1.4035006  79.7135017 108.0129987   1.6415006  79.4575017
 106.8319987   1.7585006  80.7315017 106.0569987   2.1575006  78.7775017
 106.1439987   3.2385006  78.6815017 104.9919987   1.9375006  78.7745017
 106.6869987   1.5155006  77.6185017 106.4869987   0.4455006  77.5915017
 107.7709987   1.6225006  77.6375017 106.1629987   2.1345006  76.4025017
 106.6139987   3.1185006  76.2815017 105.0939987   2.3025006  76.5195017
 106.4009987   1.3305006  75.1715017 105.9439987   0.3445006  75.2275017
 107.4609987   1.1635006  74.9845017 105.8119987   2.0845006  74.0255017
 104.7539987   2.2575006  74.2105017 105.8679987   1.4805006  73.1205017
 106.5379987   3.4365006  73.7835017 107.5989987   3.2025006  73.8435017
 106.3139987   4.0495006  74.6545017 106.2939987   4.2625006  72.5035017
 107.2749987   4.6945006  72.3215017 105.6689987   5.0735006  72.8725017
 105.6919987   3.7375006  71.1855017 104.7979987   4.3285006  70.9925017
 105.3529987   2.7185006  71.3525017 106.5619987   3.7745006  69.9285017
 107.4949987   3.2405006  70.0775017 106.8219987   4.8015006  69.6845017
 105.7939987   3.1445006  68.6985017 104.8429987   3.6405006  68.5515017
 105.6139987   2.0895006  68.8665017 106.6749987   3.3895006  67.4285017
 107.8179987   3.8105006  67.4725017 106.1369987   2.7515006  66.4105017
 107.0159987   2.3965006  65.3175017 107.6139987   1.5385006  65.5855017
 107.6699987   3.2275006  65.0955017 106.1479987   2.0765006  64.1545017
 106.7669987   2.1495006  63.2755017 105.0769987   3.0885006  64.0985017
 105.5079987   4.0705006  64.2415017 104.3979987   2.8855006  64.9175017
 104.3879987   3.0235006  62.8545017 102.8899987   2.5185006  62.8515017
 102.8609987   1.2685006  61.9115017 103.8369987   1.0155006  60.9165017
 104.7889987   0.7185006  61.3375017 104.0229987   1.9195006  60.3445017
 103.3459987  -0.0054994  59.9015017 103.9719987  -0.7804994  60.3255017
 103.4719987  -0.0064994  58.8285017 101.9099987  -0.4484994  60.1545017
 100.8719987   0.5945006  60.0505017 101.1659987   1.4365006  60.6615017
  99.9459987   0.1815006  60.4225017 100.7549987   0.8705006  59.0135017
 101.5079987  -1.2424994  59.2345017 102.2469987  -2.0184994  59.1045017
 101.3609987  -0.6834994  58.3275017 100.5729987  -1.6724994  59.5645017
 101.7429987  -1.4484994  61.2275017 102.3249987  -2.3264994  60.9895017
 100.6999987  -1.7154994  61.3045017 102.0789987  -1.0304994  62.1655017
 102.4549987   2.1115006  64.2015017 102.1239987   3.5775006  62.1725017
 105.4969987   0.8375006  64.1955017 105.9109987  -0.2394994  63.7955017
 106.9699987  -0.7174994  63.4325017 104.9289987  -1.0214994  64.5355017
 105.5159987  -1.9014994  64.7775017 104.8349987  -0.4614994  65.4625017
 103.6069987  -1.3744994  63.9935017 102.9949987  -0.5034994  64.2025017
 103.7479987  -1.3914994  62.9175017 102.8559987  -2.6344994  64.4395017
 101.9479987  -2.6834994  63.8445017 103.4709987  -3.4734994  64.1235017
 102.5209987  -2.8064994  65.9255017 101.5799987  -3.3524994  65.9675017
 103.2709987  -3.4594994  66.3645017 102.3889987  -1.5524994  66.7925017
 102.5959987  -1.7294994  67.8455017 103.0649987  -0.7584994  66.4805017
 100.9909987  -1.0744994  66.6385017 100.9449987  -0.3804994  65.8005017
 100.3389987  -1.9054994  66.3845017 100.4439987  -0.3884994  67.8955017
  99.4099987  -0.0934994  67.7585017 100.4569987  -1.0794994  68.7375017
 101.3089987   0.8015006  68.2335017 101.2219987   1.5785006  67.4885017
 102.1279987   1.0415006  69.2795017 102.6509987   1.9865006  69.2945017
 102.4239987   0.1535006  70.4705017 101.6339987  -0.5944994  70.5065017
 103.3479987  -0.3884994  70.3005017 102.4869987   0.8585006  71.8475017
 102.8839987   0.1405006  72.5645017 103.2319987   1.6475006  71.7645017
 101.1809987   1.4525006  72.3875017 100.8759987   2.2855006  71.7545017
 100.3859987   0.7145006  72.3215017 101.3089987   1.9455006  73.8555017
 102.2169987   2.5435006  73.8905017 100.4839987   2.6355006  74.0235017
 101.3279987   0.8885006  74.9865017 100.3929987   0.3325006  74.9835017
 102.1099987   0.1555006  74.8075017 101.5019987   1.5145006  76.3835017
 102.4909987   1.9565006  76.4905017 100.7919987   2.3255006  76.5335017
 101.3049987   0.4815006  77.5025017 100.2849987   0.1065006  77.5325017
 101.9329987  -0.3854994  77.3125017 101.6699987   1.0605006  78.8575017
 101.6119987   0.2995006  79.6295017 101.0049987   1.8675006  79.1465017
 102.6829987   1.4525006  78.8545017 103.4059987  11.9115006  79.8505017
 103.3169987  12.3355006  80.8455017 102.6829987  12.4095006  79.2115017
 104.3969987  12.1535006  79.4755017 103.1829987  10.4265006  79.8685017
 102.1969987  10.2615006  80.2995017 103.8979987  10.0165006  80.5765017
 103.2759987   9.7135006  78.5845017 102.2619987   9.6735006  78.1855017
 103.5409987   8.6885006  78.8375017 104.2209987  10.2015006  77.5015017
 105.1429987  10.5255006  77.9785017 103.7949987  11.0885006  77.0345017
 104.5639987   9.1745006  76.4205017 103.7059987   9.0685006  75.7625017
 104.6939987   8.2115006  76.9105017 105.7839987   9.4775006  75.5875017
 106.0999987   8.5585006  75.0975017 106.5939987   9.7595006  76.2565017
 105.5959987  10.5675006  74.5395017 106.4189987  11.2795006  74.5355017
 104.6909987  11.1495006  74.7095017 105.5109987   9.8985006  73.1915017
 104.7749987   9.0975006  73.2455017 106.4649987   9.4205006  72.9775017
 105.1619987  10.8065006  72.0805017 104.3189987  11.4095006  72.4105017
 104.7919987  10.1885006  71.2635017 106.2299987  11.6935006  71.5755017
 107.1969987  11.2065006  71.4755017 106.3969987  12.5805006  72.1865017
 105.7379987  12.1005006  70.2635017 104.7099987  12.4485006  70.3395017
 105.7209987  11.2575006  69.5745017 106.5319987  13.1555006  69.7015017
 107.0429987  13.7175006  70.4795017 105.9009987  13.8695006  69.1755017
 107.4779987  12.6205006  68.7825017 108.0519987  11.9115006  69.3775017
 108.1509987  13.4425006  68.5555017 107.0999987  11.9645006  67.5465017
 106.7369987  10.9795006  67.8185017 108.0279987  11.8175006  67.0005017
 106.1119987  12.6185006  66.6375017 106.4389987  13.6175006  66.3785017
 105.1429987  12.6825006  67.1175017 105.7639987  11.8335006  65.4515017
 105.8589987  10.6325006  65.4865017 105.4349987  12.5895006  64.3985017
 105.2689987  11.9815006  63.1335017 104.3089987  12.3225006  62.7775017
 105.1979987  10.9355006  63.3945017 106.3509987  12.2105006  62.0565017
 106.6169987  13.2485006  61.9415017 105.8239987  11.6505006  60.7145017
 106.4879987  11.9405006  59.9115017 104.8489987  12.0845006  60.5325017
 105.7289987  10.2395006  60.7935017 105.7769987   9.2975006  59.5395017
 106.9299987   8.3155006  60.0115017 107.8439987   8.5095006  61.0725017
 108.3609987   9.4475006  60.9175017 108.5929987   7.7275006  60.9915017
 107.3089987   8.4075006  62.5035017 106.3859987   8.9665006  62.5865017
 108.0359987   8.8365006  63.1775017 107.0059987   7.0335006  63.0425017
 106.2649987   6.2325006  62.0135017 105.4229987   6.8135006  61.6645017
 105.9119987   5.3285006  62.4865017 106.9419987   5.9815006  61.2105017
 108.2789987   6.3465006  63.4415017 108.8479987   7.0165006  64.0675017
 108.8249987   6.0775006  62.5555017 108.0079987   5.4605006  63.9965017
 106.1319987   7.1825006  64.2395017 106.6359987   7.7925006  64.9745017
 105.9309987   6.2065006  64.6555017 105.2019987   7.6505006  63.9505017
 104.5059987   8.5485006  59.5525017 106.1829987  10.0105006  58.3045017
 107.5219987  11.4495006  62.4185017 108.5849987  12.0755006  62.8145017
 108.7929987  13.2235006  62.9595017 109.7299987  11.2505006  63.2195017
 109.6189987  10.2815006  62.7425017 110.6439987  11.6775006  62.8155017
 109.8029987  11.1335006  64.7455017 109.5629987  12.0825006  65.2125017
 109.0759987  10.4205006  65.1225017 111.2219987  10.7075006  65.1685017
 111.6539987  10.0375006  64.4295017 111.8669987  11.5825006  65.1975017
 111.2359987  10.0485006  66.5425017 112.2549987   9.9645006  66.9155017
 110.6879987  10.6265006  67.2825017 110.6299987   8.6355006  66.4675017
 109.6579987   8.6735006  65.9795017 111.2609987   8.0105006  65.8375017
 110.4839987   7.9575006  67.8465017 111.3879987   7.3765006  68.0205017
 110.4639987   8.7295006  68.6105017 109.2459987   7.0455006  68.0305017
 109.0889987   6.3895006  67.1825017 109.3539987   6.4005006  68.9015017
 108.0549987   7.9525006  68.2465017 107.7049987   8.4635006  67.3625017
 107.3879987   8.1805006  69.3875017 106.5499987   8.8625006  69.3645017
 107.6579987   7.5895006  70.7375017 106.7479987   7.5375006  71.3325017
 108.0649987   6.5845006  70.7175017 108.6509987   8.5315006  71.4535017
 109.5619987   8.6325006  70.8645017 108.2199987   9.5285006  71.5195017
 109.0069987   8.0395006  72.8685017 108.0619987   7.7975006  73.3555017
 109.5369987   7.0985006  72.7495017 109.8299987   8.9835006  73.7885017
 110.7549987   9.2555006  73.2855017 109.2839987   9.9125006  73.9445017
 110.1449987   8.3395006  75.1625017 109.2389987   8.3845006  75.7635017
 110.3449987   7.2835006  75.0055017 111.2799987   8.9735006  75.9725017
 111.4879987   8.3885006  76.8665017 112.2029987   8.9805006  75.3955017
 110.9669987  10.3775006  76.3845017 111.1659987  11.0865006  75.5845017
 109.9039987  10.4645006  76.5995017 111.7459987  10.7775006  77.6175017
 111.4469987  11.7635006  77.9595017 112.8139987  10.8085006  77.4305017
 111.5739987  10.0795006  78.4315017  -2.0260013 105.0925006  77.9085017
  -3.0220013 105.0345006  78.3355017  -1.4290013 105.7365006  78.5475017
  -1.5920013 104.0975006  77.9475017  -2.0640013 105.5925006  76.5465017
  -2.5650013 106.5575006  76.6025017  -2.7410013 104.9275006  76.0165017
  -0.7840013 105.7445006  75.7785017  -0.3420013 106.7005006  76.0605017
  -1.0530013 105.8355006  74.7285017   0.2579987 104.6525006  75.9145017
  -0.1260013 103.7115006  75.5285017   0.5069987 104.4705006  76.9585017
   1.5529987 105.0195006  75.1325017   2.2409987 104.2065006  75.3495017
   1.9339987 105.8925006  75.6605017   1.5689987 105.2955006  73.6185017
   1.1829987 106.3045006  73.4875017   0.8319987 104.6285006  73.1775017
   2.8959987 105.1575006  72.8585017   3.5949987 104.7535006  73.5875017
   3.2149987 106.1805006  72.6655017   2.9899987 104.3505006  71.5715017
   2.2459987 104.7875006  70.9065017   2.6229987 103.3585006  71.8285017
   4.3209987 104.2185006  70.8235017   4.1719987 103.5155006  70.0065017
   5.0349987 103.7505006  71.4995017   4.8899987 105.4475006  70.3025017
   5.7669987 105.1465006  69.7335017   5.2609987 105.9965006  71.1675017
   4.0349987 106.3475006  69.4825017   3.4639987 107.0695006  70.0625017
   3.3179987 105.8435006  68.8365017   5.0139987 107.0905006  68.6435017
   5.7989987 106.4245006  68.2935017   5.5079987 107.8575006  69.2375017
   4.3529987 107.7345006  67.5035017   5.2059987 108.2635006  67.0825017
   3.7589987 108.4805006  68.0235017   3.5979987 107.2085006  66.4365017
   3.3869987 107.9025006  65.6295017   2.6459987 106.7805006  66.7395017
   4.4119987 106.1855006  65.9595017   4.6629987 105.4975006  66.7575017
   5.3289987 106.5925006  65.5505017   3.7679987 104.9965006  66.0125017
   4.0429987 104.3025006  66.9305017   3.0819987 104.8245006  64.9725017
   2.1299987 103.8805006  64.8795017   1.7799987 104.0575006  65.8835017
   2.3219987 102.8255006  64.7505017   1.1789987 104.3425006  63.9365017
   0.2869987 103.9185006  64.3675017   1.3269987 103.9045006  62.4905017
   0.4269987 104.1015006  61.9225017   1.5309987 102.8395006  62.4495017
   2.3829987 104.6175006  61.9905017   2.0869987 105.3985006  60.7165017
   0.8959987 106.2635006  61.1865017   0.5199987 107.3535006  60.4195017
  -0.5400013 107.4875006  60.2335017   0.9889987 107.0815006  59.4875017
   1.1929987 108.7365006  60.9155017   0.6399987 109.4875006  60.3715017
   2.5369987 108.9825006  60.7415017   2.9099987 108.9025006  61.6895017
   2.9919987 108.3315006  60.0675017   2.7029987 109.9225006  60.4335017
   0.8099987 108.9445006  62.2365017   3.2389987 106.3105006  60.5645017
   1.6179987 104.5105006  59.6375017   1.0469987 105.6795006  64.2935017
   0.5959987 105.8435006  65.5705017   0.5589987 105.0155006  66.4715017
   1.4739987 109.3075006  63.2435017  -0.4210013 108.8595006  62.0435017
   0.1699987 107.2005006  65.8165017   0.8899987 107.9025006  65.4095017
  -0.7760013 107.4305006  65.3315017   0.0599987 107.3115006  67.2425017
  -0.8370013 106.7925006  67.5625017   0.8899987 106.7905006  67.7085017
   0.0119987 108.6325006  67.6975017   0.9379987 109.1655006  67.4945017
  -0.7740013 109.1855006  67.1885017  -0.2650013 108.6415006  69.1235017
  -0.6580013 109.6245006  69.3755017  -1.0610013 107.9325006  69.3375017
   0.8279987 108.3695006  69.9725017   1.3989987 107.5485006  69.5435017
   1.4839987 109.2375006  69.9525017   0.5099987 108.0655006  71.3395017
  -0.3530013 107.4095006  71.4415017   1.3189987 107.5945006  71.8915017
   0.2199987 109.3215006  71.9405017  -0.4740013 109.6775006  71.1885017
  -0.3860013 108.9525006  72.7665017   1.1159987 110.4685006  72.4595017
   1.2399987 111.4135006  71.9525017   1.7839987 110.3025006  73.6305017
   2.3389987 111.1465006  74.0125017   1.8579987 109.0905006  74.4875017
   1.1879987 108.3025006  74.1485017   2.8379987 108.6355006  74.5825017
   1.4049987 109.5425006  75.7985017   0.4569987 110.0695006  75.6975017
   1.2049987 108.6745006  76.4235017   2.3209987 110.3595006  76.4355017
   2.9039987 111.0325006  75.8075017   1.9689987 110.9545006  77.2735017
   3.1449987 109.3415006  76.9045017   3.8849987 109.2405006  76.1135017
   3.6609987 109.7965006  77.7475017   2.5709987 107.8085006  77.3605017
   1.5089987 108.0175006  77.4735017   2.6689987 107.2705006  76.4215017
   3.0149987 106.8865006  78.5605017   3.6179987 107.6845006  78.9905017
   2.0329987 106.9665006  79.0235017   3.6079987 105.5925006  78.9435017
   4.3269987 105.7835006  79.7355017   2.8019987 105.0275006  79.4055017
   4.2079987 104.7935006  77.9475017   4.5209987 103.8375006  78.3565017
   5.0859987 105.2675006  77.5215017   3.5139987 104.5945006  77.1355017
  43.7719987  76.4355006 122.5965017 102.6579987  93.0675006  21.8975017
  60.9229987  40.7165006 126.8905017  27.1969987  43.3105006 109.9315017
  45.5889987 108.0365006 148.4925017 101.6649987  51.4195006 141.2255017
  67.1739987  87.3055006 140.7925017 101.8839987   6.0905006 127.8745017
   9.0359987  21.6395006 150.9805017 105.7569987 104.5755006 101.9315017
  56.9879987   8.0575006   2.8065017   7.0009987   8.3375006  55.9345017
 102.6189987  39.7605006 105.4085017  17.7529987  28.7435006  42.0385017
  96.5259987  24.7645006 104.9215017  75.7689987  25.9385006   2.8225017
  23.8109987 103.9555006  24.7715017  32.9619987 102.1805006 121.0675017
  61.8189987  36.9015006 134.0665017  99.1289987  17.4735006  36.4065017
  82.1409987  60.8175006 142.2585017  60.9299987  46.5045006 137.2925017
  14.9449987  70.7025006 117.7995017  83.9569987  77.7735006 157.4525017
  98.1559987  73.3455006  37.6995017  91.2149987   7.7425006 122.0955017
  27.7859987   3.2995006 117.0825017  99.3279987  37.4765006  42.9955017
  43.1549987  33.3535006 145.2145017  10.6149987   0.2355006 115.4525017
  23.6139987  28.1725006 157.7125017  35.9489987  17.9425006 155.2005017
  84.2659987  13.7215006  40.8665017  68.3759987  98.4505006  28.9535017
  61.8359987   5.4745006   8.9445017  76.4879987  49.1375006 139.4875017
  84.3529987   3.9275006  19.5755017  86.5409987  40.7205006  50.6355017
  65.1899987  35.6755006 141.7385017  23.6489987  47.3765006 102.7765017
   1.8289987  23.9525006 124.3655017  90.8409987  12.0135006  31.3155017
  69.9299987 103.3165006  51.0375017  54.8829987  86.2255006 150.6025017
   9.4479987  74.0225006  21.7275017 106.3139987 102.3355006   5.1595017
  23.5589987  78.0755006 127.7045017  36.7789987  81.6035006  10.6495017
  88.4819987  59.7975006 143.9705017  21.7679987  22.8725006 144.1145017
  52.2249987  37.6575006 144.8035017 108.7039987   5.1245006 155.9845017
  95.2279987  96.6135006   5.6815017  71.4729987  43.8305006 156.4895017
  15.1379987  15.9155006  41.8005017 102.7089987  59.6685006 134.5955017
  50.7619987  57.6345006 132.8925017  33.2179987 100.6955006 130.6085017
 105.6449987  40.5035006  33.3455017  86.8479987 100.4495006 157.5515017
   9.7629987  93.3595006 146.0635017  72.1589987  87.3095006  14.7095017
  49.0819987  96.6125006  33.2235017  67.5999987  14.0615006  11.4685017
 106.7619987  96.0305006  24.6185017  45.6169987  16.8275006  10.1625017
  98.5729987  84.0195006 119.7055017   0.9689987  34.5445006 101.8675017
  40.0149987  63.6615006 140.3445017   3.9229987  13.7735006   0.1995017
   5.9579987   7.8315006 124.3325017  88.9379987  38.1635006  44.1195017
  46.5909987  80.1275006 146.8515017  32.6529987  87.1235006  26.8625017
  46.7399987  21.0345006 111.9485017  46.2479987 105.5085006 115.6545017
  88.6809987  68.2525006 105.3235017 100.9629987  96.2915006 152.4635017
  87.4529987   5.4445006 104.6725017  79.5359987   7.7735006 142.2295017
  39.3229987  22.0155006  48.6595017   6.4789987  72.1545006  52.8365017
  35.2099987  23.2605006 113.3515017  55.6419987  39.4265006 123.6685017
  27.4249987  96.3805006  34.7335017  53.9629987  92.6175006 158.0255017
  66.0629987 104.8055006 142.8615017  74.4879987  60.0315006 128.5115017
 105.8039987 102.7335006 107.4055017  87.0409987 102.5655006   4.4235017
  23.2429987  26.7455006 136.5795017  19.9849987  87.0825006   2.0215017
  58.9209987  97.2525006  44.8885017   3.3459987   9.0525006 146.0315017
  89.8349987  64.2335006 137.5255017  64.0899987  48.0665006 115.8955017
  89.9479987  59.4325006 125.9775017  99.2599987  46.1535006 145.3555017
  39.2629987   9.6755006   0.0605017  90.9719987  67.3515006   9.9125017
  44.1879987  78.7755006 115.4375017  32.5909987  45.5825006 143.7035017
  88.8249987  89.9935006 136.5315017  70.7489987  93.1075006 113.4595017
   1.7999987  17.2785006  19.8775017  98.9979987  17.0875006   6.8945017
  28.6469987  94.4035006  29.0015017 102.0259987 102.3745006  26.3055017
  18.2409987  92.6115006  32.3205017   7.7889987  23.4705006   0.8365017
  48.1309987  47.5385006 133.9245017  65.7359987  28.4425006 146.4775017
  54.0859987  29.6955006 154.3045017 101.4919987  45.5425006 103.2415017
  22.7219987  72.2085006 122.8845017 107.7099987  34.9885006  27.6605017
  52.7439987  14.3425006  55.3965017  93.9299987  53.0385006  28.2935017
  28.2329987  41.0275006 115.7945017  38.6619987  77.2625006 135.2595017
  68.4839987  22.0665006 126.7665017  24.4989987  48.0195006 135.5345017
  76.9439987  11.8225006 109.0485017 105.6299987  75.6685006 107.3345017
   5.3009987 107.8835006 105.8295017  95.5629987 101.6765006  35.3115017
  13.0689987  27.3555006   2.5045017  53.5069987 107.0285006   5.8805017
  53.3619987  17.3485006   3.4805017  43.4389987  15.4515006 158.8675017
  68.9959987 104.7975006  28.5005017  96.1809987  53.1985006  41.7345017
  35.9179987  33.4265006 106.1675017  83.3629987   5.8265006 128.7725017
  67.8569987  16.8805006  28.0915017  14.8719987  70.4575006  29.2475017
  22.9829987  84.3435006  54.5405017  17.8429987   7.7445006 109.0225017
 107.7599987  55.7745006 147.6535017  20.0969987   9.8925006 149.2685017
   3.8009987  95.2105006 141.5605017  66.2299987  27.7715006  10.2855017
  17.2029987 102.6705006 155.0095017 102.2809987  10.2625006  38.1135017
  81.4139987  87.2455006  47.4245017  96.5339987  28.8545006  37.1615017
  33.3489987  89.5955006 123.1215017 105.8349987  15.2305006 118.7815017
  65.2539987  64.8655006 159.8725017  89.9559987  53.8865006 139.7935017
  70.8819987  24.8445006 146.7635017 101.6689987  91.2015006   3.1285017
  84.8439987  93.9105006   9.5925017  10.0169987  14.4885006   5.0075017
  79.7049987  73.0985006 123.7635017  68.1339987  80.3735006 115.6185017
  73.3689987  98.5355006  16.8195017  32.6419987  94.2695006   9.1525017
  47.4379987  11.7935006  34.0395017  20.1819987  85.1575006  26.5375017
  59.1179987  26.3825006 103.6455017  75.2809987  97.7785006   9.1135017
  46.4889987  14.3475006 141.2265017  88.6619987  91.5055006  38.3695017
  35.6459987 103.8005006   6.1515017  32.8879987   8.2685006 126.3665017
  82.1909987  15.2985006 118.1385017  53.6879987   9.3625006 114.5425017
   4.9719987  82.9215006  22.6365017  98.1229987  84.0885006 103.0695017
  89.2569987  67.5245006 144.2935017  13.1289987  84.3535006  50.8185017
  27.5809987  55.0045006 140.7505017  98.3949987  51.8235006  37.1155017
  34.8779987  74.8715006  14.4075017  70.1049987  17.5195006 130.4155017
   0.5939987  50.3945006 135.5185017 100.2399987 103.9135006  46.0505017
  85.8539987  80.2545006 122.8785017  30.1139987  61.3565006   3.1555017
  29.3869987  33.4735006  12.3855017  30.5559987  23.0685006 107.8255017
  20.9089987 106.8995006  21.1605017  14.9129987  43.3605006  26.1245017
   3.5889987 104.7215006  20.4035017  95.4569987  89.8565006 113.6175017
  87.9359987  74.5635006 137.0705017  35.0059987  13.7165006  37.8005017
  81.9139987  94.4385006  -0.4784983  97.0969987  27.9495006  19.8835017
 102.4939987 105.4825006 151.9115017  92.2159987 102.9725006   6.2795017
  36.5549987  50.7835006 127.4475017  64.6159987  78.5935006 125.3425017
  25.1199987   7.3335006 132.6975017  19.4439987  16.6885006  48.0305017
  34.5669987  96.0255006 114.1265017  87.6989987  54.9515006 125.7695017
 107.8289987  68.3105006 145.2125017  66.3979987  96.8535006  11.8395017
   2.2899987 101.8945006 134.6075017  97.1199987  60.2075006 108.2615017
 104.8069987  90.1185006 117.6755017  96.8279987  64.8545006 150.6285017
   3.3219987 104.0995006 139.8875017   4.2429987  76.1775006  35.1245017
   6.7419987 100.0855006  46.5625017 108.5669987  77.7085006 147.8815017
   2.7009987  39.0975006  97.1585017  98.3229987  61.8375006  33.4815017
  50.3589987  20.8245006 121.3165017  46.9319987   4.3345006 151.1745017
 101.2439987  67.5235006   4.3985017 104.3899987  46.0465006 150.4685017
  51.3999987  94.6505006  43.1095017  58.3659987  59.4885006 154.5315017
  89.3579987  20.7845006  42.4805017  50.3289987  91.1315006 102.3425017
  87.5099987  17.9655006 119.4325017  77.6989987 107.6745006  26.3575017
 107.4149987  82.0085006  46.0935017  85.3699987  86.3905006  12.4145017
   8.8059987  41.8635006   5.2785017 100.2799987  45.7675006  12.0185017
  59.5599987  60.6815006  21.7105017  33.8809987  21.2845006   2.4625017
   4.0239987  71.1595006 127.2235017  41.9939987  47.3595006 155.9645017
  37.6949987  94.4725006 159.4125017  71.8429987 104.7545006  10.1275017
   7.0019987  92.1675006 108.3675017  27.2009987  25.6025006 116.2435017
  51.0429987  97.1055006   1.8405017  76.4569987 101.5245006 118.7095017
  18.3859987  43.4365006 131.0955017  67.6019987  82.2515006 103.5955017
  71.7729987  62.6965006 127.3375017  39.7909987  98.9625006 156.2915017
  17.6619987  25.2285006 149.1435017  75.7729987  18.9765006   8.7185017
  45.6469987  25.4995006 126.5005017  71.1859987   5.6115006 131.7565017
  23.0639987   3.6255006  24.2935017  81.9809987  94.5505006 128.1005017
  97.5779987  72.9465006 136.5555017  15.6429987  46.9675006   8.7675017
  69.3549987  88.3305006  55.8925017  37.4059987   6.7945006 107.9435017
  87.8489987  19.7175006 111.5085017  51.6379987 101.4735006 107.2015017
  61.1469987  64.1715006 141.2065017  57.5549987  95.3745006 152.3675017
  28.1379987  14.5415006  30.5785017  56.9599987  90.6075006  55.0255017
  80.7029987 104.2675006  53.3185017  88.0569987  92.9695006  12.9685017
   2.0829987  25.9385006 153.9775017  91.8769987  80.2815006 143.3155017
  67.3589987  94.9295006  21.7765017  89.1679987  32.4555006 132.8605017
   8.9689987  50.9155006 113.8985017  10.1539987  78.0245006 135.7355017
  13.8529987  83.2845006  30.1045017  17.8589987  81.6205006  38.5875017
  14.5139987  33.4095006 123.2515017  39.2979987  92.9955006  27.1335017
  45.7329987   7.0405006  11.0315017  21.9209987  31.3465006 148.6985017
  26.9509987  11.2935006 145.5685017   9.6289987  60.1095006 112.1045017
  15.6579987  28.2315006  22.4125017  37.0919987 100.2805006 112.2005017
  54.3709987   2.3955006  32.2345017 104.8489987  78.1835006 135.0585017
  18.4479987  80.7075006 119.8135017  29.9009987  89.8015006  22.0155017
  84.3499987   3.0425006   7.5735017  73.2939987   1.6505006  43.6035017
  54.3349987  54.1395006  36.4595017  52.0659987  96.5335006  55.6615017
  69.1729987  16.2395006  50.2365017  90.2519987  69.6765006  55.3705017
  37.5839987  91.8485006  48.9005017  32.0669987  43.4665006   1.7735017
  17.9759987  37.3615006  46.8095017  61.2649987  85.9775006  56.3335017
  15.6299987  25.5645006 105.4855017  30.1439987 102.6215006 105.8695017
  75.5159987  61.6745006   2.5155017 104.4039987  76.2785006 141.5315017
  29.2959987  19.2845006  34.8205017  81.7479987  34.3975006 107.2845017
  45.6199636  70.2594655  -2.2525334  84.2649987  12.7185006  55.3085017
  99.5479987  49.4605006  97.7955017 100.5049987  49.4605006  97.7955017
  99.3079987  50.3875006  97.7955017   0.8409987  38.6335006 100.1355017
   1.7979987  38.6335006 100.1355017   0.6009987  39.5605006 100.1355017
  26.8679987  96.1635006 101.4925017  27.8249987  96.1635006 101.4925017
  26.6279987  97.0905006 101.4925017  91.0749987  51.2735006 101.1735017
  92.0319987  51.2735006 101.1735017  90.8349987  52.2005006 101.1735017
  95.2959987  53.0105006  99.0785017  96.2529987  53.0105006  99.0785017
  95.0559987  53.9375006  99.0785017  42.0429987  94.3205006  60.5585017
  42.9999987  94.3205006  60.5585017  41.8029987  95.2475006  60.5585017
  68.7919987  32.2115006  59.9455017  69.7489987  32.2115006  59.9455017
  68.5519987  33.1385006  59.9455017  12.1879987  10.4775006 107.2695017
  13.1449987  10.4775006 107.2695017  11.9479987  11.4045006 107.2695017
  11.0699987   9.7475006 110.7315017  12.0269987   9.7475006 110.7315017
  10.8299987  10.6745006 110.7315017   3.4769987   9.3805006 112.2665017
   4.4339987   9.3805006 112.2665017   3.2369987  10.3075006 112.2665017
  14.7899987  12.6685006 109.0195017  15.7469987  12.6685006 109.0195017
  14.5499987  13.5955006 109.0195017   4.3399987  13.8495006 110.8185017
   5.2969987  13.8495006 110.8185017   4.0999987  14.7765006 110.8185017
   1.0559987   7.5115006 106.1925017   2.0129987   7.5115006 106.1925017
   0.8159987   8.4385006 106.1925017   1.6869987   9.6185006 108.3975017
   2.6439987   9.6185006 108.3975017   1.4469987  10.5455006 108.3975017
  11.8829987  17.8375006 109.2485017  12.8399987  17.8375006 109.2485017
  11.6429987  18.7645006 109.2485017   9.4479987  12.1545006 111.1795017
  10.4049987  12.1545006 111.1795017   9.2079987  13.0815006 111.1795017
  18.0609987   3.7785006 111.9295017  19.0179987   3.7785006 111.9295017
  17.8209987   4.7055006 111.9295017  12.6579987   6.6205006 111.4895017
  13.6149987   6.6205006 111.4895017  12.4179987   7.5475006 111.4895017
   5.7479987   4.6875006 108.7145017   6.7049987   4.6875006 108.7145017
   5.5079987   5.6145006 108.7145017  13.4819987   4.7915006 107.0845017
  14.4389987   4.7915006 107.0845017  13.2419987   5.7185006 107.0845017
   2.5399987   7.1505006 109.3805017   3.4969987   7.1505006 109.3805017
   2.2999987   8.0775006 109.3805017   7.5179987   8.6545006 108.7605017
   8.4749987   8.6545006 108.7605017   7.2779987   9.5815006 108.7605017
  18.5129987   5.2345006 114.1895017  19.4699987   5.2345006 114.1895017
  18.2729987   6.1615006 114.1895017   4.6369987   3.6015006 112.7965017
   5.5939987   3.6015006 112.7965017   4.3969987   4.5285006 112.7965017
  11.9249987  13.0785006 106.3435017  12.8819987  13.0785006 106.3435017
  11.6849987  14.0055006 106.3435017   7.1539987  11.2415006 113.0375017
   8.1109987  11.2415006 113.0375017   6.9139987  12.1685006 113.0375017
  15.2669987   4.1185006 109.0875017  16.2239987   4.1185006 109.0875017
  15.0269987   5.0455006 109.0875017   4.2039987   5.4545006 110.7995017
   5.1609987   5.4545006 110.7995017   3.9639987   6.3815006 110.7995017
   5.5929987  13.2295006 113.8415017   6.5499987  13.2295006 113.8415017
   5.3529987  14.1565006 113.8415017   1.6859987  12.8725006 104.6375017
   2.6429987  12.8725006 104.6375017   1.4459987  13.7995006 104.6375017
  15.2939987  14.5225006 111.3845017  16.2509987  14.5225006 111.3845017
  15.0539987  15.4495006 111.3845017  15.6339987   2.7995006 112.8485017
  16.5909987   2.7995006 112.8485017  15.3939987   3.7265006 112.8485017
   8.5569987   0.9605006 110.1005017   9.5139987   0.9605006 110.1005017
   8.3169987   1.8875006 110.1005017  13.5519987  16.3035006 107.9975017
  14.5089987  16.3035006 107.9975017  13.3119987  17.2305006 107.9975017
  14.7569987  14.2385006 106.4895017  15.7139987  14.2385006 106.4895017
  14.5169987  15.1655006 106.4895017  16.3839987  12.8145006 114.9865017
  17.3409987  12.8145006 114.9865017  16.1439987  13.7415006 114.9865017
  10.8859987   9.6935006 104.7285017  11.8429987   9.6935006 104.7285017
  10.6459987  10.6205006 104.7285017  18.2399987   9.1125006 113.0105017
  19.1969987   9.1125006 113.0105017  17.9999987  10.0395006 113.0105017
  14.3159987   9.9525006 105.6875017  15.2729987   9.9525006 105.6875017
  14.0759987  10.8795006 105.6875017  14.2349987   8.0955006 114.7905017
  15.1919987   8.0955006 114.7905017  13.9949987   9.0225006 114.7905017
   5.9519987  10.6085006 107.5895017   6.9089987  10.6085006 107.5895017
   5.7119987  11.5355006 107.5895017   7.2599987  13.9945006 110.2675017
   8.2169987  13.9945006 110.2675017   7.0199987  14.9215006 110.2675017
   6.2829987   9.3405006 111.2405017   7.2399987   9.3405006 111.2405017
   6.0429987  10.2675006 111.2405017  12.6449987  14.9025006 111.9455017
  13.6019987  14.9025006 111.9455017  12.4049987  15.8295006 111.9455017
   7.2049987  13.7595006 115.9435017   8.1619987  13.7595006 115.9435017
   6.9649987  14.6865006 115.9435017   4.1249987   9.9315006 115.1335017
   5.0819987   9.9315006 115.1335017   3.8849987  10.8585006 115.1335017
  10.9029987  15.8495006 106.8195017  11.8599987  15.8495006 106.8195017
  10.6629987  16.7765006 106.8195017   5.4539987  15.8095006 116.6955017
   6.4109987  15.8095006 116.6955017   5.2139987  16.7365006 116.6955017
  16.9379987   0.9155006 103.1935017  17.8949987   0.9155006 103.1935017
  16.6979987   1.8425006 103.1935017   4.9349987   9.6395006 105.2035017
   5.8919987   9.6395006 105.2035017   4.6949987  10.5665006 105.2035017
   1.1269987  12.0165006 114.0195017   2.0839987  12.0165006 114.0195017
   0.8869987  12.9435006 114.0195017   1.0099987  14.9125006 110.5995017
   1.9669987  14.9125006 110.5995017   0.7699987  15.8395006 110.5995017
  18.9889987  15.4785006 116.5615017  19.9459987  15.4785006 116.5615017
  18.7489987  16.4055006 116.5615017   9.9459987  15.0235006 115.4255017
  10.9029987  15.0235006 115.4255017   9.7059987  15.9505006 115.4255017
  10.3269987  18.7785006 105.2415017  11.2839987  18.7785006 105.2415017
  10.0869987  19.7055006 105.2415017   4.0259987  17.6365006 107.0355017
   4.9829987  17.6365006 107.0355017   3.7859987  18.5635006 107.0355017
  13.1109987  17.9315006 105.0115017  14.0679987  17.9315006 105.0115017
  12.8709987  18.8585006 105.0115017  16.1279987   6.9585006 117.0445017
  17.0849987   6.9585006 117.0445017  15.8879987   7.8855006 117.0445017
   3.2669987  13.3835006 115.0515017   4.2239987  13.3835006 115.0515017
   3.0269987  14.3105006 115.0515017   5.9989987   1.9225006 110.9065017
   6.9559987   1.9225006 110.9065017   5.7589987   2.8495006 110.9065017
  10.4609987   2.1585006 114.1825017  11.4179987   2.1585006 114.1825017
  10.2209987   3.0855006 114.1825017  13.8849987   5.3035006 115.2545017
  14.8419987   5.3035006 115.2545017  13.6449987   6.2305006 115.2545017
  10.2569987   4.0325006 101.7115017  11.2139987   4.0325006 101.7115017
  10.0169987   4.9595006 101.7115017   6.0449987   6.7915006 112.2145017
   7.0019987   6.7915006 112.2145017   5.8049987   7.7185006 112.2145017
   5.9779987   6.9455006 107.0865017   6.9349987   6.9455006 107.0865017
   5.7379987   7.8725006 107.0865017  11.5119987   7.4005006 105.8475017
  12.4689987   7.4005006 105.8475017  11.2719987   8.3275006 105.8475017
  10.5979987   7.6235006 117.3235017  11.5549987   7.6235006 117.3235017
  10.3579987   8.5505006 117.3235017  12.5849987   6.9105006 108.7005017
  13.5419987   6.9105006 108.7005017  12.3449987   7.8375006 108.7005017
   3.7039987   7.0675006 113.9515017   4.6609987   7.0675006 113.9515017
   3.4639987   7.9945006 113.9515017   7.0989987   4.5415006 100.8005017
   8.0559987   4.5415006 100.8005017   6.8589987   5.4685006 100.8005017
   0.4499987   3.4625006 108.2225017   1.4069987   3.4625006 108.2225017
   0.2099987   4.3895006 108.2225017  11.7669987   8.4995006 113.2985017
  12.7239987   8.4995006 113.2985017  11.5269987   9.4265006 113.2985017
   8.5609987   4.4465006 108.1075017   9.5179987   4.4465006 108.1075017
   8.3209987   5.3735006 108.1075017   3.3929987   6.0345006 106.9805017
   4.3499987   6.0345006 106.9805017   3.1529987   6.9615006 106.9805017
   6.9979987   6.0925006 104.6565017   7.9549987   6.0925006 104.6565017
   6.7579987   7.0195006 104.6565017  12.9809987   3.6445006 111.3655017
  13.9379987   3.6445006 111.3655017  12.7409987   4.5715006 111.3655017
   5.7429987   7.1795006 102.2085017   6.6999987   7.1795006 102.2085017
   5.5029987   8.1065006 102.2085017  16.1869987  19.3475006 117.6775017
  17.1439987  19.3475006 117.6775017  15.9469987  20.2745006 117.6775017
   3.8569987  11.7915006 117.2625017   4.8139987  11.7915006 117.2625017
   3.6169987  12.7185006 117.2625017   9.8609987   7.2235006 110.0135017
  10.8179987   7.2235006 110.0135017   9.6209987   8.1505006 110.0135017
   4.8369987   3.3695006 106.3815017   5.7939987   3.3695006 106.3815017
   4.5969987   4.2965006 106.3815017   8.4909987   5.5795006 112.4145017
   9.4479987   5.5795006 112.4145017   8.2509987   6.5065006 112.4145017
   9.0749987  11.7775006 104.0995017  10.0319987  11.7775006 104.0995017
   8.8349987  12.7045006 104.0995017  16.2529987  10.9395006 112.8995017
  17.2099987  10.9395006 112.8995017  16.0129987  11.8665006 112.8995017
  10.5669987  12.0295006 115.3555017  11.5239987  12.0295006 115.3555017
  10.3269987  12.9565006 115.3555017   4.1849987  11.1645006 109.9115017
   5.1419987  11.1645006 109.9115017   3.9449987  12.0915006 109.9115017
  11.1749987  13.2365006 103.1605017  12.1319987  13.2365006 103.1605017
  10.9349987  14.1635006 103.1605017   1.1569987   9.5925006 115.1995017
   2.1139987   9.5925006 115.1995017   0.9169987  10.5195006 115.1995017
   8.1889987   9.1335006 117.3775017   9.1459987   9.1335006 117.3775017
   7.9489987  10.0605006 117.3775017  12.8599987  14.4655006 115.2975017
  13.8169987  14.4655006 115.2975017  12.6199987  15.3925006 115.2975017
  18.4789987   6.7085006 103.7655017  19.4359987   6.7085006 103.7655017
  18.2389987   7.6355006 103.7655017  18.5279987  12.5175006 116.5155017
  19.4849987  12.5175006 116.5155017  18.2879987  13.4445006 116.5155017
  16.8779987  15.4845006 104.1415017  17.8349987  15.4845006 104.1415017
  16.6379987  16.4115006 104.1415017  14.0359987  10.2995006 111.1825017
  14.9929987  10.2995006 111.1825017  13.7959987  11.2265006 111.1825017
   6.5619987  14.6115006 107.3035017   7.5189987  14.6115006 107.3035017
   6.3219987  15.5385006 107.3035017   7.9839987  12.2905006 106.8235017
   8.9409987  12.2905006 106.8235017   7.7439987  13.2175006 106.8235017
   8.4319987  16.4695006 113.2145017   9.3889987  16.4695006 113.2145017
   8.1919987  17.3965006 113.2145017   6.6809987  17.2965006 106.3595017
   7.6379987  17.2965006 106.3595017   6.4409987  18.2235006 106.3595017
  11.9769987  12.4975006 112.8565017  12.9339987  12.4975006 112.8565017
  11.7369987  13.4245006 112.8565017  14.7449987  17.0675006 115.3505017
  15.7019987  17.0675006 115.3505017  14.5049987  17.9945006 115.3505017
   2.8199987   4.3355006 114.7635017   3.7769987   4.3355006 114.7635017
   2.5799987   5.2625006 114.7635017  15.0919987  12.1365006 104.1765017
  16.0489987  12.1365006 104.1765017  14.8519987  13.0635006 104.1765017
   2.4709987  16.1165006 113.1485017   3.4279987  16.1165006 113.1485017
   2.2309987  17.0435006 113.1485017   8.3219987  14.5695006 100.3975017
   9.2789987  14.5695006 100.3975017   8.0819987  15.4965006 100.3975017
   7.2169987  14.1505006 102.8665017   8.1739987  14.1505006 102.8665017
   6.9769987  15.0775006 102.8665017   3.7629987  11.3865006 103.4765017
   4.7199987  11.3865006 103.4765017   3.5229987  12.3135006 103.4765017
  11.6509987   4.2255006 113.6285017  12.6079987   4.2255006 113.6285017
  11.4109987   5.1525006 113.6285017  12.3489987   3.6835006 104.7475017
  13.3059987   3.6835006 104.7475017  12.1089987   4.6105006 104.7475017
  10.0039987  15.8415006 103.5815017  10.9609987  15.8415006 103.5815017
   9.7639987  16.7685006 103.5815017   9.5539987   5.4015006 105.5805017
  10.5109987   5.4015006 105.5805017   9.3139987   6.3285006 105.5805017
  10.0799987   6.4335006 114.7765017  11.0369987   6.4335006 114.7765017
   9.8399987   7.3605006 114.7765017  10.3949987   2.4835006 106.4995017
  11.3519987   2.4835006 106.4995017  10.1549987   3.4105006 106.4995017
   7.3479987  16.8755006 103.6135017   8.3049987  16.8755006 103.6135017
   7.1079987  17.8025006 103.6135017  16.2699987   4.3225006 115.6125017
  17.2269987   4.3225006 115.6125017  16.0299987   5.2495006 115.6125017
  14.9009987   8.0765006 109.6455017  15.8579987   8.0765006 109.6455017
  14.6609987   9.0035006 109.6455017   4.3059987  14.0255006 102.2775017
   5.2629987  14.0255006 102.2775017   4.0659987  14.9525006 102.2775017
   2.6059987   6.6555006 101.4165017   3.5629987   6.6555006 101.4165017
   2.3659987   7.5825006 101.4165017  15.9419987  17.3405006 111.3165017
  16.8989987  17.3405006 111.3165017  15.7019987  18.2675006 111.3165017
   3.2469987   1.6555006 109.9525017   4.2039987   1.6555006 109.9525017
   3.0069987   2.5825006 109.9525017   2.3919987  15.4075006 106.2625017
   3.3489987  15.4075006 106.2625017   2.1519987  16.3345006 106.2625017
   1.6939987  17.9845006 117.4945017   2.6509987  17.9845006 117.4945017
   1.4539987  18.9115006 117.4945017   6.2659987  16.9495006 119.1615017
   7.2229987  16.9495006 119.1615017   6.0259987  17.8765006 119.1615017
  12.8019987  15.3385006 117.8945017  13.7589987  15.3385006 117.8945017
  12.5619987  16.2655006 117.8945017   1.5009987  11.8205006 118.5445017
   2.4579987  11.8205006 118.5445017   1.2609987  12.7475006 118.5445017
   8.2309987  11.8025006 117.9295017   9.1879987  11.8025006 117.9295017
   7.9909987  12.7295006 117.9295017  13.9349987  11.6725006 115.3155017
  14.8919987  11.6725006 115.3155017  13.6949987  12.5995006 115.3155017
   2.3699987   9.0295006 117.9145017   3.3269987   9.0295006 117.9145017
   2.1299987   9.9565006 117.9145017   7.0989987  10.1795006 102.9715017
   8.0559987  10.1795006 102.9715017   6.8589987  11.1065006 102.9715017
   6.3389987   7.9985006 115.2855017   7.2959987   7.9985006 115.2855017
   6.0989987   8.9255006 115.2855017   8.1579987   8.4515006 101.1725017
   9.1149987   8.4515006 101.1725017   7.9179987   9.3785006 101.1725017
  11.3939987  10.5435006 118.6005017  12.3509987  10.5435006 118.6005017
  11.1539987  11.4705006 118.6005017   6.7289987   5.3655006 116.3515017
   7.6859987   5.3655006 116.3515017   6.4889987   6.2925006 116.3515017
   7.1449987   3.7375006 113.8875017   8.1019987   3.7375006 113.8875017
   6.9049987   4.6645006 113.8875017   8.6799987   9.2185006 114.1335017
   9.6369987   9.2185006 114.1335017   8.4399987  10.1455006 114.1335017
  13.0789987   6.9975006 119.1065017  14.0359987   6.9975006 119.1065017
  12.8389987   7.9245006 119.1065017  14.4059987   9.7855006 117.2475017
  15.3629987   9.7855006 117.2475017  14.1659987  10.7125006 117.2475017
   5.1789987   6.6255006 118.2655017   6.1359987   6.6255006 118.2655017
   4.9389987   7.5525006 118.2655017   8.0409987   1.2175006 114.1655017
   8.9979987   1.2175006 114.1655017   7.8009987   2.1445006 114.1655017
   9.1969987   5.5025006 117.8745017  10.1539987   5.5025006 117.8745017
   8.9569987   6.4295006 117.8745017  11.9039987   4.6585006 116.9635017
  12.8609987   4.6585006 116.9635017  11.6639987   5.5855006 116.9635017
  13.5169987   3.3005006 118.9025017  14.4739987   3.3005006 118.9025017
  13.2769987   4.2275006 118.9025017   3.3269987   4.5345006 118.0175017
   4.2839987   4.5345006 118.0175017   3.0869987   5.4615006 118.0175017
   8.7729987 108.5285006 117.0005017   9.7299987 108.5285006 117.0005017
   8.5329987 109.4555006 117.0005017   8.4959987   2.2485006 119.1075017
   9.4529987   2.2485006 119.1075017   8.2559987   3.1755006 119.1075017
   1.6829987  13.4875006 102.0525017   2.6399987  13.4875006 102.0525017
   1.4429987  14.4145006 102.0525017 108.0709987  19.1305006 106.7245017
 109.0279987  19.1305006 106.7245017 107.8309987  20.0575006 106.7245017
   1.5149987  17.3425006 108.6825017   2.4719987  17.3425006 108.6825017
   1.2749987  18.2695006 108.6825017  18.6619987  17.9915006 111.5165017
  19.6189987  17.9915006 111.5165017  18.4219987  18.9185006 111.5165017
  18.2409987  17.5815006 114.4525017  19.1979987  17.5815006 114.4525017
  18.0009987  18.5085006 114.4525017  16.6829987  13.3195006 119.1155017
  17.6399987  13.3195006 119.1155017  16.4429987  14.2465006 119.1155017
  18.0009987  11.6005006 104.5535017  18.9579987  11.6005006 104.5535017
  17.7609987  12.5275006 104.5535017  18.3809987   9.6945006 106.4315017
  19.3379987   9.6945006 106.4315017  18.1409987  10.6215006 106.4315017
  18.1179987  12.4085006 111.4125017  19.0749987  12.4085006 111.4125017
  17.8779987  13.3355006 111.4125017  16.6659987  15.3155006 113.7025017
  17.6229987  15.3155006 113.7025017  16.4259987  16.2425006 113.7025017
  16.9909987   6.7855006 101.3775017  17.9479987   6.7855006 101.3775017
  16.7509987   7.7125006 101.3775017  16.2299987   8.1675006 107.0445017
  17.1869987   8.1675006 107.0445017  15.9899987   9.0945006 107.0445017
   1.1829987  10.2585006 111.0655017   2.1399987  10.2585006 111.0655017
   0.9429987  11.1855006 111.0655017  17.0259987  10.1585006 116.6805017
  17.9829987  10.1585006 116.6805017  16.7859987  11.0855006 116.6805017
  18.5369987   8.0485006 117.3465017  19.4939987   8.0485006 117.3465017
  18.2969987   8.9755006 117.3465017  15.8629987   5.7835006 105.5055017
  16.8199987   5.7835006 105.5055017  15.6229987   6.7105006 105.5055017
  16.5029987   6.3575006 110.8885017  17.4599987   6.3575006 110.8885017
  16.2629987   7.2845006 110.8885017  16.5349987   7.0575006 113.6485017
  17.4919987   7.0575006 113.6485017  16.2949987   7.9845006 113.6485017
   0.8819987   5.5385006 117.1305017   1.8389987   5.5385006 117.1305017
   0.6419987   6.4655006 117.1305017  18.7509987   1.1855006 118.9835017
  19.7079987   1.1855006 118.9835017  18.5109987   2.1125006 118.9835017
  16.4999987   3.0715006 105.5055017  17.4569987   3.0715006 105.5055017
  16.2599987   3.9985006 105.5055017   2.0529987   3.9315006 110.0635017
   3.0099987   3.9315006 110.0635017   1.8129987   4.8585006 110.0635017
   0.8839987   6.8355006 111.2715017   1.8409987   6.8355006 111.2715017
   0.6439987   7.7625006 111.2715017  18.3399987   3.2095006 117.3825017
  19.2969987   3.2095006 117.3825017  18.0999987   4.1365006 117.3825017
   0.9019987   3.0395006 105.2485017   1.8589987   3.0395006 105.2485017
   0.6619987   3.9665006 105.2485017  15.3859987  18.0705006 107.1285017
  16.3429987  18.0705006 107.1285017  15.1459987  18.9975006 107.1285017
 108.3459987   1.8615006 113.5545017 109.3029987   1.8615006 113.5545017
 108.1059987   2.7885006 113.5545017   2.8329987  15.0195006 117.6635017
   3.7899987  15.0195006 117.6635017   2.5929987  15.9465006 117.6635017
   5.7339987  15.9785006 113.9215017   6.6909987  15.9785006 113.9215017
   5.4939987  16.9055006 113.9215017  10.0569987  17.4035006 116.8375017
  11.0139987  17.4035006 116.8375017   9.8169987  18.3305006 116.8375017
  12.3549987  18.6735006 116.1265017  13.3119987  18.6735006 116.1265017
  12.1149987  19.6005006 116.1265017  17.4459987   1.4225006 115.1855017
  18.4029987   1.4225006 115.1855017  17.2059987   2.3495006 115.1855017
   3.1499987  19.2355006 113.9545017   4.1069987  19.2355006 113.9545017
   2.9099987  20.1625006 113.9545017   5.6469987  18.8175006 112.9975017
   6.6039987  18.8175006 112.9975017   5.4069987  19.7445006 112.9975017
  10.3339987  18.7135006 112.1655017  11.2909987  18.7135006 112.1655017
  10.0939987  19.6405006 112.1655017  12.6419987  17.5465006 113.1595017
  13.5989987  17.5465006 113.1595017  12.4019987  18.4735006 113.1595017
  15.2229987  19.1145006 113.4175017  16.1799987  19.1145006 113.4175017
  14.9829987  20.0415006 113.4175017   2.6389987  17.8945006 110.9205017
   3.5959987  17.8945006 110.9205017   2.3989987  18.8215006 110.9205017
   4.6819987  16.5835006 109.5145017   5.6389987  16.5835006 109.5145017
   4.4419987  17.5105006 109.5145017   7.2689987  17.0625006 110.3855017
   8.2259987  17.0625006 110.3855017   7.0289987  17.9895006 110.3855017
  10.7439987   2.7475006 109.5205017  11.7009987   2.7475006 109.5205017
  10.5039987   3.6745006 109.5205017  15.9659987   1.0805006 109.7795017
  16.9229987   1.0805006 109.7795017  15.7259987   2.0075006 109.7795017
  17.5969987   2.0045006 107.8985017  18.5539987   2.0045006 107.8985017
  17.3569987   2.9315006 107.8985017   3.1519987   1.3375006 107.2305017
   4.1089987   1.3375006 107.2305017   2.9119987   2.2645006 107.2305017
   2.2339987   1.6095006 103.5855017   3.1909987   1.6095006 103.5855017
   1.9939987   2.5365006 103.5855017   7.5969987   1.2865006 107.1345017
   8.5539987   1.2865006 107.1345017   7.3569987   2.2135006 107.1345017
  13.2149987   1.3265006 108.7945017  14.1719987   1.3265006 108.7945017
  12.9749987   2.2535006 108.7945017  14.5639987   1.3625006 104.5185017
  15.5209987   1.3625006 104.5185017  14.3239987   2.2895006 104.5185017
   1.9079987  17.0815006 104.0795017   2.8649987  17.0815006 104.0795017
   1.6679987  18.0085006 104.0795017   8.7769987   3.3155006 104.0245017
   9.7339987   3.3155006 104.0245017   8.5369987   4.2425006 104.0245017
  17.3829987  17.8815006 105.1575017  18.3399987  17.8815006 105.1575017
  17.1429987  18.8085006 105.1575017   2.9879987   1.9195006 116.8905017
   3.9449987   1.9195006 116.8905017   2.7479987   2.8465006 116.8905017
   5.0039987   1.2545006 118.4415017   5.9609987   1.2545006 118.4415017
   4.7639987   2.1815006 118.4415017  13.4859987 108.3665006 118.4615017
  14.4429987 108.3665006 118.4615017  13.2459987 109.2935006 118.4615017
  16.6249987  16.6005006 117.2615017  17.5819987  16.6005006 117.2615017
  16.3849987  17.5275006 117.2615017  31.0509987  10.4795006 107.2565017
  32.0079987  10.4795006 107.2565017  30.8109987  11.4065006 107.2565017
  29.9289987   9.7485006 110.7345017  30.8859987   9.7485006 110.7345017
  29.6889987  10.6755006 110.7345017  22.2709987   9.3975006 112.2815017
  23.2279987   9.3975006 112.2815017  22.0309987  10.3245006 112.2815017
  33.6269987  12.6845006 109.0175017  34.5839987  12.6845006 109.0175017
  33.3869987  13.6115006 109.0175017  23.2119987  13.8535006 110.8135017
  24.1689987  13.8535006 110.8135017  22.9719987  14.7805006 110.8135017
  19.8109987   7.4235006 106.3535017  20.7679987   7.4235006 106.3535017
  19.5709987   8.3505006 106.3535017  20.5319987   9.6295006 108.3945017
  21.4889987   9.6295006 108.3945017  20.2919987  10.5565006 108.3945017
  30.7119987  17.8035006 109.2305017  31.6689987  17.8035006 109.2305017
  30.4719987  18.7305006 109.2305017  28.3039987  12.1545006 111.1795017
  29.2609987  12.1545006 111.1795017  28.0639987  13.0815006 111.1795017
  36.9439987   3.7495006 111.9485017  37.9009987   3.7495006 111.9485017
  36.7039987   4.6765006 111.9485017  31.4689987   6.5975006 111.5075017
  32.4259987   6.5975006 111.5075017  31.2289987   7.5245006 111.5075017
  24.5979987   4.7005006 108.7285017  25.5549987   4.7005006 108.7285017
  24.3579987   5.6275006 108.7285017  32.3239987   4.7745006 107.1175017
  33.2809987   4.7745006 107.1175017  32.0839987   5.7015006 107.1175017
  21.1729987   7.0865006 109.4705017  22.1299987   7.0865006 109.4705017
  20.9329987   8.0135006 109.4705017  26.3779987   8.6605006 108.7605017
  27.3349987   8.6605006 108.7605017  26.1379987   9.5875006 108.7605017
  37.3669987   5.2215006 114.2035017  38.3239987   5.2215006 114.2035017
  37.1269987   6.1485006 114.2035017  23.4949987   3.6055006 112.7895017
  24.4519987   3.6055006 112.7895017  23.2549987   4.5325006 112.7895017
  30.7939987  13.0775006 106.3285017  31.7509987  13.0775006 106.3285017
  30.5539987  14.0045006 106.3285017  26.0099987  11.2415006 113.0375017
  26.9669987  11.2415006 113.0375017  25.7699987  12.1685006 113.0375017
  34.0879987   4.1015006 109.1095017  35.0449987   4.1015006 109.1095017
  33.8479987   5.0285006 109.1095017  23.0239987   5.4955006 110.7705017
  23.9809987   5.4955006 110.7705017  22.7839987   6.4225006 110.7705017
  24.4389987  13.2255006 113.8385017  25.3959987  13.2255006 113.8385017
  24.1989987  14.1525006 113.8385017  20.4919987  12.8675006 104.6275017
  21.4489987  12.8675006 104.6275017  20.2519987  13.7945006 104.6275017
  34.1499987  14.5225006 111.3825017  35.1069987  14.5225006 111.3825017
  33.9099987  15.4495006 111.3825017  34.4939987   2.8045006 112.8425017
  35.4509987   2.8045006 112.8425017  34.2539987   3.7315006 112.8425017
  27.4179987   0.9645006 110.1035017  28.3749987   0.9645006 110.1035017
  27.1779987   1.8915006 110.1035017  32.4129987  16.3065006 107.9925017
  33.3699987  16.3065006 107.9925017  32.1729987  17.2335006 107.9925017
  33.5979987  14.2415006 106.4825017  34.5549987  14.2415006 106.4825017
  33.3579987  15.1685006 106.4825017  35.2399987  12.8155006 114.9885017
  36.1969987  12.8155006 114.9885017  34.9999987  13.7425006 114.9885017
  29.7209987   9.6805006 104.7495017  30.6779987   9.6805006 104.7495017
  29.4809987  10.6075006 104.7495017  29.7579987   8.1785006 101.8135017
  30.7149987   8.1785006 101.8135017  29.5179987   9.1055006 101.8135017
  37.1219987   9.1435006 113.0595017  38.0789987   9.1435006 113.0595017
  36.8819987  10.0705006 113.0595017  33.1439987   9.9135006 105.6565017
  34.1009987   9.9135006 105.6565017  32.9039987  10.8405006 105.6565017
  33.0909987   8.0955006 114.7895017  34.0479987   8.0955006 114.7895017
  32.8509987   9.0225006 114.7895017  24.7719987  10.5915006 107.5895017
  25.7289987  10.5915006 107.5895017  24.5319987  11.5185006 107.5895017
  26.1129987  13.9895006 110.2705017  27.0699987  13.9895006 110.2705017
  25.8729987  14.9165006 110.2705017  25.1229987   9.3375006 111.2395017
  26.0799987   9.3375006 111.2395017  24.8829987  10.2645006 111.2395017
  31.5079987  14.9015006 111.9475017  32.4649987  14.9015006 111.9475017
  31.2679987  15.8285006 111.9475017  26.0609987  13.7615006 115.9435017
  27.0179987  13.7615006 115.9435017  25.8209987  14.6885006 115.9435017
  32.0339987   9.0975006 103.3365017  32.9909987   9.0975006 103.3365017
  31.7939987  10.0245006 103.3365017  22.9959987   9.9275006 115.1185017
  23.9529987   9.9275006 115.1185017  22.7559987  10.8545006 115.1185017
  29.7629987  15.8525006 106.7965017  30.7199987  15.8525006 106.7965017
  29.5229987  16.7795006 106.7965017  24.3019987  15.8115006 116.6975017
  25.2589987  15.8115006 116.6975017  24.0619987  16.7385006 116.6975017
  35.7089987   0.8965006 103.4145017  36.6659987   0.8965006 103.4145017
  35.4689987   1.8235006 103.4145017  23.7669987   9.6145006 105.1965017
  24.7239987   9.6145006 105.1965017  23.5269987  10.5415006 105.1965017
  19.8519987  12.0405006 114.0695017  20.8089987  12.0405006 114.0695017
  19.6119987  12.9675006 114.0695017  19.6079987  14.7825006 110.8715017
  20.5649987  14.7825006 110.8715017  19.3679987  15.7095006 110.8715017
  37.8449987  15.4765006 116.5605017  38.8019987  15.4765006 116.5605017
  37.6049987  16.4035006 116.5605017  28.8019987  15.0235006 115.4255017
  29.7589987  15.0235006 115.4255017  28.5619987  15.9505006 115.4255017
  29.2279987  18.7545006 105.2035017  30.1849987  18.7545006 105.2035017
  28.9879987  19.6815006 105.2035017  22.8789987  17.6405006 107.0435017
  23.8359987  17.6405006 107.0435017  22.6389987  18.5675006 107.0435017
  31.9729987  17.9255006 104.9985017  32.9299987  17.9255006 104.9985017
  31.7329987  18.8525006 104.9985017  34.9819987   6.9575006 117.0445017
  35.9389987   6.9575006 117.0445017  34.7419987   7.8845006 117.0445017
  22.1239987  13.3585006 115.0375017  23.0809987  13.3585006 115.0375017
  21.8839987  14.2855006 115.0375017  24.8839987   1.9235006 110.9345017
  25.8409987   1.9235006 110.9345017  24.6439987   2.8505006 110.9345017
  29.4479987   1.6005006 114.4555017  30.4049987   1.6005006 114.4555017
  29.2079987   2.5275006 114.4555017  32.7189987   5.2915006 115.2445017
  33.6759987   5.2915006 115.2445017  32.4789987   6.2185006 115.2445017
  24.8919987   6.7885006 112.2115017  25.8489987   6.7885006 112.2115017
  24.6519987   7.7155006 112.2115017  24.8509987   6.9535006 107.0925017
  25.8079987   6.9535006 107.0925017  24.6109987   7.8805006 107.0925017
  30.3659987   7.3925006 105.8535017  31.3229987   7.3925006 105.8535017
  30.1259987   8.3195006 105.8535017  29.4679987   7.6175006 117.3065017
  30.4249987   7.6175006 117.3065017  29.2279987   8.5445006 117.3065017
  31.4099987   6.9005006 108.7125017  32.3669987   6.9005006 108.7125017
  31.1699987   7.8275006 108.7125017  22.5389987   7.0745006 113.9415017
  23.4959987   7.0745006 113.9415017  22.2989987   8.0015006 113.9415017
  19.1789987   4.2445006 107.8805017  20.1359987   4.2445006 107.8805017
  18.9389987   5.1715006 107.8805017  20.4589987   4.9365006 103.2985017
  21.4159987   4.9365006 103.2985017  20.2189987   5.8635006 103.2985017
  30.6249987   8.5035006 113.2965017  31.5819987   8.5035006 113.2965017
  30.3849987   9.4305006 113.2965017  27.4279987   4.4745006 108.1215017
  28.3849987   4.4745006 108.1215017  27.1879987   5.4015006 108.1215017
  22.2289987   6.0375006 106.9835017  23.1859987   6.0375006 106.9835017
  21.9889987   6.9645006 106.9835017  25.8799987   6.0755006 104.6185017
  26.8369987   6.0755006 104.6185017  25.6399987   7.0025006 104.6185017
  31.8309987   3.6775006 111.3645017  32.7879987   3.6775006 111.3645017
  31.5909987   4.6045006 111.3645017  35.0489987  19.3505006 117.6745017
  36.0059987  19.3505006 117.6745017  34.8089987  20.2775006 117.6745017
  22.7119987  11.8095006 117.2485017  23.6689987  11.8095006 117.2485017
  22.4719987  12.7365006 117.2485017  28.7109987   7.2265006 110.0085017
  29.6679987   7.2265006 110.0085017  28.4709987   8.1535006 110.0085017
  23.7079987   3.3755006 106.4265017  24.6649987   3.3755006 106.4265017
  23.4679987   4.3025006 106.4265017  27.3379987   5.5575006 112.4375017
  28.2949987   5.5575006 112.4375017  27.0979987   6.4845006 112.4375017
  27.9389987  11.7365006 104.1185017  28.8959987  11.7365006 104.1185017
  27.6989987  12.6635006 104.1185017  35.0989987  10.9665006 112.9185017
  36.0559987  10.9665006 112.9185017  34.8589987  11.8935006 112.9185017
  31.7919987   4.6245006 102.2825017  32.7489987   4.6245006 102.2825017
  31.5519987   5.5515006 102.2825017  29.4229987  12.0295006 115.3545017
  30.3799987  12.0295006 115.3545017  29.1829987  12.9565006 115.3545017
  32.5179987   6.5005006 103.9515017  33.4749987   6.5005006 103.9515017
  32.2779987   7.4275006 103.9515017  23.0429987  11.1605006 109.9165017
  23.9999987  11.1605006 109.9165017  22.8029987  12.0875006 109.9165017
  20.0299987   9.5815006 115.1825017  20.9869987   9.5815006 115.1825017
  19.7899987  10.5085006 115.1825017  27.0409987   9.1085006 117.3835017
  27.9979987   9.1085006 117.3835017  26.8009987  10.0355006 117.3835017
  31.7159987  14.4655006 115.2975017  32.6729987  14.4655006 115.2975017
  31.4759987  15.3925006 115.2975017  37.3839987  12.5185006 116.5155017
  38.3409987  12.5185006 116.5155017  37.1439987  13.4455006 116.5155017
  32.8939987  10.3015006 111.1925017  33.8509987  10.3015006 111.1925017
  32.6539987  11.2285006 111.1925017  25.4069987  14.6315006 107.3075017
  26.3639987  14.6315006 107.3075017  25.1669987  15.5585006 107.3075017
  26.8429987  12.2865006 106.8495017  27.7999987  12.2865006 106.8495017
  26.6029987  13.2135006 106.8495017  27.2909987  16.4675006 113.2145017
  28.2479987  16.4675006 113.2145017  27.0509987  17.3945006 113.2145017
  25.5239987  17.3055006 106.3595017  26.4809987  17.3055006 106.3595017
  25.2839987  18.2325006 106.3595017  30.8329987  12.4975006 112.8565017
  31.7899987  12.4975006 112.8565017  30.5929987  13.4245006 112.8565017
  33.5999987  17.0675006 115.3525017  34.5569987  17.0675006 115.3525017
  33.3599987  17.9945006 115.3525017  21.6879987   4.3035006 114.7605017
  22.6449987   4.3035006 114.7605017  21.4479987   5.2305006 114.7605017
  33.9249987  12.1675006 104.1755017  34.8819987  12.1675006 104.1755017
  33.6849987  13.0945006 104.1755017  21.3049987  16.1125006 113.1625017
  22.2619987  16.1125006 113.1625017  21.0649987  17.0395006 113.1625017
  26.0059987  14.1555006 102.8815017  26.9629987  14.1555006 102.8815017
  25.7659987  15.0825006 102.8815017  22.6059987  11.4085006 103.3845017
  23.5629987  11.4085006 103.3845017  22.3659987  12.3355006 103.3845017
  30.3819987   4.0935006 113.6995017  31.3389987   4.0935006 113.6995017
  30.1419987   5.0205006 113.6995017  31.1859987   3.6785006 104.7835017
  32.1429987   3.6785006 104.7835017  30.9459987   4.6055006 104.7835017
  28.3719987   5.4315006 105.5795017  29.3289987   5.4315006 105.5795017
  28.1319987   6.3585006 105.5795017  28.9209987   6.3975006 114.7975017
  29.8779987   6.3975006 114.7975017  28.6809987   7.3245006 114.7975017
  29.2619987   2.4775006 106.5045017  30.2189987   2.4775006 106.5045017
  29.0219987   3.4045006 106.5045017  26.1609987  16.8965006 103.5855017
  27.1179987  16.8965006 103.5855017  25.9209987  17.8235006 103.5855017
  24.9029987   3.5805006 103.2145017  25.8599987   3.5805006 103.2145017
  24.6629987   4.5075006 103.2145017  35.1289987   4.3265006 115.6165017
  36.0859987   4.3265006 115.6165017  34.8889987   5.2535006 115.6165017
  33.7039987   8.1075006 109.6915017  34.6609987   8.1075006 109.6915017
  33.4639987   9.0345006 109.6915017  23.1709987  14.0035006 102.2705017
  24.1279987  14.0035006 102.2705017  22.9309987  14.9305006 102.2705017
  34.7959987  17.3415006 111.3195017  35.7529987  17.3415006 111.3195017
  34.5559987  18.2685006 111.3195017  22.0659987   1.6765006 109.9755017
  23.0229987   1.6765006 109.9755017  21.8259987   2.6035006 109.9755017
  21.2409987  15.3925006 106.2445017  22.1979987  15.3925006 106.2445017
  21.0009987  16.3195006 106.2445017  20.4709987  18.0405006 117.5475017
  21.4279987  18.0405006 117.5475017  20.2309987  18.9675006 117.5475017
  25.1259987  16.9555006 119.1645017  26.0829987  16.9555006 119.1645017
  24.8859987  17.8825006 119.1645017  31.6579987  15.3385006 117.8945017
  32.6149987  15.3385006 117.8945017  31.4179987  16.2655006 117.8945017
  20.3899987  11.8245006 118.5335017  21.3469987  11.8245006 118.5335017
  20.1499987  12.7515006 118.5335017  24.7509987  12.1615006 100.6055017
  25.7079987  12.1615006 100.6055017  24.5109987  13.0885006 100.6055017
  27.0869987  11.8005006 117.9295017  28.0439987  11.8005006 117.9295017
  26.8469987  12.7275006 117.9295017  32.7879987  11.6695006 115.3165017
  33.7449987  11.6695006 115.3165017  32.5479987  12.5965006 115.3165017
  21.2829987   9.0425006 117.9195017  22.2399987   9.0425006 117.9195017
  21.0429987   9.9695006 117.9195017  25.9349987  10.1455006 102.9495017
  26.8919987  10.1455006 102.9495017  25.6949987  11.0725006 102.9495017
  25.2019987   7.9815006 115.2925017  26.1589987   7.9815006 115.2925017
  24.9619987   8.9085006 115.2925017  30.2499987  10.5425006 118.5995017
  31.2069987  10.5425006 118.5995017  30.0099987  11.4695006 118.5995017
  25.6449987   5.3525006 116.3435017  26.6019987   5.3525006 116.3435017
  25.4049987   6.2795006 116.3435017  26.0039987   3.7435006 113.9025017
  26.9609987   3.7435006 113.9025017  25.7639987   4.6705006 113.9025017
  27.5369987   9.2185006 114.1315017  28.4939987   9.2185006 114.1315017
  27.2969987  10.1455006 114.1315017  31.9289987   6.9875006 119.1075017
  32.8859987   6.9875006 119.1075017  31.6889987   7.9145006 119.1075017
  33.2609987   9.7885006 117.2495017  34.2179987   9.7885006 117.2495017
  33.0209987  10.7155006 117.2495017  24.0529987   6.6015006 118.2835017
  25.0099987   6.6015006 118.2835017  23.8129987   7.5285006 118.2835017
  26.8559987   1.2445006 114.1955017  27.8129987   1.2445006 114.1955017
  26.6159987   2.1715006 114.1955017  28.0399987   5.5675006 117.9145017
  28.9969987   5.5675006 117.9145017  27.7999987   6.4945006 117.9145017
  30.7549987   4.6535006 116.9655017  31.7119987   4.6535006 116.9655017
  30.5149987   5.5805006 116.9655017  32.3519987   3.3095006 118.9025017
  33.3089987   3.3095006 118.9025017  32.1119987   4.2365006 118.9025017
  22.1679987   4.5255006 118.0115017  23.1249987   4.5255006 118.0115017
  21.9279987   5.4525006 118.0115017  27.5849987 108.5555006 117.0225017
  28.5419987 108.5555006 117.0225017  27.3449987 109.4825006 117.0225017
  27.2569987   2.1275006 119.2485017  28.2139987   2.1275006 119.2485017
  27.0169987   3.0545006 119.2485017  20.4389987  13.6365006 101.7545017
  21.3959987  13.6365006 101.7545017  20.1989987  14.5635006 101.7545017
  19.1559987  19.0875006 106.7155017  20.1129987  19.0875006 106.7155017
  18.9159987  20.0145006 106.7155017  19.9839987  17.1935006 108.5645017
  20.9409987  17.1935006 108.5645017  19.7439987  18.1205006 108.5645017
  37.5029987  18.0135006 111.5175017  38.4599987  18.0135006 111.5175017
  37.2629987  18.9405006 111.5175017  37.0859987  17.5975006 114.4615017
  38.0429987  17.5975006 114.4615017  36.8459987  18.5245006 114.4615017
  35.5389987  13.3195006 119.1155017  36.4959987  13.3195006 119.1155017
  35.2989987  14.2465006 119.1155017  36.8539987  11.6315006 104.5655017
  37.8109987  11.6315006 104.5655017  36.6139987  12.5585006 104.5655017
  37.2059987   9.7135006 106.4295017  38.1629987   9.7135006 106.4295017
  36.9659987  10.6405006 106.4295017  36.9759987  12.4225006 111.4275017
  37.9329987  12.4225006 111.4275017  36.7359987  13.3495006 111.4275017
  35.5229987  15.3115006 113.7045017  36.4799987  15.3115006 113.7045017
  35.2829987  16.2385006 113.7045017  34.9059987   8.2215006 106.9455017
  35.8629987   8.2215006 106.9455017  34.6659987   9.1485006 106.9455017
  20.0349987  10.2335006 111.0475017  20.9919987  10.2335006 111.0475017
  19.7949987  11.1605006 111.0475017  35.8779987  10.1545006 116.6865017
  36.8349987  10.1545006 116.6865017  35.6379987  11.0815006 116.6865017
  37.3929987   8.0485006 117.3465017  38.3499987   8.0485006 117.3465017
  37.1529987   8.9755006 117.3465017  34.8729987   5.1855006 100.7525017
  35.8299987   5.1855006 100.7525017  34.6329987   6.1125006 100.7525017
  34.6819987   5.7625006 105.3955017  35.6389987   5.7625006 105.3955017
  34.4419987   6.6895006 105.3955017  35.3279987   6.3215006 110.9065017
  36.2849987   6.3215006 110.9065017  35.0879987   7.2485006 110.9065017
  35.4019987   7.0545006 113.6865017  36.3589987   7.0545006 113.6865017
  35.1619987   7.9815006 113.6865017  19.6669987   5.5745006 117.1975017
  20.6239987   5.5745006 117.1975017  19.4269987   6.5015006 117.1975017
  37.6089987   1.1865006 118.9835017  38.5659987   1.1865006 118.9835017
  37.3689987   2.1135006 118.9835017  35.3519987   3.0615006 105.4975017
  36.3089987   3.0615006 105.4975017  35.1119987   3.9885006 105.4975017
  20.8189987   3.9065006 110.0695017  21.7759987   3.9065006 110.0695017
  20.5789987   4.8335006 110.0695017  19.1169987   6.8925006 111.0645017
  20.0739987   6.8925006 111.0645017  18.8769987   7.8195006 111.0645017
  37.1929987   3.2095006 117.3835017  38.1499987   3.2095006 117.3835017
  36.9529987   4.1365006 117.3835017  37.5829987   3.2125006 102.4735017
  38.5399987   3.2125006 102.4735017  37.3429987   4.1395006 102.4735017
  19.4629987   3.1435006 105.2355017  20.4199987   3.1435006 105.2355017
  19.2229987   4.0705006 105.2355017  34.2269987  18.1045006 107.1105017
  35.1839987  18.1045006 107.1105017  33.9869987  19.0315006 107.1105017
  19.4669987   1.8245006 113.4915017  20.4239987   1.8245006 113.4915017
  19.2269987   2.7515006 113.4915017  21.6819987  14.9835006 117.6475017
  22.6389987  14.9835006 117.6475017  21.4419987  15.9105006 117.6475017
  24.5919987  15.9765006 113.9235017  25.5489987  15.9765006 113.9235017
  24.3519987  16.9035006 113.9235017  28.9129987  17.4035006 116.8375017
  29.8699987  17.4035006 116.8375017  28.6729987  18.3305006 116.8375017
  31.2109987  18.6735006 116.1275017  32.1679987  18.6735006 116.1275017
  30.9709987  19.6005006 116.1275017  36.2969987   1.4255006 115.1825017
  37.2539987   1.4255006 115.1825017  36.0569987   2.3525006 115.1825017
  22.0199987  19.2245006 113.9305017  22.9769987  19.2245006 113.9305017
  21.7799987  20.1515006 113.9305017  24.4879987  18.8065006 112.9935017
  25.4449987  18.8065006 112.9935017  24.2479987  19.7335006 112.9935017
  29.1629987  18.7095006 112.1645017  30.1199987  18.7095006 112.1645017
  28.9229987  19.6365006 112.1645017  31.4919987  17.5405006 113.1625017
  32.4489987  17.5405006 113.1625017  31.2519987  18.4675006 113.1625017
  34.1099987  19.0675006 113.4495017  35.0669987  19.0675006 113.4495017
  33.8699987  19.9945006 113.4495017  21.4539987  17.8735006 110.8615017
  22.4109987  17.8735006 110.8615017  21.2139987  18.8005006 110.8615017
  23.5489987  16.5855006 109.5135017  24.5059987  16.5855006 109.5135017
  23.3089987  17.5125006 109.5135017  26.1369987  17.0665006 110.3835017
  27.0939987  17.0665006 110.3835017  25.8969987  17.9935006 110.3835017
  29.5989987   2.7455006 109.5255017  30.5559987   2.7455006 109.5255017
  29.3589987   3.6725006 109.5255017  34.8179987   1.0845006 109.7815017
  35.7749987   1.0845006 109.7815017  34.5779987   2.0115006 109.7815017
  36.4359987   1.9605006 107.9205017  37.3929987   1.9605006 107.9205017
  36.1959987   2.8875006 107.9205017  21.9219987   1.3235006 107.3865017
  22.8789987   1.3235006 107.3865017  21.6819987   2.2505006 107.3865017
  21.0459987   1.8285006 103.7275017  22.0029987   1.8285006 103.7275017
  20.8059987   2.7555006 103.7275017  26.4849987   1.3005006 107.1515017
  27.4419987   1.3005006 107.1515017  26.2449987   2.2275006 107.1515017
  32.0789987   1.3245006 108.7945017  33.0359987   1.3245006 108.7945017
  31.8389987   2.2515006 108.7945017  33.4039987   1.3645006 104.5445017
  34.3609987   1.3645006 104.5445017  33.1639987   2.2915006 104.5445017
  20.6779987  17.0665006 104.0705017  21.6349987  17.0665006 104.0705017
  20.4379987  17.9935006 104.0705017  22.5909987   2.9895006 101.5935017
  23.5479987   2.9895006 101.5935017  22.3509987   3.9165006 101.5935017
  27.5569987   3.3265006 104.0285017  28.5139987   3.3265006 104.0285017
  27.3169987   4.2535006 104.0285017  36.2439987  17.8355006 105.1305017
  37.2009987  17.8355006 105.1305017  36.0039987  18.7625006 105.1305017
  21.8409987   1.9005006 116.8885017  22.7979987   1.9005006 116.8885017
  21.6009987   2.8275006 116.8885017  23.8849987   1.2515006 118.4285017
  24.8419987   1.2515006 118.4285017  23.6449987   2.1785006 118.4285017
  32.3369987 108.4115006 118.4605017  33.2939987 108.4115006 118.4605017
  32.0969987 109.3385006 118.4605017  35.4819987  16.6015006 117.2615017
  36.4389987  16.6015006 117.2615017  35.2419987  17.5285006 117.2615017
  49.9099987  10.4835006 107.2645017  50.8669987  10.4835006 107.2645017
  49.6699987  11.4105006 107.2645017  48.7809987   9.7485006 110.7405017
  49.7379987   9.7485006 110.7405017  48.5409987  10.6755006 110.7405017
  41.1389987   9.4025006 112.2915017  42.0959987   9.4025006 112.2915017
  40.8989987  10.3295006 112.2915017  52.4849987  12.6915006 109.0105017
  53.4419987  12.6915006 109.0105017  52.2449987  13.6185006 109.0105017
  42.0669987  13.8515006 110.8125017  43.0239987  13.8515006 110.8125017
  41.8269987  14.7785006 110.8125017  38.8899987   7.6755006 105.6505017
  39.8469987   7.6755006 105.6505017  38.6499987   8.6025006 105.6505017
  39.4269987   9.6735006 108.4115017  40.3839987   9.6735006 108.4115017
  39.1869987  10.6005006 108.4115017  49.5909987  17.8455006 109.2595017
  50.5479987  17.8455006 109.2595017  49.3509987  18.7725006 109.2595017
  47.1599987  12.1555006 111.1795017  48.1169987  12.1555006 111.1795017
  46.9199987  13.0825006 111.1795017  55.7919987   3.7565006 111.9365017
  56.7489987   3.7565006 111.9365017  55.5519987   4.6835006 111.9365017
  50.3509987   6.6045006 111.5105017  51.3079987   6.6045006 111.5105017
  50.1109987   7.5315006 111.5105017  43.4529987   4.7025006 108.7305017
  44.4099987   4.7025006 108.7305017  43.2129987   5.6295006 108.7305017
  51.1879987   4.7745006 107.1095017  52.1449987   4.7745006 107.1095017
  50.9479987   5.7015006 107.1095017  40.1419987   7.1535006 109.5015017
  41.0989987   7.1535006 109.5015017  39.9019987   8.0805006 109.5015017
  45.2329987   8.6575006 108.7615017  46.1899987   8.6575006 108.7615017
  44.9929987   9.5845006 108.7615017  56.2319987   5.2375006 114.2015017
  57.1889987   5.2375006 114.2015017  55.9919987   6.1645006 114.2015017
  42.3489987   3.6035006 112.7905017  43.3059987   3.6035006 112.7905017
  42.1089987   4.5305006 112.7905017  49.6439987  13.0755006 106.3275017
  50.6009987  13.0755006 106.3275017  49.4039987  14.0025006 106.3275017
  44.8659987  11.2465006 113.0345017  45.8229987  11.2465006 113.0345017
  44.6259987  12.1735006 113.0345017  52.9769987   4.1075006 109.0945017
  53.9339987   4.1075006 109.0945017  52.7369987   5.0345006 109.0945017
  41.9039987   5.4755006 110.7855017  42.8609987   5.4755006 110.7855017
  41.6639987   6.4025006 110.7855017  43.3049987  13.2325006 113.8495017
  44.2619987  13.2325006 113.8495017  43.0649987  14.1595006 113.8495017
  39.3709987  12.8765006 104.6485017  40.3279987  12.8765006 104.6485017
  39.1309987  13.8035006 104.6485017  53.0069987  14.5225006 111.3815017
  53.9639987  14.5225006 111.3815017  52.7669987  15.4495006 111.3815017
  53.3519987   2.8055006 112.8435017  54.3089987   2.8055006 112.8435017
  53.1119987   3.7325006 112.8435017  46.2759987   0.9645006 110.1045017
  47.2329987   0.9645006 110.1045017  46.0359987   1.8915006 110.1045017
  51.2629987  16.3065006 108.0015017  52.2199987  16.3065006 108.0015017
  51.0229987  17.2335006 108.0015017  52.4679987  14.2355006 106.4885017
  53.4249987  14.2355006 106.4885017  52.2279987  15.1625006 106.4885017
  54.0909987  12.7955006 114.9815017  55.0479987  12.7955006 114.9815017
  53.8509987  13.7225006 114.9815017  48.5759987   9.7205006 104.7495017
  49.5329987   9.7205006 104.7495017  48.3359987  10.6475006 104.7495017
  55.9229987   9.1295006 113.0365017  56.8799987   9.1295006 113.0365017
  55.6829987  10.0565006 113.0365017  52.0379987   9.9495006 105.7045017
  52.9949987   9.9495006 105.7045017  51.7979987  10.8765006 105.7045017
  51.7229987   7.9845006 114.8685017  52.6799987   7.9845006 114.8685017
  51.4829987   8.9115006 114.8685017  43.6349987  10.5915006 107.5955017
  44.5919987  10.5915006 107.5955017  43.3949987  11.5185006 107.5955017
  44.9709987  13.9955006 110.2695017  45.9279987  13.9955006 110.2695017
  44.7309987  14.9225006 110.2695017  43.9789987   9.3375006 111.2395017
  44.9359987   9.3375006 111.2395017  43.7389987  10.2645006 111.2395017
  50.3739987  14.8985006 111.9515017  51.3309987  14.8985006 111.9515017
  50.1339987  15.8255006 111.9515017  44.9179987  13.7605006 115.9435017
  45.8749987  13.7605006 115.9435017  44.6779987  14.6875006 115.9435017
  50.8859987   9.1175006 103.3735017  51.8429987   9.1175006 103.3735017
  50.6459987  10.0445006 103.3735017  41.8519987   9.9275006 115.1195017
  42.8089987   9.9275006 115.1195017  41.6119987  10.8545006 115.1195017
  48.6369987  15.8615006 106.7845017  49.5939987  15.8615006 106.7845017
  48.3969987  16.7885006 106.7845017  43.1599987  15.8115006 116.6975017
  44.1169987  15.8115006 116.6975017  42.9199987  16.7385006 116.6975017
  54.6149987   0.9105006 103.2505017  55.5719987   0.9105006 103.2505017
  54.3749987   1.8375006 103.2505017  42.6179987   9.6455006 105.1825017
  43.5749987   9.6455006 105.1825017  42.3779987  10.5725006 105.1825017
  38.7099987  12.0445006 114.0715017  39.6669987  12.0445006 114.0715017
  38.4699987  12.9715006 114.0715017  38.4619987  14.7825006 110.8765017
  39.4189987  14.7825006 110.8765017  38.2219987  15.7095006 110.8765017
  56.7009987  15.4785006 116.5615017  57.6579987  15.4785006 116.5615017
  56.4609987  16.4055006 116.5615017  47.6579987  15.0235006 115.4245017
  48.6149987  15.0235006 115.4245017  47.4179987  15.9505006 115.4245017
  48.0849987  18.7735006 105.2185017  49.0419987  18.7735006 105.2185017
  47.8449987  19.7005006 105.2185017  41.7239987  17.6465006 107.0485017
  42.6809987  17.6465006 107.0485017  41.4839987  18.5735006 107.0485017
  50.8429987  17.9325006 104.9945017  51.7999987  17.9325006 104.9945017
  50.6029987  18.8595006 104.9945017  53.8619987   6.9705006 117.0215017
  54.8189987   6.9705006 117.0215017  53.6219987   7.8975006 117.0215017
  40.9809987  13.3585006 115.0365017  41.9379987  13.3585006 115.0365017
  40.7409987  14.2855006 115.0365017  43.7369987   1.9245006 110.9335017
  44.6939987   1.9245006 110.9335017  43.4969987   2.8515006 110.9335017
  48.3189987   1.5235006 114.3995017  49.2759987   1.5235006 114.3995017
  48.0789987   2.4505006 114.3995017  51.6079987   5.3075006 115.2605017
  52.5649987   5.3075006 115.2605017  51.3679987   6.2345006 115.2605017
  47.9449987   4.0495006 101.6795017  48.9019987   4.0495006 101.6795017
  47.7049987   4.9765006 101.6795017  43.7499987   6.7905006 112.2135017
  44.7069987   6.7905006 112.2135017  43.5099987   7.7175006 112.2135017
  43.7059987   6.9465006 107.0945017  44.6629987   6.9465006 107.0945017
  43.4659987   7.8735006 107.0945017  49.2329987   7.4135006 105.8635017
  50.1899987   7.4135006 105.8635017  48.9929987   8.3405006 105.8635017
  48.3059987   7.6255006 117.3265017  49.2629987   7.6255006 117.3265017
  48.0659987   8.5525006 117.3265017  50.2639987   6.9015006 108.7055017
  51.2209987   6.9015006 108.7055017  50.0239987   7.8285006 108.7055017
  41.4039987   7.0725006 113.9455017  42.3609987   7.0725006 113.9455017
  41.1639987   7.9995006 113.9455017  38.0499987   3.9255006 107.9245017
  39.0069987   3.9255006 107.9245017  37.8099987   4.8525006 107.9245017
  39.3029987   4.9795006 103.2825017  40.2599987   4.9795006 103.2825017
  39.0629987   5.9065006 103.2825017  49.5209987   8.5035006 113.3125017
  50.4779987   8.5035006 113.3125017  49.2809987   9.4305006 113.3125017
  46.2789987   4.4725006 108.1095017  47.2359987   4.4725006 108.1095017
  46.0389987   5.3995006 108.1095017  41.1009987   6.0395006 106.9625017
  42.0579987   6.0395006 106.9625017  40.8609987   6.9665006 106.9625017
  44.7159987   6.1135006 104.6695017  45.6729987   6.1135006 104.6695017
  44.4759987   7.0405006 104.6695017  50.6939987   3.6755006 111.3565017
  51.6509987   3.6755006 111.3565017  50.4539987   4.6025006 111.3565017
  43.4149987   7.3085006 102.1685017  44.3719987   7.3085006 102.1685017
  43.1749987   8.2355006 102.1685017  53.9119987  19.3335006 117.6795017
  54.8689987  19.3335006 117.6795017  53.6719987  20.2605006 117.6795017
  41.5679987  11.8145006 117.2485017  42.5249987  11.8145006 117.2485017
  41.3279987  12.7415006 117.2485017  47.5709987   7.2275006 110.0095017
  48.5279987   7.2275006 110.0095017  47.3309987   8.1545006 110.0095017
  42.5699987   3.3605006 106.4705017  43.5269987   3.3605006 106.4705017
  42.3299987   4.2875006 106.4705017  46.2089987   5.5835006 112.4165017
  47.1659987   5.5835006 112.4165017  45.9689987   6.5105006 112.4165017
  46.8039987  11.7515006 104.1195017  47.7609987  11.7515006 104.1195017
  46.5639987  12.6785006 104.1195017  53.9579987  11.0365006 112.8585017
  54.9149987  11.0365006 112.8585017  53.7179987  11.9635006 112.8585017
  48.2849987  12.0275006 115.3545017  49.2419987  12.0275006 115.3545017
  48.0449987  12.9545006 115.3545017  51.3569987   6.4635006 103.9515017
  52.3139987   6.4635006 103.9515017  51.1169987   7.3905006 103.9515017
  41.8919987  11.1595006 109.9105017  42.8489987  11.1595006 109.9105017
  41.6519987  12.0865006 109.9105017  48.8949987  13.2405006 103.1245017
  49.8519987  13.2405006 103.1245017  48.6549987  14.1675006 103.1245017
  38.8879987   9.5815006 115.1865017  39.8449987   9.5815006 115.1865017
  38.6479987  10.5085006 115.1865017  45.9009987   9.1345006 117.3755017
  46.8579987   9.1345006 117.3755017  45.6609987  10.0615006 117.3755017
  50.5719987  14.4645006 115.2985017  51.5289987  14.4645006 115.2985017
  50.3319987  15.3915006 115.2985017  56.2259987   6.6725006 103.7255017
  57.1829987   6.6725006 103.7255017  55.9859987   7.5995006 103.7255017
  56.2299987  12.4815006 116.5085017  57.1869987  12.4815006 116.5085017
  55.9899987  13.4085006 116.5085017  54.5419987  15.4885006 104.0925017
  55.4989987  15.4885006 104.0925017  54.3019987  16.4155006 104.0925017
  51.7499987  10.2775006 111.2335017  52.7069987  10.2775006 111.2335017
  51.5099987  11.2045006 111.2335017  44.2619987  14.6165006 107.2815017
  45.2189987  14.6165006 107.2815017  44.0219987  15.5435006 107.2815017
  40.0059987   9.4245006 101.9115017  40.9629987   9.4245006 101.9115017
  39.7659987  10.3515006 101.9115017  45.7059987  12.2855006 106.8565017
  46.6629987  12.2855006 106.8565017  45.4659987  13.2125006 106.8565017
  46.1459987  16.4765006 113.2165017  47.1029987  16.4765006 113.2165017
  45.9059987  17.4035006 113.2165017  44.3709987  17.3005006 106.3715017
  45.3279987  17.3005006 106.3715017  44.1309987  18.2275006 106.3715017
  49.7069987  12.5025006 112.8665017  50.6639987  12.5025006 112.8665017
  49.4669987  13.4295006 112.8665017  51.9599987  13.5545006 101.9935017
  52.9169987  13.5545006 101.9935017  51.7199987  14.4815006 101.9935017
  52.4589987  17.0665006 115.3505017  53.4159987  17.0665006 115.3505017
  52.2189987  17.9935006 115.3505017  56.4499987  17.9625006 102.1445017
  57.4069987  17.9625006 102.1445017  56.2099987  18.8895006 102.1445017
  40.5439987   4.3045006 114.7605017  41.5009987   4.3045006 114.7605017
  40.3039987   5.2315006 114.7605017  52.7879987  12.1685006 104.2025017
  53.7449987  12.1685006 104.2025017  52.5479987  13.0955006 104.2025017
  40.1619987  16.1115006 113.1615017  41.1189987  16.1115006 113.1615017
  39.9219987  17.0385006 113.1615017  41.4149987  11.3985006 103.3445017
  42.3719987  11.3985006 103.3445017  41.1749987  12.3255006 103.3445017
  49.2649987   4.0805006 113.6685017  50.2219987   4.0805006 113.6685017
  49.0249987   5.0075006 113.6685017  50.0739987   3.6635006 104.7345017
  51.0309987   3.6635006 104.7345017  49.8339987   4.5905006 104.7345017
  47.7619987  15.8715006 103.6485017  48.7189987  15.8715006 103.6485017
  47.5219987  16.7985006 103.6485017  47.2569987   5.3975006 105.5835017
  48.2139987   5.3975006 105.5835017  47.0169987   6.3245006 105.5835017
  47.7829987   6.4185006 114.7755017  48.7399987   6.4185006 114.7755017
  47.5429987   7.3455006 114.7755017  48.1189987   2.4795006 106.5235017
  49.0759987   2.4795006 106.5235017  47.8789987   3.4065006 106.5235017
  45.1269987  16.9125006 103.6155017  46.0839987  16.9125006 103.6155017
  44.8869987  17.8395006 103.6155017  53.9969987   4.3545006 115.6115017
  54.9539987   4.3545006 115.6115017  53.7569987   5.2815006 115.6115017
  52.5769987   8.1025006 109.6855017  53.5339987   8.1025006 109.6855017
  52.3369987   9.0295006 109.6855017  53.6519987  17.3395006 111.3185017
  54.6089987  17.3395006 111.3185017  53.4119987  18.2665006 111.3185017
  40.9289987   1.6735006 109.9795017  41.8859987   1.6735006 109.9795017
  40.6889987   2.6005006 109.9795017  40.0859987  15.3935006 106.2565017
  41.0429987  15.3935006 106.2565017  39.8459987  16.3205006 106.2565017
  39.3269987  18.0405006 117.5485017  40.2839987  18.0405006 117.5485017
  39.0869987  18.9675006 117.5485017  43.9839987  16.9645006 119.1555017
  44.9409987  16.9645006 119.1555017  43.7439987  17.8915006 119.1555017
  50.5139987  15.3385006 117.8935017  51.4709987  15.3385006 117.8935017
  50.2739987  16.2655006 117.8935017  39.2469987  11.8235006 118.5325017
  40.2039987  11.8235006 118.5325017  39.0069987  12.7505006 118.5325017
  45.9429987  11.8025006 117.9305017  46.8999987  11.8025006 117.9305017
  45.7029987  12.7295006 117.9305017  48.9279987  13.2615006 100.3335017
  49.8849987  13.2615006 100.3335017  48.6879987  14.1885006 100.3335017
  51.6709987  11.6535006 115.2915017  52.6279987  11.6535006 115.2915017
  51.4309987  12.5805006 115.2915017  40.1389987   9.0425006 117.9195017
  41.0959987   9.0425006 117.9195017  39.8989987   9.9695006 117.9195017
  44.7979987  10.1725006 102.9685017  45.7549987  10.1725006 102.9685017
  44.5579987  11.0995006 102.9685017  44.0499987   7.9985006 115.2855017
  45.0069987   7.9985006 115.2855017  43.8099987   8.9255006 115.2855017
  45.8439987   8.4035006 101.1825017  46.8009987   8.4035006 101.1825017
  45.6039987   9.3305006 101.1825017  49.1029987  10.5445006 118.6035017
  50.0599987  10.5445006 118.6035017  48.8629987  11.4715006 118.6035017
  44.4359987   5.3675006 116.3495017  45.3929987   5.3675006 116.3495017
  44.1959987   6.2945006 116.3495017  44.8519987   3.7535006 113.8905017
  45.8089987   3.7535006 113.8905017  44.6119987   4.6805006 113.8905017
  46.3919987   9.2185006 114.1315017  47.3489987   9.2185006 114.1315017
  46.1519987  10.1455006 114.1315017  50.7989987   7.0035006 119.0935017
  51.7559987   7.0035006 119.0935017  50.5589987   7.9305006 119.0935017
  52.1369987   9.7605006 117.1975017  53.0939987   9.7605006 117.1975017
  51.8969987  10.6875006 117.1975017  42.9019987   6.6195006 118.2685017
  43.8589987   6.6195006 118.2685017  42.6619987   7.5465006 118.2685017
  45.7119987   1.2155006 114.1765017  46.6689987   1.2155006 114.1765017
  45.4719987   2.1425006 114.1765017  46.8999987   5.5135006 117.8885017
  47.8569987   5.5135006 117.8885017  46.6599987   6.4405006 117.8885017
  49.6219987   4.6825006 116.9795017  50.5789987   4.6825006 116.9795017
  49.3819987   5.6095006 116.9795017  51.2509987   3.3055006 118.9165017
  52.2079987   3.3055006 118.9165017  51.0109987   4.2325006 118.9165017
  40.9959987   4.5265006 118.0095017  41.9529987   4.5265006 118.0095017
  40.7559987   5.4535006 118.0095017  46.4339987 108.5235006 117.0355017
  47.3909987 108.5235006 117.0355017  46.1939987 109.4505006 117.0355017
  46.1949987   2.2435006 119.1195017  47.1519987   2.2435006 119.1195017
  45.9549987   3.1705006 119.1195017  39.3379987  13.6315006 101.7995017
  40.2949987  13.6315006 101.7995017  39.0979987  14.5585006 101.7995017
  38.0079987  19.0715006 106.7065017  38.9649987  19.0715006 106.7065017
  37.7679987  19.9985006 106.7065017  38.8319987  17.1935006 108.5615017
  39.7889987  17.1935006 108.5615017  38.5919987  18.1205006 108.5615017
  56.3739987  17.9915006 111.5165017  57.3309987  17.9915006 111.5165017
  56.1339987  18.9185006 111.5165017  55.9499987  17.5885006 114.4595017
  56.9069987  17.5885006 114.4595017  55.7099987  18.5155006 114.4595017
  54.4029987  13.3075006 119.1155017  55.3599987  13.3075006 119.1155017
  54.1629987  14.2345006 119.1155017  55.6949987  11.6415006 104.5995017
  56.6519987  11.6415006 104.5995017  55.4549987  12.5685006 104.5995017
  56.0849987   9.7045006 106.4225017  57.0419987   9.7045006 106.4225017
  55.8449987  10.6315006 106.4225017  55.8339987  12.4105006 111.4355017
  56.7909987  12.4105006 111.4355017  55.5939987  13.3375006 111.4355017
  54.3779987  15.3165006 113.7035017  55.3349987  15.3165006 113.7035017
  54.1379987  16.2435006 113.7035017  56.3379987   9.5305006 102.8195017
  57.2949987   9.5305006 102.8195017  56.0979987  10.4575006 102.8195017
  54.7349987   6.7535006 101.3695017  55.6919987   6.7535006 101.3695017
  54.4949987   7.6805006 101.3695017  53.8969987   8.1885006 107.0115017
  54.8539987   8.1885006 107.0115017  53.6569987   9.1155006 107.0115017
  38.8899987  10.2875006 111.0585017  39.8469987  10.2875006 111.0585017
  38.6499987  11.2145006 111.0585017  54.7449987  10.1565006 116.6465017
  55.7019987  10.1565006 116.6465017  54.5049987  11.0835006 116.6465017
  56.2409987   8.0575006 117.3075017  57.1979987   8.0575006 117.3075017
  56.0009987   8.9845006 117.3075017  53.5619987   5.7765006 105.4495017
  54.5189987   5.7765006 105.4495017  53.3219987   6.7035006 105.4495017
  54.1909987   6.3405006 110.9065017  55.1479987   6.3405006 110.9065017
  53.9509987   7.2675006 110.9065017  54.2599987   7.0305006 113.6925017
  55.2169987   7.0305006 113.6925017  54.0199987   7.9575006 113.6925017
  38.5129987   5.5765006 117.2005017  39.4699987   5.5765006 117.2005017
  38.2729987   6.5035006 117.2005017  56.4619987   1.1855006 118.9835017
  57.4189987   1.1855006 118.9835017  56.2219987   2.1125006 118.9835017
  54.1929987   3.0815006 105.5225017  55.1499987   3.0815006 105.5225017
  53.9529987   4.0085006 105.5225017  39.6919987   3.8985006 110.0795017
  40.6489987   3.8985006 110.0795017  39.4519987   4.8255006 110.0795017
  38.0379987   6.8285006 111.1655017  38.9949987   6.8285006 111.1655017
  37.7979987   7.7555006 111.1655017  56.0499987   3.2095006 117.3825017
  57.0069987   3.2095006 117.3825017  55.8099987   4.1365006 117.3825017
  38.3659987   3.0655006 105.1745017  39.3229987   3.0655006 105.1745017
  38.1259987   3.9925006 105.1745017  53.1009987  18.0805006 107.1185017
  54.0579987  18.0805006 107.1185017  52.8609987  19.0075006 107.1185017
  38.3259987   1.8205006 113.4995017  39.2829987   1.8205006 113.4995017
  38.0859987   2.7475006 113.4995017  40.5379987  14.9835006 117.6475017
  41.4949987  14.9835006 117.6475017  40.2979987  15.9105006 117.6475017
  43.4419987  15.9705006 113.9235017  44.3989987  15.9705006 113.9235017
  43.2019987  16.8975006 113.9235017  47.7729987  17.4055006 116.8435017
  48.7299987  17.4055006 116.8435017  47.5329987  18.3325006 116.8435017
  50.0619987  18.6855006 116.0965017  51.0189987  18.6855006 116.0965017
  49.8219987  19.6125006 116.0965017  55.1529987   1.4255006 115.1825017
  56.1099987   1.4255006 115.1825017  54.9129987   2.3525006 115.1825017
  40.8739987  19.2305006 113.9325017  41.8309987  19.2305006 113.9325017
  40.6339987  20.1575006 113.9325017  43.3649987  18.8375006 113.0005017
  44.3219987  18.8375006 113.0005017  43.1249987  19.7645006 113.0005017
  48.0349987  18.6805006 112.1865017  48.9919987  18.6805006 112.1865017
  47.7949987  19.6075006 112.1865017  50.3509987  17.5525006 113.1615017
  51.3079987  17.5525006 113.1615017  50.1109987  18.4795006 113.1615017
  52.9349987  19.1145006 113.4175017  53.8919987  19.1145006 113.4175017
  52.6949987  20.0415006 113.4175017  40.3129987  17.8745006 110.8605017
  41.2699987  17.8745006 110.8605017  40.0729987  18.8015006 110.8605017
  42.4019987  16.5825006 109.5135017  43.3589987  16.5825006 109.5135017
  42.1619987  17.5095006 109.5135017  45.0129987  17.0775006 110.3975017
  45.9699987  17.0775006 110.3975017  44.7729987  18.0045006 110.3975017
  48.4559987   2.7455006 109.5255017  49.4129987   2.7455006 109.5255017
  48.2159987   3.6725006 109.5255017  53.6779987   1.0855006 109.7815017
  54.6349987   1.0855006 109.7815017  53.4379987   2.0125006 109.7815017
  55.3099987   1.9925006 107.8975017  56.2669987   1.9925006 107.8975017
  55.0699987   2.9195006 107.8975017  40.7799987   1.3245006 107.3735017
  41.7369987   1.3245006 107.3735017  40.5399987   2.2515006 107.3735017
  39.5599987   1.1945006 103.0605017  40.5169987   1.1945006 103.0605017
  39.3199987   2.1215006 103.0605017  45.3439987   1.3005006 107.1445017
  46.3009987   1.3005006 107.1445017  45.1039987   2.2275006 107.1445017
  50.9339987   1.3285006 108.7895017  51.8909987   1.3285006 108.7895017
  50.6939987   2.2555006 108.7895017  52.2679987   1.3445006 104.5335017
  53.2249987   1.3445006 104.5335017  52.0279987   2.2715006 104.5335017
  39.4909987  17.0615006 104.1285017  40.4479987  17.0615006 104.1285017
  39.2509987  17.9885006 104.1285017  46.5109987   3.3125006 103.9935017
  47.4679987   3.3125006 103.9935017  46.2709987   4.2395006 103.9935017
  55.0699987  17.8745006 105.1465017  56.0269987  17.8745006 105.1465017
  54.8299987  18.8015006 105.1465017  40.6989987   1.9015006 116.8865017
  41.6559987   1.9015006 116.8865017  40.4589987   2.8285006 116.8865017
  42.7229987   1.2365006 118.4165017  43.6799987   1.2365006 118.4165017
  42.4829987   2.1635006 118.4165017  41.3469987  18.0235006 101.0855017
  42.3039987  18.0235006 101.0855017  41.1069987  18.9505006 101.0855017
  51.2009987 108.3785006 118.4655017  52.1579987 108.3785006 118.4655017
  50.9609987 109.3055006 118.4655017  54.3389987  16.6015006 117.2605017
  55.2959987  16.6015006 117.2605017  54.0989987  17.5285006 117.2605017
  68.7619987  10.4805006 107.2635017  69.7189987  10.4805006 107.2635017
  68.5219987  11.4075006 107.2635017  67.6389987   9.7485006 110.7355017
  68.5959987   9.7485006 110.7355017  67.3989987  10.6755006 110.7355017
  59.9949987   9.4025006 112.2915017  60.9519987   9.4025006 112.2915017
  59.7549987  10.3295006 112.2915017  71.3709987  12.6825006 109.0205017
  72.3279987  12.6825006 109.0205017  71.1309987  13.6095006 109.0205017
  60.9229987  13.8515006 110.8135017  61.8799987  13.8515006 110.8135017
  60.6829987  14.7785006 110.8135017  57.5649987   7.4355006 106.2785017
  58.5219987   7.4355006 106.2785017  57.3249987   8.3625006 106.2785017
  58.2679987   9.6555006 108.3955017  59.2249987   9.6555006 108.3955017
  58.0279987  10.5825006 108.3955017  68.4499987  17.8375006 109.2495017
  69.4069987  17.8375006 109.2495017  68.2099987  18.7645006 109.2495017
  66.0159987  12.1545006 111.1785017  66.9729987  12.1545006 111.1785017
  65.7759987  13.0815006 111.1785017  74.6469987   3.7605006 111.9395017
  75.6039987   3.7605006 111.9395017  74.4069987   4.6875006 111.9395017
  69.1819987   6.5975006 111.5075017  70.1389987   6.5975006 111.5075017
  68.9419987   7.5245006 111.5075017  62.3119987   4.6995006 108.7285017
  63.2689987   4.6995006 108.7285017  62.0719987   5.6265006 108.7285017
  70.0449987   4.7805006 107.1185017  71.0019987   4.7805006 107.1185017
  69.8049987   5.7075006 107.1185017  58.9249987   7.1035006 109.4785017
  59.8819987   7.1035006 109.4785017  58.6849987   8.0305006 109.4785017
  64.0869987   8.6585006 108.7725017  65.0439987   8.6585006 108.7725017
  63.8469987   9.5855006 108.7725017  75.0789987   5.2215006 114.2025017
  76.0359987   5.2215006 114.2025017  74.8389987   6.1485006 114.2025017
  61.2049987   3.6045006 112.7895017  62.1619987   3.6045006 112.7895017
  60.9649987   4.5315006 112.7895017  68.5209987  13.0915006 106.3425017
  69.4779987  13.0915006 106.3425017  68.2809987  14.0185006 106.3425017
  63.7219987  11.2425006 113.0375017  64.6789987  11.2425006 113.0375017
  63.4819987  12.1695006 113.0375017  71.8329987   4.1035006 109.0915017
  72.7899987   4.1035006 109.0915017  71.5929987   5.0305006 109.0915017
  60.7529987   5.4805006 110.7825017  61.7099987   5.4805006 110.7825017
  60.5129987   6.4075006 110.7825017  62.1569987  13.2305006 113.8445017
  63.1139987  13.2305006 113.8445017  61.9169987  14.1575006 113.8445017
  58.1989987  12.8655006 104.6415017  59.1559987  12.8655006 104.6415017
  57.9589987  13.7925006 104.6415017  71.8619987  14.5225006 111.3845017
  72.8189987  14.5225006 111.3845017  71.6219987  15.4495006 111.3845017
  72.2069987   2.8045006 112.8425017  73.1639987   2.8045006 112.8425017
  71.9669987   3.7315006 112.8425017  65.1319987   0.9665006 110.1135017
  66.0889987   0.9665006 110.1135017  64.8919987   1.8935006 110.1135017
  70.1219987  16.3115006 108.0015017  71.0789987  16.3115006 108.0015017
  69.8819987  17.2385006 108.0015017  71.3219987  14.2405006 106.4905017
  72.2789987  14.2405006 106.4905017  71.0819987  15.1675006 106.4905017
  72.9529987  12.8155006 114.9875017  73.9099987  12.8155006 114.9875017
  72.7129987  13.7425006 114.9875017  67.4429987   9.7485006 104.7555017
  68.3999987   9.7485006 104.7555017  67.2029987  10.6755006 104.7555017
  74.8339987   9.1365006 113.0415017  75.7909987   9.1365006 113.0415017
  74.5939987  10.0635006 113.0415017  70.8709987   9.9315006 105.6715017
  71.8279987   9.9315006 105.6715017  70.6309987  10.8585006 105.6715017
  70.8029987   8.0965006 114.7885017  71.7599987   8.0965006 114.7885017
  70.5629987   9.0235006 114.7885017  62.4919987  10.5935006 107.5985017
  63.4489987  10.5935006 107.5985017  62.2519987  11.5205006 107.5985017
  63.8239987  13.9935006 110.2785017  64.7809987  13.9935006 110.2785017
  63.5839987  14.9205006 110.2785017  62.8349987   9.3385006 111.2395017
  63.7919987   9.3385006 111.2395017  62.5949987  10.2655006 111.2395017
  69.2199987  14.9005006 111.9475017  70.1769987  14.9005006 111.9475017
  68.9799987  15.8275006 111.9475017  63.7739987  13.7605006 115.9435017
  64.7309987  13.7605006 115.9435017  63.5339987  14.6875006 115.9435017
  69.7349987   9.1055006 103.3495017  70.6919987   9.1055006 103.3495017
  69.4949987  10.0325006 103.3495017  60.7059987   9.9275006 115.1195017
  61.6629987   9.9275006 115.1195017  60.4659987  10.8545006 115.1195017
  67.4619987  15.8525006 106.8295017  68.4189987  15.8525006 106.8295017
  67.2219987  16.7795006 106.8295017  62.0149987  15.8115006 116.6975017
  62.9719987  15.8115006 116.6975017  61.7749987  16.7385006 116.6975017
  73.4789987   0.9205006 103.2835017  74.4359987   0.9205006 103.2835017
  73.2389987   1.8475006 103.2835017  61.4469987   9.6525006 105.2195017
  62.4039987   9.6525006 105.2195017  61.2069987  10.5795006 105.2195017
  57.5379987  12.0405006 114.0805017  58.4949987  12.0405006 114.0805017
  57.2979987  12.9675006 114.0805017  57.3239987  14.7765006 110.8765017
  58.2809987  14.7765006 110.8765017  57.0839987  15.7035006 110.8765017
  75.5569987  15.4795006 116.5625017  76.5139987  15.4795006 116.5625017
  75.3169987  16.4065006 116.5625017  66.5139987  15.0235006 115.4255017
  67.4709987  15.0235006 115.4255017  66.2739987  15.9505006 115.4255017
  66.9419987  18.7745006 105.2525017  67.8989987  18.7745006 105.2525017
  66.7019987  19.7015006 105.2525017  60.5829987  17.6475006 107.0515017
  61.5399987  17.6475006 107.0515017  60.3429987  18.5745006 107.0515017
  70.0339987  17.9975006 102.2005017  70.9909987  17.9975006 102.2005017
  69.7939987  18.9245006 102.2005017  69.6889987  17.8955006 104.9675017
  70.6459987  17.8955006 104.9675017  69.4489987  18.8225006 104.9675017
  72.6949987   6.9585006 117.0445017  73.6519987   6.9585006 117.0445017
  72.4549987   7.8855006 117.0445017  59.8339987  13.3575006 115.0355017
  60.7909987  13.3575006 115.0355017  59.5939987  14.2845006 115.0355017
  62.5979987   1.9225006 110.9355017  63.5549987   1.9225006 110.9355017
  62.3579987   2.8495006 110.9355017  67.1759987   1.5595006 114.4145017
  68.1329987   1.5595006 114.4145017  66.9359987   2.4865006 114.4145017
  70.4489987   5.2995006 115.2505017  71.4059987   5.2995006 115.2505017
  70.2089987   6.2265006 115.2505017  62.6049987   6.7895006 112.2135017
  63.5619987   6.7895006 112.2135017  62.3649987   7.7165006 112.2135017
  62.5679987   6.9285006 107.1005017  63.5249987   6.9285006 107.1005017
  62.3279987   7.8555006 107.1005017  68.0869987   7.3935006 105.8445017
  69.0439987   7.3935006 105.8445017  67.8469987   8.3205006 105.8445017
  67.1659987   7.6255006 117.3235017  68.1229987   7.6255006 117.3235017
  66.9259987   8.5525006 117.3235017  69.1179987   6.9035006 108.7075017
  70.0749987   6.9035006 108.7075017  68.8779987   7.8305006 108.7075017
  60.2539987   7.0735006 113.9435017  61.2109987   7.0735006 113.9435017
  60.0139987   8.0005006 113.9435017  56.8859987   4.2045006 107.8745017
  57.8429987   4.2045006 107.8745017  56.6459987   5.1315006 107.8745017
  58.2039987   4.9495006 103.3295017  59.1609987   4.9495006 103.3295017
  57.9639987   5.8765006 103.3295017  68.3379987   8.5035006 113.2975017
  69.2949987   8.5035006 113.2975017  68.0979987   9.4305006 113.2975017
  65.1359987   4.4745006 108.1095017  66.0929987   4.4745006 108.1095017
  64.8959987   5.4015006 108.1095017  59.9499987   6.0435006 106.9785017
  60.9069987   6.0435006 106.9785017  59.7099987   6.9705006 106.9785017
  69.5499987   3.6755006 111.3575017  70.5069987   3.6755006 111.3575017
  69.3099987   4.6025006 111.3575017  72.7549987  19.3465006 117.6775017
  73.7119987  19.3465006 117.6775017  72.5149987  20.2735006 117.6775017
  60.4239987  11.8125006 117.2485017  61.3809987  11.8125006 117.2485017
  60.1839987  12.7395006 117.2485017  66.4309987   7.2305006 110.0185017
  67.3879987   7.2305006 110.0185017  66.1909987   8.1575006 110.0185017
  61.4189987   3.3765006 106.4335017  62.3759987   3.3765006 106.4335017
  61.1789987   4.3035006 106.4335017  65.0589987   5.5785006 112.4165017
  66.0159987   5.5785006 112.4165017  64.8189987   6.5055006 112.4165017
  72.8199987  10.9615006 112.9105017  73.7769987  10.9615006 112.9105017
  72.5799987  11.8885006 112.9105017  69.4979987   4.6185006 102.2765017
  70.4549987   4.6185006 102.2765017  69.2579987   5.5455006 102.2765017
  67.1349987  12.0295006 115.3545017  68.0919987  12.0295006 115.3545017
  66.8949987  12.9565006 115.3545017  70.2299987   6.4965006 103.9485017
  71.1869987   6.4965006 103.9485017  69.9899987   7.4235006 103.9485017
  60.7529987  11.1595006 109.9105017  61.7099987  11.1595006 109.9105017
  60.5129987  12.0865006 109.9105017  57.6999987   9.5895006 115.1955017
  58.6569987   9.5895006 115.1955017  57.4599987  10.5165006 115.1955017
  64.7569987   9.1345006 117.3755017  65.7139987   9.1345006 117.3755017
  64.5169987  10.0615006 117.3755017  69.4279987  14.4655006 115.2975017
  70.3849987  14.4655006 115.2975017  69.1879987  15.3925006 115.2975017
  75.1269987   6.6735006 103.6805017  76.0839987   6.6735006 103.6805017
  74.8869987   7.6005006 103.6805017  75.0959987  12.5175006 116.5145017
  76.0529987  12.5175006 116.5145017  74.8559987  13.4445006 116.5145017
  73.3979987  15.5045006 104.0855017  74.3549987  15.5045006 104.0855017
  73.1579987  16.4315006 104.0855017  70.6019987  10.3015006 111.1935017
  71.5589987  10.3015006 111.1935017  70.3619987  11.2285006 111.1935017
  63.1039987  14.6355006 107.3305017  64.0609987  14.6355006 107.3305017
  62.8639987  15.5625006 107.3305017  64.5609987  12.2915006 106.9105017
  65.5179987  12.2915006 106.9105017  64.3209987  13.2185006 106.9105017
  65.0039987  16.4665006 113.2135017  65.9609987  16.4665006 113.2135017
  64.7639987  17.3935006 113.2135017  63.2279987  17.2775006 106.4145017
  64.1849987  17.2775006 106.4145017  62.9879987  18.2045006 106.4145017
  68.5449987  12.4975006 112.8565017  69.5019987  12.4975006 112.8565017
  68.3049987  13.4245006 112.8565017  71.3129987  17.0675006 115.3505017
  72.2699987  17.0675006 115.3505017  71.0729987  17.9945006 115.3505017
  59.3999987   4.3045006 114.7595017  60.3569987   4.3045006 114.7595017
  59.1599987   5.2315006 114.7595017  71.6369987  12.2115006 104.2375017
  72.5939987  12.2115006 104.2375017  71.3969987  13.1385006 104.2375017
  59.0149987  16.1125006 113.1635017  59.9719987  16.1125006 113.1635017
  58.7749987  17.0395006 113.1635017  68.1219987   4.0815006 113.6685017
  69.0789987   4.0815006 113.6685017  67.8819987   5.0085006 113.6685017
  68.8589987   3.7025006 104.7595017  69.8159987   3.7025006 104.7595017
  68.6189987   4.6295006 104.7595017  66.5989987  15.8955006 103.6735017
  67.5559987  15.8955006 103.6735017  66.3589987  16.8225006 103.6735017
  66.1009987   5.3985006 105.5745017  67.0579987   5.3985006 105.5745017
  65.8609987   6.3255006 105.5745017  66.6519987   6.4285006 114.7755017
  67.6089987   6.4285006 114.7755017  66.4119987   7.3555006 114.7755017
  66.9599987   2.4895006 106.4915017  67.9169987   2.4895006 106.4915017
  66.7199987   3.4165006 106.4915017  63.9129987  16.8775006 103.6065017
  64.8699987  16.8775006 103.6065017  63.6729987  17.8045006 103.6065017
  62.6219987   3.5515006 103.2145017  63.5789987   3.5515006 103.2145017
  62.3819987   4.4785006 103.2145017  72.8429987   4.3255006 115.6135017
  73.7999987   4.3255006 115.6135017  72.6029987   5.2525006 115.6135017
  71.4289987   8.0935006 109.6625017  72.3859987   8.0935006 109.6625017
  71.1889987   9.0205006 109.6625017  60.8489987  14.0635006 102.2235017
  61.8059987  14.0635006 102.2235017  60.6089987  14.9905006 102.2235017
  59.1739987   6.6565006 101.4335017  60.1309987   6.6565006 101.4335017
  58.9339987   7.5835006 101.4335017  72.5109987  17.3395006 111.3165017
  73.4679987  17.3395006 111.3165017  72.2709987  18.2665006 111.3165017
  59.7799987   1.6745006 109.9735017  60.7369987   1.6745006 109.9735017
  59.5399987   2.6015006 109.9735017  58.9499987  15.3995006 106.2615017
  59.9069987  15.3995006 106.2615017  58.7099987  16.3265006 106.2615017
  58.1829987  18.0355006 117.5455017  59.1399987  18.0355006 117.5455017
  57.9429987  18.9625006 117.5455017  62.8379987  16.9585006 119.1615017
  63.7949987  16.9585006 119.1615017  62.5979987  17.8855006 119.1615017
  69.3699987  15.3385006 117.8945017  70.3269987  15.3385006 117.8945017
  69.1299987  16.2655006 117.8945017  71.5029987  16.2325006 100.7795017
  72.4599987  16.2325006 100.7795017  71.2629987  17.1595006 100.7795017
  58.1069987  11.8235006 118.5365017  59.0639987  11.8235006 118.5365017
  57.8669987  12.7505006 118.5365017  64.7989987  11.8025006 117.9305017
  65.7559987  11.8025006 117.9305017  64.5589987  12.7295006 117.9305017
  70.5029987  11.6725006 115.3155017  71.4599987  11.6725006 115.3155017
  70.2629987  12.5995006 115.3155017  58.9859987   9.0435006 117.9205017
  59.9429987   9.0435006 117.9205017  58.7459987   9.9705006 117.9205017
  62.9059987   7.9985006 115.2855017  63.8629987   7.9985006 115.2855017
  62.6659987   8.9255006 115.2855017  67.9619987  10.5435006 118.6005017
  68.9189987  10.5435006 118.6005017  67.7219987  11.4705006 118.6005017
  63.2919987   5.3675006 116.3495017  64.2489987   5.3675006 116.3495017
  63.0519987   6.2945006 116.3495017  63.7079987   3.7415006 113.8875017
  64.6649987   3.7415006 113.8875017  63.4679987   4.6685006 113.8875017
  65.2489987   9.2185006 114.1325017  66.2059987   9.2185006 114.1325017
  65.0089987  10.1455006 114.1325017  69.6479987   6.9975006 119.1075017
  70.6049987   6.9975006 119.1075017  69.4079987   7.9245006 119.1075017
  70.9729987   9.7885006 117.2495017  71.9299987   9.7885006 117.2495017
  70.7329987  10.7155006 117.2495017  61.7579987   6.6195006 118.2685017
  62.7149987   6.6195006 118.2685017  61.5179987   7.5465006 118.2685017
  64.5719987   1.2295006 114.1625017  65.5289987   1.2295006 114.1625017
  64.3319987   2.1565006 114.1625017  65.7569987   5.5145006 117.8865017
  66.7139987   5.5145006 117.8865017  65.5169987   6.4415006 117.8865017
  68.4779987   4.6865006 116.9805017  69.4349987   4.6865006 116.9805017
  68.2379987   5.6135006 116.9805017  70.1069987   3.3055006 118.9165017
  71.0639987   3.3055006 118.9165017  69.8669987   4.2325006 118.9165017
  59.8509987   4.5265006 118.0095017  60.8079987   4.5265006 118.0095017
  59.6109987   5.4535006 118.0095017  65.2829987 108.5285006 117.0345017
  66.2399987 108.5285006 117.0345017  65.0429987 109.4555006 117.0345017
  65.0539987   2.2535006 119.1235017  66.0109987   2.2535006 119.1235017
  64.8139987   3.1805006 119.1235017  64.5619987  19.0605006 102.2025017
  65.5189987  19.0605006 102.2025017  64.3219987  19.9875006 102.2025017
  58.1399987  13.7235006 101.6835017  59.0969987  13.7235006 101.6835017
  57.8999987  14.6505006 101.6835017  56.8579987  19.0785006 106.7245017
  57.8149987  19.0785006 106.7245017  56.6179987  20.0055006 106.7245017
  57.6949987  17.1935006 108.5655017  58.6519987  17.1935006 108.5655017
  57.4549987  18.1205006 108.5655017  75.2299987  17.9905006 111.5165017
  76.1869987  17.9905006 111.5165017  74.9899987  18.9175006 111.5165017
  74.8139987  17.5815006 114.4525017  75.7709987  17.5815006 114.4525017
  74.5739987  18.5085006 114.4525017  73.2509987  13.3195006 119.1155017
  74.2079987  13.3195006 119.1155017  73.0109987  14.2465006 119.1155017
  74.5359987  11.6925006 104.6445017  75.4929987  11.6925006 104.6445017
  74.2959987  12.6195006 104.6445017  74.9169987   9.7145006 106.4265017
  75.8739987   9.7145006 106.4265017  74.6769987  10.6415006 106.4265017
  74.6829987  12.4215006 111.3865017  75.6399987  12.4215006 111.3865017
  74.4429987  13.3485006 111.3865017  73.2339987  15.3145006 113.7025017
  74.1909987  15.3145006 113.7025017  72.9939987  16.2415006 113.7025017
  73.6349987   6.7315006 101.3765017  74.5919987   6.7315006 101.3765017
  73.3949987   7.6585006 101.3765017  72.7659987   8.1905006 107.0295017
  73.7229987   8.1905006 107.0295017  72.5259987   9.1175006 107.0295017
  57.7459987  10.2585006 111.0705017  58.7029987  10.2585006 111.0705017
  57.5059987  11.1855006 111.0705017  73.5939987  10.1585006 116.6815017
  74.5509987  10.1585006 116.6815017  73.3539987  11.0855006 116.6815017
  75.1049987   8.0495006 117.3465017  76.0619987   8.0495006 117.3465017
  74.8649987   8.9765006 117.3465017  72.8169987   4.2005006 100.4445017
  73.7739987   4.2005006 100.4445017  72.5769987   5.1275006 100.4445017
  72.4159987   5.7745006 105.4885017  73.3729987   5.7745006 105.4885017
  72.1759987   6.7015006 105.4885017  73.0449987   6.3275006 110.9005017
  74.0019987   6.3275006 110.9005017  72.8049987   7.2545006 110.9005017
  73.1169987   7.0595006 113.6825017  74.0739987   7.0595006 113.6825017
  72.8769987   7.9865006 113.6825017  57.3609987   5.5845006 117.1965017
  58.3179987   5.5845006 117.1965017  57.1209987   6.5115006 117.1965017
  75.3219987   1.1845006 118.9845017  76.2789987   1.1845006 118.9845017
  75.0819987   2.1115006 118.9845017  73.0489987   3.0805006 105.5265017
  74.0059987   3.0805006 105.5265017  72.8089987   4.0075006 105.5265017
  58.5399987   3.9005006 110.0635017  59.4969987   3.9005006 110.0635017
  58.2999987   4.8275006 110.0635017  56.8449987   6.8635006 111.1225017
  57.8019987   6.8635006 111.1225017  56.6049987   7.7905006 111.1225017
  74.9059987   3.2095006 117.3825017  75.8629987   3.2095006 117.3825017
  74.6659987   4.1365006 117.3825017  74.9089987   3.1545006 102.0155017
  75.8659987   3.1545006 102.0155017  74.6689987   4.0815006 102.0155017
  57.1909987   3.0755006 105.1785017  58.1479987   3.0755006 105.1785017
  56.9509987   4.0025006 105.1785017  71.9619987  18.0745006 107.1225017
  72.9189987  18.0745006 107.1225017  71.7219987  19.0015006 107.1225017
  57.1819987   1.8105006 113.4905017  58.1389987   1.8105006 113.4905017
  56.9419987   2.7375006 113.4905017  59.3939987  14.9825006 117.6475017
  60.3509987  14.9825006 117.6475017  59.1539987  15.9095006 117.6475017
  62.3049987  15.9785006 113.9225017  63.2619987  15.9785006 113.9225017
  62.0649987  16.9055006 113.9225017  66.6249987  17.4035006 116.8375017
  67.5819987  17.4035006 116.8375017  66.3849987  18.3305006 116.8375017
  68.9229987  18.6735006 116.1265017  69.8799987  18.6735006 116.1265017
  68.6829987  19.6005006 116.1265017  74.0089987   1.4265006 115.1815017
  74.9659987   1.4265006 115.1815017  73.7689987   2.3535006 115.1815017
  59.7309987  19.2245006 113.9305017  60.6879987  19.2245006 113.9305017
  59.4909987  20.1515006 113.9305017  62.2009987  18.8075006 112.9935017
  63.1579987  18.8075006 112.9935017  61.9609987  19.7345006 112.9935017
  66.9029987  18.7155006 112.1615017  67.8599987  18.7155006 112.1615017
  66.6629987  19.6425006 112.1615017  69.2099987  17.5465006 113.1595017
  70.1669987  17.5465006 113.1595017  68.9699987  18.4735006 113.1595017
  71.7899987  19.1125006 113.4175017  72.7469987  19.1125006 113.4175017
  71.5499987  20.0395006 113.4175017  59.1659987  17.8735006 110.8605017
  60.1229987  17.8735006 110.8605017  58.9259987  18.8005006 110.8605017
  61.2599987  16.5855006 109.5155017  62.2169987  16.5855006 109.5155017
  61.0199987  17.5125006 109.5155017  63.8499987  17.0685006 110.3845017
  64.8069987  17.0685006 110.3845017  63.6099987  17.9955006 110.3845017
  67.3139987   2.7425006 109.5205017  68.2709987   2.7425006 109.5205017
  67.0739987   3.6695006 109.5205017  72.5339987   1.0815006 109.7795017
  73.4909987   1.0815006 109.7795017  72.2939987   2.0085006 109.7795017
  74.1669987   1.9915006 107.8965017  75.1239987   1.9915006 107.8965017
  73.9269987   2.9185006 107.8965017  59.6269987   1.3215006 107.3745017
  60.5839987   1.3215006 107.3745017  59.3869987   2.2485006 107.3745017
  58.7499987   1.5295006 103.5125017  59.7069987   1.5295006 103.5125017
  58.5099987   2.4565006 103.5125017  64.1959987   1.3125006 107.1445017
  65.1529987   1.3125006 107.1445017  63.9559987   2.2395006 107.1445017
  69.7949987   1.3245006 108.8005017  70.7519987   1.3245006 108.8005017
  69.5549987   2.2515006 108.8005017  71.1509987   1.3525006 104.5285017
  72.1079987   1.3525006 104.5285017  70.9109987   2.2795006 104.5285017
  58.3779987  17.0765006 104.1005017  59.3349987  17.0765006 104.1005017
  58.1379987  18.0035006 104.1005017  65.3169987   3.3105006 104.0125017
  66.2739987   3.3105006 104.0125017  65.0769987   4.2375006 104.0125017
  67.2479987  18.3445006 102.4375017  68.2049987  18.3445006 102.4375017
  67.0079987  19.2715006 102.4375017  73.9859987  17.8725006 105.1295017
  74.9429987  17.8725006 105.1295017  73.7459987  18.7995006 105.1295017
  59.5559987   1.9035006 116.8885017  60.5129987   1.9035006 116.8885017
  59.3159987   2.8305006 116.8885017  61.5819987   1.2435006 118.4315017
  62.5389987   1.2435006 118.4315017  61.3419987   2.1705006 118.4315017
  70.0609987 108.3825006 118.4655017  71.0179987 108.3825006 118.4655017
  69.8209987 109.3095006 118.4655017  73.1939987  16.6005006 117.2615017
  74.1509987  16.6005006 117.2615017  72.9539987  17.5275006 117.2615017
  87.6179987  10.4655006 107.2575017  88.5749987  10.4655006 107.2575017
  87.3779987  11.3925006 107.2575017  86.4929987   9.7485006 110.7295017
  87.4499987   9.7485006 110.7295017  86.2529987  10.6755006 110.7295017
  78.8449987   9.4165006 112.2835017  79.8019987   9.4165006 112.2835017
  78.6049987  10.3435006 112.2835017  90.1959987  12.6885006 109.0115017
  91.1529987  12.6885006 109.0115017  89.9559987  13.6155006 109.0115017
  79.7699987  13.8425006 110.8005017  80.7269987  13.8425006 110.8005017
  79.5299987  14.7695006 110.8005017  76.4149987   7.4195006 106.2855017
  77.3719987   7.4195006 106.2855017  76.1749987   8.3465006 106.2855017
  77.1009987   9.4785006 108.2745017  78.0579987   9.4785006 108.2745017
  76.8609987  10.4055006 108.2745017  87.2349987  17.7535006 109.1705017
  88.1919987  17.7535006 109.1705017  86.9949987  18.6805006 109.1705017
  84.8719987  12.1555006 111.1795017  85.8289987  12.1555006 111.1795017
  84.6319987  13.0825006 111.1795017  93.5039987   3.7595006 111.9395017
  94.4609987   3.7595006 111.9395017  93.2639987   4.6865006 111.9395017
  88.0389987   6.5985006 111.5055017  88.9959987   6.5985006 111.5055017
  87.7989987   7.5255006 111.5055017  81.1679987   4.6975006 108.7305017
  82.1249987   4.6975006 108.7305017  80.9279987   5.6245006 108.7305017
  88.8869987   4.7765006 107.0495017  89.8439987   4.7765006 107.0495017
  88.6469987   5.7035006 107.0495017  77.7949987   7.1295006 109.4825017
  78.7519987   7.1295006 109.4825017  77.5549987   8.0565006 109.4825017
  82.9479987   8.6595006 108.7605017  83.9049987   8.6595006 108.7605017
  82.7079987   9.5865006 108.7605017  93.9349987   5.2215006 114.2025017
  94.8919987   5.2215006 114.2025017  93.6949987   6.1485006 114.2025017
  80.0609987   3.6045006 112.7895017  81.0179987   3.6045006 112.7895017
  79.8209987   4.5315006 112.7895017  87.3449987  13.0765006 106.3375017
  88.3019987  13.0765006 106.3375017  87.1049987  14.0035006 106.3375017
  82.5759987  11.2425006 113.0365017  83.5329987  11.2425006 113.0365017
  82.3359987  12.1695006 113.0365017  90.6709987   4.1145006 109.0725017
  91.6279987   4.1145006 109.0725017  90.4309987   5.0415006 109.0725017
  79.6059987   5.4795006 110.7835017  80.5629987   5.4795006 110.7835017
  79.3659987   6.4065006 110.7835017  81.0249987  13.2435006 113.8705017
  81.9819987  13.2435006 113.8705017  80.7849987  14.1705006 113.8705017
  77.0869987  12.8705006 104.6365017  78.0439987  12.8705006 104.6365017
  76.8469987  13.7975006 104.6365017  90.7229987  14.5165006 111.3805017
  91.6799987  14.5165006 111.3805017  90.4829987  15.4435006 111.3805017
  91.0629987   2.8045006 112.8425017  92.0199987   2.8045006 112.8425017
  90.8229987   3.7315006 112.8425017  83.9859987   0.9645006 110.1025017
  84.9429987   0.9645006 110.1025017  83.7459987   1.8915006 110.1025017
  88.9799987  16.2945006 108.0005017  89.9369987  16.2945006 108.0005017
  88.7399987  17.2215006 108.0005017  90.1849987  14.2465006 106.4905017
  91.1419987  14.2465006 106.4905017  89.9449987  15.1735006 106.4905017
  91.8089987  12.8155006 114.9885017  92.7659987  12.8155006 114.9885017
  91.5689987  13.7425006 114.9885017  86.2929987   9.6765006 104.7125017
  87.2499987   9.6765006 104.7125017  86.0529987  10.6035006 104.7125017
  93.6839987   9.1305006 113.0425017  94.6409987   9.1305006 113.0425017
  93.4439987  10.0575006 113.0425017  89.7009987   9.9025006 105.6605017
  90.6579987   9.9025006 105.6605017  89.4609987  10.8295006 105.6605017
  89.6589987   8.0955006 114.7905017  90.6159987   8.0955006 114.7905017
  89.4189987   9.0225006 114.7905017  81.3199987  10.5885006 107.6095017
  82.2769987  10.5885006 107.6095017  81.0799987  11.5155006 107.6095017
  82.6819987  13.9925006 110.2765017  83.6389987  13.9925006 110.2765017
  82.4419987  14.9195006 110.2765017  81.6669987   9.3615006 111.2245017
  82.6239987   9.3615006 111.2245017  81.4269987  10.2885006 111.2245017
  88.0749987  14.8925006 111.9445017  89.0319987  14.8925006 111.9445017
  87.8349987  15.8195006 111.9445017  82.6079987  13.7565006 115.9715017
  83.5649987  13.7565006 115.9715017  82.3679987  14.6835006 115.9715017
  79.5629987   9.9285006 115.1195017  80.5199987   9.9285006 115.1195017
  79.3229987  10.8555006 115.1195017  86.3359987  15.8605006 106.8145017
  87.2929987  15.8605006 106.8145017  86.0959987  16.7875006 106.8145017
  80.6579987  15.9695006 116.5065017  81.6149987  15.9695006 116.5065017
  80.4179987  16.8965006 116.5065017  92.3619987   0.9115006 103.2115017
  93.3189987   0.9115006 103.2115017  92.1219987   1.8385006 103.2115017
  80.3149987   9.6365006 105.2245017  81.2719987   9.6365006 105.2245017
  80.0749987  10.5635006 105.2245017  76.4399987  12.0415006 114.0545017
  77.3969987  12.0415006 114.0545017  76.1999987  12.9685006 114.0545017
  76.1919987  14.7595006 110.8555017  77.1489987  14.7595006 110.8555017
  75.9519987  15.6865006 110.8555017  94.4149987  15.4785006 116.5615017
  95.3719987  15.4785006 116.5615017  94.1749987  16.4055006 116.5615017
  85.3599987  15.0185006 115.4115017  86.3169987  15.0185006 115.4115017
  85.1199987  15.9455006 115.4115017  85.8149987  18.7835006 105.2195017
  86.7719987  18.7835006 105.2195017  85.5749987  19.7105006 105.2195017
  79.4379987  17.6445006 107.0505017  80.3949987  17.6445006 107.0505017
  79.1979987  18.5715006 107.0505017  88.5529987  17.9185006 104.9605017
  89.5099987  17.9185006 104.9605017  88.3129987  18.8455006 104.9605017
  91.5379987   6.9555006 117.0605017  92.4949987   6.9555006 117.0605017
  91.2979987   7.8825006 117.0605017  78.6989987  13.3685006 115.0515017
  79.6559987  13.3685006 115.0515017  78.4589987  14.2955006 115.0515017
  81.4549987   1.9225006 110.9355017  82.4119987   1.9225006 110.9355017
  81.2149987   2.8495006 110.9355017  86.0319987   1.5595006 114.4145017
  86.9889987   1.5595006 114.4145017  85.7919987   2.4865006 114.4145017
  89.3039987   5.2985006 115.2495017  90.2609987   5.2985006 115.2495017
  89.0639987   6.2255006 115.2495017  85.6699987   4.0485006 101.7475017
  86.6269987   4.0485006 101.7475017  85.4299987   4.9755006 101.7475017
  81.4629987   6.7915006 112.2125017  82.4199987   6.7915006 112.2125017
  81.2229987   7.7185006 112.2125017  81.4239987   6.9485006 107.0925017
  82.3809987   6.9485006 107.0925017  81.1839987   7.8755006 107.0925017
  86.9169987   7.4345006 105.8605017  87.8739987   7.4345006 105.8605017
  86.6769987   8.3615006 105.8605017  86.0269987   7.6245006 117.3255017
  86.9839987   7.6245006 117.3255017  85.7869987   8.5515006 117.3255017
  87.9749987   6.9015006 108.6985017  88.9319987   6.9015006 108.6985017
  87.7349987   7.8285006 108.6985017  79.1099987   7.0755006 113.9415017
  80.0669987   7.0755006 113.9415017  78.8699987   8.0025006 113.9415017
  75.7409987   4.2075006 107.8775017  76.6979987   4.2075006 107.8775017
  75.5009987   5.1345006 107.8775017  77.0089987   4.9285006 103.2735017
  77.9659987   4.9285006 103.2735017  76.7689987   5.8555006 103.2735017
  87.1939987   8.5035006 113.2975017  88.1509987   8.5035006 113.2975017
  86.9539987   9.4305006 113.2975017  84.0089987   4.4855006 108.1045017
  84.9659987   4.4855006 108.1045017  83.7689987   5.4125006 108.1045017
  78.8079987   6.0445006 106.9925017  79.7649987   6.0445006 106.9925017
  78.5679987   6.9715006 106.9925017  82.4619987   6.0635006 104.6115017
  83.4189987   6.0635006 104.6115017  82.2219987   6.9905006 104.6115017
  88.4049987   3.6745006 111.3575017  89.3619987   3.6745006 111.3575017
  88.1649987   4.6015006 111.3575017  81.1469987   7.2825006 102.2315017
  82.1039987   7.2825006 102.2315017  80.9069987   8.2095006 102.2315017
  91.6669987  19.3205006 117.6705017  92.6239987  19.3205006 117.6705017
  91.4269987  20.2475006 117.6705017  79.2859987  11.8695006 117.2455017
  80.2429987  11.8695006 117.2455017  79.0459987  12.7965006 117.2455017
  85.2759987   7.2325006 110.0175017  86.2329987   7.2325006 110.0175017
  85.0359987   8.1595006 110.0175017  80.2819987   3.3625006 106.4655017
  81.2389987   3.3625006 106.4655017  80.0419987   4.2895006 106.4655017
  83.9169987   5.5765006 112.4105017  84.8739987   5.5765006 112.4105017
  83.6769987   6.5035006 112.4105017  84.5149987  11.7535006 104.1085017
  85.4719987  11.7535006 104.1085017  84.2749987  12.6805006 104.1085017
  91.6669987  10.9665006 112.9195017  92.6239987  10.9665006 112.9195017
  91.4269987  11.8935006 112.9195017  88.3269987   4.6135006 102.4405017
  89.2839987   4.6135006 102.4405017  88.0869987   5.5405006 102.4405017
  85.9759987  12.0175006 115.3405017  86.9329987  12.0175006 115.3405017
  85.7359987  12.9445006 115.3405017  89.2559987   6.7535006 103.8685017
  90.2129987   6.7535006 103.8685017  89.0159987   7.6805006 103.8685017
  79.5429987  11.1295006 109.8615017  80.4999987  11.1295006 109.8615017
  79.3029987  12.0565006 109.8615017  86.6009987  13.2435006 103.1645017
  87.5579987  13.2435006 103.1645017  86.3609987  14.1705006 103.1645017
  76.5999987   9.5815006 115.1875017  77.5569987   9.5815006 115.1875017
  76.3599987  10.5085006 115.1875017  83.6149987   9.1315006 117.3795017
  84.5719987   9.1315006 117.3795017  83.3749987  10.0585006 117.3795017
  88.2859987  14.4675006 115.2885017  89.2429987  14.4675006 115.2885017
  88.0459987  15.3945006 115.2885017  93.9709987   6.6685006 103.6795017
  94.9279987   6.6685006 103.6795017  93.7309987   7.5955006 103.6795017
  93.9569987  12.5065006 116.5115017  94.9139987  12.5065006 116.5115017
  93.7169987  13.4335006 116.5115017  92.2769987  15.4855006 104.1025017
  93.2339987  15.4855006 104.1025017  92.0369987  16.4125006 104.1025017
  89.4579987  10.3025006 111.1925017  90.4149987  10.3025006 111.1925017
  89.2179987  11.2295006 111.1925017  81.9799987  14.6265006 107.2975017
  82.9369987  14.6265006 107.2975017  81.7399987  15.5535006 107.2975017
  77.7599987   9.4135006 101.9085017  78.7169987   9.4135006 101.9085017
  77.5199987  10.3405006 101.9085017  83.4189987  12.2845006 106.8405017
  84.3759987  12.2845006 106.8405017  83.1789987  13.2115006 106.8405017
  83.8409987  16.4615006 113.2415017  84.7979987  16.4615006 113.2415017
  83.6009987  17.3885006 113.2415017  82.0899987  17.3145006 106.3215017
  83.0469987  17.3145006 106.3215017  81.8499987  18.2415006 106.3215017
  87.4029987  12.5025006 112.8585017  88.3599987  12.5025006 112.8585017
  87.1629987  13.4295006 112.8585017  90.1779987  17.0545006 115.3645017
  91.1349987  17.0545006 115.3645017  89.9379987  17.9815006 115.3645017
  94.1879987  17.9325006 102.1985017  95.1449987  17.9325006 102.1985017
  93.9479987  18.8595006 102.1985017  78.2559987   4.3045006 114.7595017
  79.2129987   4.3045006 114.7595017  78.0159987   5.2315006 114.7595017
  90.5109987  12.1655006 104.2015017  91.4679987  12.1655006 104.2015017
  90.2709987  13.0925006 104.2015017  77.8679987  16.1125006 113.1595017
  78.8249987  16.1125006 113.1595017  77.6279987  17.0395006 113.1595017
  79.1799987  11.3845006 103.3985017  80.1369987  11.3845006 103.3985017
  78.9399987  12.3115006 103.3985017  86.9779987   4.0825006 113.6685017
  87.9349987   4.0825006 113.6685017  86.7379987   5.0095006 113.6685017
  87.8649987   3.1355006 104.8135017  88.8219987   3.1355006 104.8135017
  87.6249987   4.0625006 104.8135017  85.4479987  15.8645006 103.6085017
  86.4049987  15.8645006 103.6085017  85.2079987  16.7915006 103.6085017
  85.0189987   5.3885006 105.5755017  85.9759987   5.3885006 105.5755017
  84.7789987   6.3155006 105.5755017  85.5079987   6.4285006 114.7755017
  86.4649987   6.4285006 114.7755017  85.2679987   7.3555006 114.7755017
  85.7989987   2.5005006 106.5145017  86.7559987   2.5005006 106.5145017
  85.5589987   3.4275006 106.5145017  82.8269987  16.9195006 103.5905017
  83.7839987  16.9195006 103.5905017  82.5869987  17.8465006 103.5905017
  81.4659987   3.5995006 103.2525017  82.4229987   3.5995006 103.2525017
  81.2259987   4.5265006 103.2525017  91.6989987   4.3295006 115.6145017
  92.6559987   4.3295006 115.6145017  91.4589987   5.2565006 115.6145017
  90.3009987   8.0965006 109.6665017  91.2579987   8.0965006 109.6665017
  90.0609987   9.0235006 109.6665017  78.0809987   6.6665006 101.3215017
  79.0379987   6.6665006 101.3215017  77.8409987   7.5935006 101.3215017
  91.3569987  17.3395006 111.3155017  92.3139987  17.3395006 111.3155017
  91.1169987  18.2665006 111.3155017  78.6379987   1.6725006 109.9735017
  79.5949987   1.6725006 109.9735017  78.3979987   2.5995006 109.9735017
  77.7949987  15.3795006 106.2505017  78.7519987  15.3795006 106.2505017
  77.5549987  16.3065006 106.2505017  77.0539987  18.0325006 117.5325017
  78.0109987  18.0325006 117.5325017  76.8139987  18.9595006 117.5325017
  81.6329987  17.2945006 119.3805017  82.5899987  17.2945006 119.3805017
  81.3929987  18.2215006 119.3805017  88.2789987  15.2735006 117.8295017
  89.2359987  15.2735006 117.8295017  88.0389987  16.2005006 117.8295017
  76.9599987  11.8215006 118.5315017  77.9169987  11.8215006 118.5315017
  76.7199987  12.7485006 118.5315017  83.6269987  11.8265006 117.9335017
  84.5839987  11.8265006 117.9335017  83.3869987  12.7535006 117.9335017
  89.3599987  11.6745006 115.3175017  90.3169987  11.6745006 115.3175017
  89.1199987  12.6015006 115.3175017  77.8519987   9.0435006 117.9195017
  78.8089987   9.0435006 117.9195017  77.6119987   9.9705006 117.9195017
  82.5319987  10.1585006 102.9625017  83.4889987  10.1585006 102.9625017
  82.2919987  11.0855006 102.9625017  81.7619987   7.9985006 115.2855017
  82.7189987   7.9985006 115.2855017  81.5219987   8.9255006 115.2855017
  86.8169987  10.5325006 118.5875017  87.7739987  10.5325006 118.5875017
  86.5769987  11.4595006 118.5875017  92.9579987  10.7865006 100.6345017
  93.9149987  10.7865006 100.6345017  92.7179987  11.7135006 100.6345017
  82.1479987   5.3675006 116.3495017  83.1049987   5.3675006 116.3495017
  81.9079987   6.2945006 116.3495017  82.5659987   3.7405006 113.8815017
  83.5229987   3.7405006 113.8815017  82.3259987   4.6675006 113.8815017
  84.1039987   9.2175006 114.1315017  85.0609987   9.2175006 114.1315017
  83.8639987  10.1445006 114.1315017  88.5139987   6.9965006 119.1425017
  89.4709987   6.9965006 119.1425017  88.2739987   7.9235006 119.1425017
  89.8369987   9.7875006 117.2705017  90.7939987   9.7875006 117.2705017
  89.5969987  10.7145006 117.2705017  80.6119987   6.6175006 118.2675017
  81.5689987   6.6175006 118.2675017  80.3719987   7.5445006 118.2675017
  83.4279987   1.2295006 114.1615017  84.3849987   1.2295006 114.1615017
  83.1879987   2.1565006 114.1615017  84.6159987   5.5205006 117.8865017
  85.5729987   5.5205006 117.8865017  84.3759987   6.4475006 117.8865017
  87.3339987   4.6875006 116.9815017  88.2909987   4.6875006 116.9815017
  87.0939987   5.6145006 116.9815017  88.9779987   3.3135006 118.9255017
  89.9349987   3.3135006 118.9255017  88.7379987   4.2405006 118.9255017
  78.7069987   4.5265006 118.0095017  79.6639987   4.5265006 118.0095017
  78.4669987   5.4535006 118.0095017  84.1399987 108.5295006 117.0355017
  85.0969987 108.5295006 117.0355017  83.8999987 109.4565006 117.0355017
  83.9099987   2.2555006 119.1255017  84.8669987   2.2555006 119.1255017
  83.6699987   3.1825006 119.1255017  76.9899987  13.6945006 101.7525017
  77.9469987  13.6945006 101.7525017  76.7499987  14.6215006 101.7525017
  75.7269987  19.0675006 106.7065017  76.6839987  19.0675006 106.7065017
  75.4869987  19.9945006 106.7065017  76.5639987  17.1775006 108.5725017
  77.5209987  17.1775006 108.5725017  76.3239987  18.1045006 108.5725017
  94.0849987  17.9915006 111.5165017  95.0419987  17.9915006 111.5165017
  93.8449987  18.9185006 111.5165017  93.6639987  17.5885006 114.4595017
  94.6209987  17.5885006 114.4595017  93.4239987  18.5155006 114.4595017
  92.1119987  13.3055006 119.1145017  93.0689987  13.3055006 119.1145017
  91.8719987  14.2325006 119.1145017  93.4399987  11.5975006 104.5465017
  94.3969987  11.5975006 104.5465017  93.1999987  12.5245006 104.5465017
  93.8059987   9.7125006 106.4305017  94.7629987   9.7125006 106.4305017
  93.5659987  10.6395006 106.4305017  93.5439987  12.4185006 111.4205017
  94.5009987  12.4185006 111.4205017  93.3039987  13.3455006 111.4205017
  92.0899987  15.3155006 113.7015017  93.0469987  15.3155006 113.7015017
  91.8499987  16.2425006 113.7015017  94.1009987   9.5475006 102.8165017
  95.0579987   9.5475006 102.8165017  93.8609987  10.4745006 102.8165017
  91.5749987   8.1835006 106.9875017  92.5319987   8.1835006 106.9875017
  91.3349987   9.1105006 106.9875017  76.6199987  10.2835006 111.0855017
  77.5769987  10.2835006 111.0855017  76.3799987  11.2105006 111.0855017
  92.4519987  10.1595006 116.6775017  93.4089987  10.1595006 116.6775017
  92.2119987  11.0865006 116.6775017  93.9519987   8.0435006 117.3765017
  94.9089987   8.0435006 117.3765017  93.7119987   8.9705006 117.3765017
  91.2529987   5.7625006 105.4215017  92.2099987   5.7625006 105.4215017
  91.0129987   6.6895006 105.4215017  91.9029987   6.3255006 110.8995017
  92.8599987   6.3255006 110.8995017  91.6629987   7.2525006 110.8995017
  91.9679987   7.0555006 113.6885017  92.9249987   7.0555006 113.6885017
  91.7279987   7.9825006 113.6885017  76.2249987   5.5765006 117.2005017
  77.1819987   5.5765006 117.2005017  75.9849987   6.5035006 117.2005017
  94.1749987   1.1855006 118.9835017  95.1319987   1.1855006 118.9835017
  93.9349987   2.1125006 118.9835017  91.9059987   3.0735006 105.5045017
  92.8629987   3.0735006 105.5045017  91.6659987   4.0005006 105.5045017
  77.3949987   3.8915006 110.0705017  78.3519987   3.8915006 110.0705017
  77.1549987   4.8185006 110.0705017  75.7049987   6.8645006 111.1015017
  76.6619987   6.8645006 111.1015017  75.4649987   7.7915006 111.1015017
  93.7619987   3.2095006 117.3845017  94.7189987   3.2095006 117.3845017
  93.5219987   4.1365006 117.3845017  76.0529987   3.1195006 105.2315017
  77.0099987   3.1195006 105.2315017  75.8129987   4.0465006 105.2315017
  90.8129987  18.0845006 107.0985017  91.7699987  18.0845006 107.0985017
  90.5729987  19.0115006 107.0985017  76.0339987   1.8225006 113.4905017
  76.9909987   1.8225006 113.4905017  75.7939987   2.7495006 113.4905017
  78.2709987  14.9965006 117.6595017  79.2279987  14.9965006 117.6595017
  78.0309987  15.9235006 117.6595017  81.1689987  15.9775006 113.9235017
  82.1259987  15.9775006 113.9235017  80.9289987  16.9045006 113.9235017
  85.4709987  17.3895006 116.8175017  86.4279987  17.3895006 116.8175017
  85.2309987  18.3165006 116.8175017  87.7839987  18.6855006 116.1205017
  88.7409987  18.6855006 116.1205017  87.5439987  19.6125006 116.1205017
  92.8649987   1.4265006 115.1835017  93.8219987   1.4265006 115.1835017
  92.6249987   2.3535006 115.1835017  78.5839987  19.2285006 113.9305017
  79.5409987  19.2285006 113.9305017  78.3439987  20.1555006 113.9305017
  81.0549987  18.8055006 112.9915017  82.0119987  18.8055006 112.9915017
  80.8149987  19.7325006 112.9915017  85.3189987  18.6265006 112.3435017
  86.2759987  18.6265006 112.3435017  85.0789987  19.5535006 112.3435017
  88.0449987  17.4595006 113.2815017  89.0019987  17.4595006 113.2815017
  87.8049987  18.3865006 113.2815017  90.6999987  19.1075006 113.4355017
  91.6569987  19.1075006 113.4355017  90.4599987  20.0345006 113.4355017
  78.0249987  17.8725006 110.8675017  78.9819987  17.8725006 110.8675017
  77.7849987  18.7995006 110.8675017  80.1099987  16.5775006 109.5105017
  81.0669987  16.5775006 109.5105017  79.8699987  17.5045006 109.5105017
  82.6709987  17.0545006 110.3835017  83.6279987  17.0545006 110.3835017
  82.4309987  17.9815006 110.3835017  86.1649987   2.7565006 109.4905017
  87.1219987   2.7565006 109.4905017  85.9249987   3.6835006 109.4905017
  91.3869987   1.0825006 109.7795017  92.3439987   1.0825006 109.7795017
  91.1469987   2.0095006 109.7795017  93.0209987   1.9835006 107.9015017
  93.9779987   1.9835006 107.9015017  92.7809987   2.9105006 107.9015017
  78.4829987   1.3205006 107.3765017  79.4399987   1.3205006 107.3765017
  78.2429987   2.2475006 107.3765017  77.5689987   1.5745006 103.5495017
  78.5259987   1.5745006 103.5495017  77.3289987   2.5015006 103.5495017
  83.0489987   1.3025006 107.1485017  84.0059987   1.3025006 107.1485017
  82.8089987   2.2295006 107.1485017  88.6379987   1.3375006 108.7805017
  89.5949987   1.3375006 108.7805017  88.3979987   2.2645006 108.7805017
  89.9939987   1.3505006 104.5345017  90.9509987   1.3505006 104.5345017
  89.7539987   2.2775006 104.5345017  77.2329987  17.0785006 104.0945017
  78.1899987  17.0785006 104.0945017  76.9929987  18.0055006 104.0945017
  84.2489987   3.3515006 104.0175017  85.2059987   3.3515006 104.0175017
  84.0089987   4.2785006 104.0175017  92.7899987  17.8775006 105.1555017
  93.7469987  17.8775006 105.1555017  92.5499987  18.8045006 105.1555017
  78.4109987   1.8975006 116.8905017  79.3679987   1.8975006 116.8905017
  78.1709987   2.8245006 116.8905017  80.4419987   1.2555006 118.4385017
  81.3989987   1.2555006 118.4385017  80.2019987   2.1825006 118.4385017
  79.0789987  18.0555006 101.0815017  80.0359987  18.0555006 101.0815017
  78.8389987  18.9825006 101.0815017  88.9179987 108.3845006 118.4665017
  89.8749987 108.3845006 118.4665017  88.6779987 109.3115006 118.4665017
  92.0669987  16.6025006 117.2415017  93.0239987  16.6025006 117.2415017
  91.8269987  17.5295006 117.2415017 106.4589987  10.4595006 107.2475017
 107.4159987  10.4595006 107.2475017 106.2189987  11.3865006 107.2475017
 105.2809987   9.7635006 110.7485017 106.2379987   9.7635006 110.7485017
 105.0409987  10.6905006 110.7485017  97.7079987   9.4015006 112.2905017
  98.6649987   9.4015006 112.2905017  97.4679987  10.3285006 112.2905017
  98.6349987  13.8525006 110.8125017  99.5919987  13.8525006 110.8125017
  98.3949987  14.7795006 110.8125017  95.2979987   7.4515006 106.2245017
  96.2549987   7.4515006 106.2245017  95.0579987   8.3785006 106.2245017
  95.9759987   9.6505006 108.3865017  96.9329987   9.6505006 108.3865017
  95.7359987  10.5775006 108.3865017 106.1829987  17.8025006 109.2305017
 107.1399987  17.8025006 109.2305017 105.9429987  18.7295006 109.2305017
 103.7009987  12.1435006 111.1715017 104.6579987  12.1435006 111.1715017
 103.4609987  13.0705006 111.1715017 106.2249987   6.3615006 111.4635017
 107.1819987   6.3615006 111.4635017 105.9849987   7.2885006 111.4635017
 100.0199987   4.7005006 108.7275017 100.9769987   4.7005006 108.7275017
  99.7799987   5.6275006 108.7275017 107.7289987   5.2685006 106.7255017
 108.6859987   5.2685006 106.7255017 107.4889987   6.1955006 106.7255017
  96.6369987   7.1105006 109.4815017  97.5939987   7.1105006 109.4815017
  96.3969987   8.0375006 109.4815017 101.7879987   8.6595006 108.7685017
 102.7449987   8.6595006 108.7685017 101.5479987   9.5865006 108.7685017
  98.9169987   3.6035006 112.7895017  99.8739987   3.6035006 112.7895017
  98.6769987   4.5305006 112.7895017 106.2159987  13.0795006 106.3385017
 107.1729987  13.0795006 106.3385017 105.9759987  14.0065006 106.3385017
 101.4369987  11.2425006 113.0385017 102.3939987  11.2425006 113.0385017
 101.1969987  12.1695006 113.0385017  98.4629987   5.4795006 110.7825017
  99.4199987   5.4795006 110.7825017  98.2229987   6.4065006 110.7825017
  99.8689987  13.2325006 113.8455017 100.8259987  13.2325006 113.8455017
  99.6289987  14.1595006 113.8455017 102.8419987   0.9725006 110.1165017
 103.7989987   0.9725006 110.1165017 102.6019987   1.8995006 110.1165017
 107.5059987  16.1315006 107.5805017 108.4629987  16.1315006 107.5805017
 107.2659987  17.0585006 107.5805017 105.1329987   9.7425006 104.7485017
 106.0899987   9.7425006 104.7485017 104.8929987  10.6695006 104.7485017
 100.2129987  10.6045006 107.5815017 101.1699987  10.6045006 107.5815017
  99.9729987  11.5315006 107.5815017 101.5389987  13.9925006 110.2725017
 102.4959987  13.9925006 110.2725017 101.2989987  14.9195006 110.2725017
 100.5469987   9.3385006 111.2405017 101.5039987   9.3385006 111.2405017
 100.3069987  10.2655006 111.2405017 106.5299987  14.9235006 111.9935017
 107.4869987  14.9235006 111.9935017 106.2899987  15.8505006 111.9935017
 101.5009987  13.7715006 115.9465017 102.4579987  13.7715006 115.9465017
 101.2609987  14.6985006 115.9465017 107.4599987   9.1035006 103.3615017
 108.4169987   9.1035006 103.3615017 107.2199987  10.0305006 103.3615017
  98.4199987   9.9275006 115.1195017  99.3769987   9.9275006 115.1195017
  98.1799987  10.8545006 115.1195017 105.0979987  15.8505006 106.7795017
 106.0549987  15.8505006 106.7795017 104.8579987  16.7775006 106.7795017
  99.7259987  15.8095006 116.6965017 100.6829987  15.8095006 116.6965017
  99.4859987  16.7365006 116.6965017  99.1939987   9.6255006 105.1705017
 100.1509987   9.6255006 105.1705017  98.9539987  10.5525006 105.1705017
  95.2779987  12.0435006 114.0705017  96.2349987  12.0435006 114.0705017
  95.0379987  12.9705006 114.0705017  95.0309987  14.7865006 110.8735017
  95.9879987  14.7865006 110.8735017  94.7909987  15.7135006 110.8735017
 104.2689987  14.9955006 115.5245017 105.2259987  14.9955006 115.5245017
 104.0289987  15.9225006 115.5245017 104.6539987  18.7685006 105.2185017
 105.6109987  18.7685006 105.2185017 104.4139987  19.6955006 105.2185017
  98.2999987  17.6385006 107.0445017  99.2569987  17.6385006 107.0445017
  98.0599987  18.5655006 107.0445017 107.2309987  17.7535006 104.8225017
 108.1879987  17.7535006 104.8225017 106.9909987  18.6805006 104.8225017
  97.5479987  13.3585006 115.0365017  98.5049987  13.3585006 115.0365017
  97.3079987  14.2855006 115.0365017 100.3099987   1.9225006 110.9355017
 101.2669987   1.9225006 110.9355017 100.0699987   2.8495006 110.9355017
 104.9219987   1.5335006 114.4235017 105.8789987   1.5335006 114.4235017
 104.6819987   2.4605006 114.4235017 100.3059987   6.7885006 112.2105017
 101.2629987   6.7885006 112.2105017 100.0659987   7.7155006 112.2105017
 100.2799987   6.9455006 107.0915017 101.2369987   6.9455006 107.0915017
 100.0399987   7.8725006 107.0915017 105.7839987   7.4335006 105.8795017
 106.7409987   7.4335006 105.8795017 105.5439987   8.3605006 105.8795017
 104.8979987   7.6505006 117.3555017 105.8549987   7.6505006 117.3555017
 104.6579987   8.5775006 117.3555017 106.7789987   6.8885006 108.7055017
 107.7359987   6.8885006 108.7055017 106.5389987   7.8155006 108.7055017
  97.9659987   7.0735006 113.9435017  98.9229987   7.0735006 113.9435017
  97.7259987   8.0005006 113.9435017 101.3309987   4.4845006 100.8055017
 102.2879987   4.4845006 100.8055017 101.0909987   5.4115006 100.8055017
  94.6019987   4.2025006 107.8665017  95.5589987   4.2025006 107.8665017
  94.3619987   5.1295006 107.8665017 106.0439987   8.5005006 113.3165017
 107.0009987   8.5005006 113.3165017 105.8039987   9.4275006 113.3165017
 102.8529987   4.4665006 108.1125017 103.8099987   4.4665006 108.1125017
 102.6129987   5.3935006 108.1125017  97.6559987   6.0395006 106.9695017
  98.6129987   6.0395006 106.9695017  97.4159987   6.9665006 106.9695017
 101.2679987   6.1115006 104.6675017 102.2249987   6.1115006 104.6675017
 101.0279987   7.0385006 104.6675017 107.2349987   3.6515006 111.3925017
 108.1919987   3.6515006 111.3925017 106.9949987   4.5785006 111.3925017
  99.9859987   7.2675006 102.1805017 100.9429987   7.2675006 102.1805017
  99.7459987   8.1945006 102.1805017  98.1359987  11.8155006 117.2485017
  99.0929987  11.8155006 117.2485017  97.8959987  12.7425006 117.2485017
 104.0959987   7.2205006 109.9635017 105.0529987   7.2205006 109.9635017
 103.8559987   8.1475006 109.9635017  99.1079987   3.3635006 106.3865017
 100.0649987   3.3635006 106.3865017  98.8679987   4.2905006 106.3865017
 102.7549987   5.5685006 112.4185017 103.7119987   5.5685006 112.4185017
 102.5149987   6.4955006 112.4185017 103.3359987  11.7975006 104.0965017
 104.2929987  11.7975006 104.0965017 103.0959987  12.7245006 104.0965017
 104.8619987  12.0175006 115.3635017 105.8189987  12.0175006 115.3635017
 104.6219987  12.9445006 115.3635017   0.2259987   6.4645006 103.9745017
   1.1829987   6.4645006 103.9745017  -0.0140013   7.3915006 103.9745017
  98.4699987  11.1575006 109.9225017  99.4269987  11.1575006 109.9225017
  98.2299987  12.0845006 109.9225017 105.4619987  13.2475006 103.1525017
 106.4189987  13.2475006 103.1525017 105.2219987  14.1745006 103.1525017
  95.4559987   9.5795006 115.1865017  96.4129987   9.5795006 115.1865017
  95.2159987  10.5065006 115.1865017 102.4719987   9.1345006 117.3745017
 103.4289987   9.1345006 117.3745017 102.2319987  10.0615006 117.3745017
 107.1219987  14.4725006 115.2185017 108.0789987  14.4725006 115.2185017
 106.8819987  15.3995006 115.2185017 100.8359987  14.6125006 107.2665017
 101.7929987  14.6125006 107.2665017 100.5959987  15.5395006 107.2665017
 102.2649987  12.2925006 106.8315017 103.2219987  12.2925006 106.8315017
 102.0249987  13.2195006 106.8315017 102.7029987  16.4675006 113.2085017
 103.6599987  16.4675006 113.2085017 102.4629987  17.3945006 113.2085017
 100.9439987  17.2905006 106.3735017 101.9009987  17.2905006 106.3735017
 100.7039987  18.2175006 106.3735017 106.2719987  12.4715006 112.8645017
 107.2289987  12.4715006 112.8645017 106.0319987  13.3985006 112.8645017
  97.1119987   4.3045006 114.7595017  98.0689987   4.3045006 114.7595017
  96.8719987   5.2315006 114.7595017  96.7269987  16.1115006 113.1635017
  97.6839987  16.1115006 113.1635017  96.4869987  17.0385006 113.1635017
 101.5179987  14.1485006 102.8665017 102.4749987  14.1485006 102.8665017
 101.2779987  15.0755006 102.8665017 105.8389987   4.0795006 113.6795017
 106.7959987   4.0795006 113.6795017 105.5989987   5.0065006 113.6795017
 106.3559987   3.8805006 104.7265017 107.3129987   3.8805006 104.7265017
 106.1159987   4.8075006 104.7265017 103.7829987   5.4315006 105.6015017
 104.7399987   5.4315006 105.6015017 103.5429987   6.3585006 105.6015017
 104.3359987   6.3895006 114.7905017 105.2929987   6.3895006 114.7905017
 104.0959987   7.3165006 114.7905017 104.7079987   2.4765006 106.5245017
 105.6649987   2.4765006 106.5245017 104.4679987   3.4035006 106.5245017
 101.6309987  16.8695006 103.6045017 102.5879987  16.8695006 103.6045017
 101.3909987  17.7965006 103.6045017  97.4909987   1.6725006 109.9725017
  98.4479987   1.6725006 109.9725017  97.2509987   2.5995006 109.9725017
  96.6839987  15.4015006 106.2605017  97.6409987  15.4015006 106.2605017
  96.4439987  16.3285006 106.2605017  95.8959987  18.0395006 117.5475017
  96.8529987  18.0395006 117.5475017  95.6559987  18.9665006 117.5475017
 100.5589987  16.9605006 119.1575017 101.5159987  16.9605006 119.1575017
 100.3189987  17.8875006 119.1575017 107.8259987  15.1695006 117.5905017
 108.7829987  15.1695006 117.5905017 107.5859987  16.0965006 117.5905017
  95.8139987  11.8225006 118.5335017  96.7709987  11.8225006 118.5335017
  95.5739987  12.7495006 118.5335017 102.5509987  11.8235006 117.9225017
 103.5079987  11.8235006 117.9225017 102.3109987  12.7505006 117.9225017
  96.7069987   9.0425006 117.9205017  97.6639987   9.0425006 117.9205017
  96.4669987   9.9695006 117.9205017 101.3629987  10.1485006 102.9685017
 102.3199987  10.1485006 102.9685017 101.1229987  11.0755006 102.9685017
 100.6189987   7.9985006 115.2855017 101.5759987   7.9985006 115.2855017
 100.3789987   8.9255006 115.2855017 105.6729987  10.5255006 118.6325017
 106.6299987  10.5255006 118.6325017 105.4329987  11.4525006 118.6325017
 101.0029987   5.3675006 116.3495017 101.9599987   5.3675006 116.3495017
 100.7629987   6.2945006 116.3495017 101.4159987   3.7385006 113.8895017
 102.3729987   3.7385006 113.8895017 101.1759987   4.6655006 113.8895017
 102.9789987   9.2185006 114.1335017 103.9359987   9.2185006 114.1335017
 102.7389987  10.1455006 114.1335017 107.3899987   7.0175006 119.2115017
 108.3469987   7.0175006 119.2115017 107.1499987   7.9445006 119.2115017
  99.4619987   6.6175006 118.2715017 100.4189987   6.6175006 118.2715017
  99.2219987   7.5445006 118.2715017 102.2949987   1.2365006 114.1545017
 103.2519987   1.2365006 114.1545017 102.0549987   2.1635006 114.1545017
 103.4659987   5.5205006 117.8905017 104.4229987   5.5205006 117.8905017
 103.2259987   6.4475006 117.8905017 106.1349987   4.6415006 116.9535017
 107.0919987   4.6415006 116.9535017 105.8949987   5.5685006 116.9535017
 107.8329987   3.3235006 118.9105017 108.7899987   3.3235006 118.9105017
 107.5929987   4.2505006 118.9105017  97.5639987   4.5255006 118.0085017
  98.5209987   4.5255006 118.0085017  97.3239987   5.4525006 118.0085017
 102.9959987 108.5315006 117.0355017 103.9529987 108.5315006 117.0355017
 102.7559987 109.4585006 117.0355017 102.7469987   2.2545006 119.1225017
 103.7039987   2.2545006 119.1225017 102.5069987   3.1815006 119.1225017
  94.5669987  19.0915006 106.7185017  95.5239987  19.0915006 106.7185017
  94.3269987  20.0185006 106.7185017  95.4089987  17.1905006 108.5595017
  96.3659987  17.1905006 108.5595017  95.1689987  18.1175006 108.5595017
  95.4639987  10.2705006 111.0565017  96.4209987  10.2705006 111.0565017
  95.2239987  11.1975006 111.0565017  95.0809987   5.5755006 117.1985017
  96.0379987   5.5755006 117.1985017  94.8409987   6.5025006 117.1985017
  96.2519987   3.8995006 110.0635017  97.2089987   3.8995006 110.0635017
  96.0119987   4.8265006 110.0635017  94.5679987   6.8515006 111.1145017
  95.5249987   6.8515006 111.1145017  94.3279987   7.7785006 111.1145017
  94.9369987   3.0885006 105.1755017  95.8939987   3.0885006 105.1755017
  94.6969987   4.0155006 105.1755017  94.8949987   1.8185006 113.4955017
  95.8519987   1.8185006 113.4955017  94.6549987   2.7455006 113.4955017
  97.1069987  14.9835006 117.6475017  98.0639987  14.9835006 117.6475017
  96.8669987  15.9105006 117.6475017 100.0199987  15.9795006 113.9235017
 100.9769987  15.9795006 113.9235017  99.7799987  16.9065006 113.9235017
 104.3629987  17.3565006 116.8465017 105.3199987  17.3565006 116.8465017
 104.1229987  18.2835006 116.8465017 106.6639987  18.6655006 116.1245017
 107.6209987  18.6655006 116.1245017 106.4239987  19.5925006 116.1245017
  97.4409987  19.2285006 113.9315017  98.3979987  19.2285006 113.9315017
  97.2009987  20.1555006 113.9315017  99.9189987  18.8025006 112.9985017
 100.8759987  18.8025006 112.9985017  99.6789987  19.7295006 112.9985017
 104.5969987  18.7155006 112.1665017 105.5539987  18.7155006 112.1665017
 104.3569987  19.6425006 112.1665017 106.9349987  17.5845006 113.1795017
 107.8919987  17.5845006 113.1795017 106.6949987  18.5115006 113.1795017
  96.8759987  17.8725006 110.8605017  97.8329987  17.8725006 110.8605017
  96.6359987  18.7995006 110.8605017  98.9709987  16.5845006 109.5125017
  99.9279987  16.5845006 109.5125017  98.7309987  17.5115006 109.5125017
 101.5369987  17.0705006 110.3805017 102.4939987  17.0705006 110.3805017
 101.2969987  17.9975006 110.3805017 105.0119987   2.7345006 109.5225017
 105.9689987   2.7345006 109.5225017 104.7719987   3.6615006 109.5225017
  97.3509987   1.3445006 107.3385017  98.3079987   1.3445006 107.3385017
  97.1109987   2.2715006 107.3385017 101.8969987   1.2965006 107.1455017
 102.8539987   1.2965006 107.1455017 101.6569987   2.2235006 107.1455017
 107.4119987   1.1865006 108.8365017 108.3689987   1.1865006 108.8365017
 107.1719987   2.1135006 108.8365017  96.1029987  17.0765006 104.0795017
  97.0599987  17.0765006 104.0795017  95.8629987  18.0035006 104.0795017
 102.9419987   3.2925006 104.0375017 103.8989987   3.2925006 104.0375017
 102.7019987   4.2195006 104.0375017  97.2679987   1.9025006 116.8885017
  98.2249987   1.9025006 116.8885017  97.0279987   2.8295006 116.8885017
  99.2919987   1.2455006 118.4325017 100.2489987   1.2455006 118.4325017
  99.0519987   2.1725006 118.4325017   0.0069987 108.3835006 118.4665017
   0.9639987 108.3835006 118.4665017  -0.2330013 109.3105006 118.4665017
  12.1929987  29.3425006 107.2725017  13.1499987  29.3425006 107.2725017
  11.9529987  30.2695006 107.2725017  11.0669987  28.6045006 110.7405017
  12.0239987  28.6045006 110.7405017  10.8269987  29.5315006 110.7405017
   3.4769987  28.2355006 112.2665017   4.4339987  28.2355006 112.2665017
   3.2369987  29.1625006 112.2665017  14.7709987  31.5455006 109.0125017
  15.7279987  31.5455006 109.0125017  14.5309987  32.4725006 109.0125017
   4.3399987  32.7055006 110.8175017   5.2969987  32.7055006 110.8175017
   4.0999987  33.6325006 110.8175017   1.0679987  26.3805006 106.2125017
   2.0249987  26.3805006 106.2125017   0.8279987  27.3075006 106.2125017
   1.6869987  28.4725006 108.3995017   2.6439987  28.4725006 108.3995017
   1.4469987  29.3995006 108.3995017  11.8829987  36.6935006 109.2485017
  12.8399987  36.6935006 109.2485017  11.6429987  37.6205006 109.2485017
   9.4479987  31.0105006 111.1795017  10.4049987  31.0105006 111.1795017
   9.2079987  31.9375006 111.1795017  18.0679987  22.6445006 111.9475017
  19.0249987  22.6445006 111.9475017  17.8279987  23.5715006 111.9475017
  12.6129987  25.4635006 111.5045017  13.5699987  25.4635006 111.5045017
  12.3729987  26.3905006 111.5045017   5.7369987  23.5445006 108.7275017
   6.6939987  23.5445006 108.7275017   5.4969987  24.4715006 108.7275017
  13.4709987  23.6615006 107.1455017  14.4279987  23.6615006 107.1455017
  13.2309987  24.5885006 107.1455017   2.5489987  26.0105006 109.3795017
   3.5059987  26.0105006 109.3795017   2.3089987  26.9375006 109.3795017
   7.5159987  27.5105006 108.7725017   8.4729987  27.5105006 108.7725017
   7.2759987  28.4375006 108.7725017  18.5009987  24.0765006 114.2075017
  19.4579987  24.0765006 114.2075017  18.2609987  25.0035006 114.2075017
   4.6289987  22.4555006 112.7935017   5.5859987  22.4555006 112.7935017
   4.3889987  23.3825006 112.7935017  11.9169987  31.9335006 106.3225017
  12.8739987  31.9335006 106.3225017  11.6769987  32.8605006 106.3225017
   7.1539987  30.0985006 113.0375017   8.1109987  30.0985006 113.0375017
   6.9139987  31.0255006 113.0375017  15.2609987  22.9775006 109.1025017
  16.2179987  22.9775006 109.1025017  15.0209987  23.9045006 109.1025017
   4.2039987  24.2895006 110.8095017   5.1609987  24.2895006 110.8095017
   3.9639987  25.2165006 110.8095017   5.5919987  32.0855006 113.8415017
   6.5489987  32.0855006 113.8415017   5.3519987  33.0125006 113.8415017
   1.6949987  31.7385006 104.6435017   2.6519987  31.7385006 104.6435017
   1.4549987  32.6655006 104.6435017  15.2939987  33.3785006 111.3835017
  16.2509987  33.3785006 111.3835017  15.0539987  34.3055006 111.3835017
  15.6089987  21.6675006 112.7815017  16.5659987  21.6675006 112.7815017
  15.3689987  22.5945006 112.7815017   8.5899987  19.7785006 110.2415017
   9.5469987  19.7785006 110.2415017   8.3499987  20.7055006 110.2415017
  13.5529987  35.1595006 107.9975017  14.5099987  35.1595006 107.9975017
  13.3129987  36.0865006 107.9975017  14.7599987  33.0905006 106.4785017
  15.7169987  33.0905006 106.4785017  14.5199987  34.0175006 106.4785017
  16.3839987  31.6715006 114.9885017  17.3409987  31.6715006 114.9885017
  16.1439987  32.5985006 114.9885017  10.8569987  28.5815006 104.7455017
  11.8139987  28.5815006 104.7455017  10.6169987  29.5085006 104.7455017
  18.2589987  27.9855006 113.0415017  19.2159987  27.9855006 113.0415017
  18.0189987  28.9125006 113.0415017  14.3249987  28.8165006 105.7055017
  15.2819987  28.8165006 105.7055017  14.0849987  29.7435006 105.7055017
  14.2349987  26.9535006 114.7875017  15.1919987  26.9535006 114.7875017
  13.9949987  27.8805006 114.7875017   5.9329987  29.4525006 107.5965017
   6.8899987  29.4525006 107.5965017   5.6929987  30.3795006 107.5965017
   7.2589987  32.8485006 110.2665017   8.2159987  32.8485006 110.2665017
   7.0189987  33.7755006 110.2665017   6.2839987  28.1975006 111.2415017
   7.2409987  28.1975006 111.2415017   6.0439987  29.1245006 111.2415017
  12.6449987  33.7585006 111.9445017  13.6019987  33.7585006 111.9445017
  12.4049987  34.6855006 111.9445017   7.2049987  32.6155006 115.9435017
   8.1619987  32.6155006 115.9435017   6.9649987  33.5425006 115.9435017
  13.1689987  27.9685006 103.3785017  14.1259987  27.9685006 103.3785017
  12.9289987  28.8955006 103.3785017   4.1249987  28.7875006 115.1335017
   5.0819987  28.7875006 115.1335017   3.8849987  29.7145006 115.1335017
  10.9009987  34.7045006 106.8215017  11.8579987  34.7045006 106.8215017
  10.6609987  35.6315006 106.8215017   5.4399987  34.6655006 116.6995017
   6.3969987  34.6655006 116.6995017   5.1999987  35.5925006 116.6995017
  16.9369987  19.7605006 103.2845017  17.8939987  19.7605006 103.2845017
  16.6969987  20.6875006 103.2845017   4.9439987  28.4815006 105.1845017
   5.9009987  28.4815006 105.1845017   4.7039987  29.4085006 105.1845017
   1.1249987  30.8725006 114.0215017   2.0819987  30.8725006 114.0215017
   0.8849987  31.7995006 114.0215017   1.0109987  33.7695006 110.5975017
   1.9679987  33.7695006 110.5975017   0.7709987  34.6965006 110.5975017
  18.9869987  34.3325006 116.5605017  19.9439987  34.3325006 116.5605017
  18.7469987  35.2595006 116.5605017   9.9459987  33.8795006 115.4245017
  10.9029987  33.8795006 115.4245017   9.7059987  34.8065006 115.4245017
  10.3459987  37.6415006 105.2335017  11.3029987  37.6415006 105.2335017
  10.1059987  38.5685006 105.2335017   4.0199987  36.4915006 107.0295017
   4.9769987  36.4915006 107.0295017   3.7799987  37.4185006 107.0295017
  13.1179987  36.7985006 105.0115017  14.0749987  36.7985006 105.0115017
  12.8779987  37.7255006 105.0115017  16.1299987  25.8095006 117.0425017
  17.0869987  25.8095006 117.0425017  15.8899987  26.7365006 117.0425017
   3.2619987  32.2445006 115.0515017   4.2189987  32.2445006 115.0515017
   3.0219987  33.1715006 115.0515017   5.9369987  20.6855006 110.9915017
   6.8939987  20.6855006 110.9915017   5.6969987  21.6125006 110.9915017
  10.5819987  20.3665006 114.3665017  11.5389987  20.3665006 114.3665017
  10.3419987  21.2935006 114.3665017  13.8849987  24.1835006 115.2545017
  14.8419987  24.1835006 115.2545017  13.6449987  25.1105006 115.2545017
   6.0449987  25.6475006 112.2135017   7.0019987  25.6475006 112.2135017
   5.8049987  26.5745006 112.2135017   5.9769987  25.8035006 107.0925017
   6.9339987  25.8035006 107.0925017   5.7369987  26.7305006 107.0925017
  11.5109987  26.2655006 105.8535017  12.4679987  26.2655006 105.8535017
  11.2709987  27.1925006 105.8535017  10.5989987  26.4805006 117.3225017
  11.5559987  26.4805006 117.3225017  10.3589987  27.4075006 117.3225017
  12.5509987  25.7565006 108.7085017  13.5079987  25.7565006 108.7085017
  12.3109987  26.6835006 108.7085017   3.7039987  25.9225006 113.9515017
   4.6609987  25.9225006 113.9515017   3.4639987  26.8495006 113.9515017
   0.4309987  22.3385006 108.2275017   1.3879987  22.3385006 108.2275017
   0.1909987  23.2655006 108.2275017   1.7559987  23.7505006 103.3495017
   2.7129987  23.7505006 103.3495017   1.5159987  24.6775006 103.3495017
  11.7689987  27.3595006 113.2985017  12.7259987  27.3595006 113.2985017
  11.5289987  28.2865006 113.2985017   8.5639987  23.3175006 108.1185017
   9.5209987  23.3175006 108.1185017   8.3239987  24.2445006 108.1185017
   3.4009987  24.8685006 106.9675017   4.3579987  24.8685006 106.9675017
   3.1609987  25.7955006 106.9675017   7.0279987  24.8985006 104.5755017
   7.9849987  24.8985006 104.5755017   6.7879987  25.8255006 104.5755017
  12.9709987  22.5525006 111.3635017  13.9279987  22.5525006 111.3635017
  12.7309987  23.4795006 111.3635017   5.7739987  26.0175006 102.1795017
   6.7309987  26.0175006 102.1795017   5.5339987  26.9445006 102.1795017
  16.1869987  38.2025006 117.6805017  17.1439987  38.2025006 117.6805017
  15.9469987  39.1295006 117.6805017   3.8559987  30.6485006 117.2615017
   4.8129987  30.6485006 117.2615017   3.6159987  31.5755006 117.2615017
   9.8569987  26.0825006 110.0085017  10.8139987  26.0825006 110.0085017
   9.6169987  27.0095006 110.0085017   4.8559987  22.2305006 106.4265017
   5.8129987  22.2305006 106.4265017   4.6159987  23.1575006 106.4265017
   8.4939987  24.4205006 112.4205017   9.4509987  24.4205006 112.4205017
   8.2539987  25.3475006 112.4205017   9.1009987  30.6195006 104.1205017
  10.0579987  30.6195006 104.1205017   8.8609987  31.5465006 104.1205017
  16.2429987  29.8225006 112.9195017  17.1999987  29.8225006 112.9195017
  16.0029987  30.7495006 112.9195017  10.5669987  30.8855006 115.3545017
  11.5239987  30.8855006 115.3545017  10.3269987  31.8125006 115.3545017
  13.6409987  25.3645006 103.9985017  14.5979987  25.3645006 103.9985017
  13.4009987  26.2915006 103.9985017   4.1839987  30.0205006 109.9135017
   5.1409987  30.0205006 109.9135017   3.9439987  30.9475006 109.9135017
  11.2109987  32.1195006 103.2205017  12.1679987  32.1195006 103.2205017
  10.9709987  33.0465006 103.2205017   1.1629987  28.4375006 115.1935017
   2.1199987  28.4375006 115.1935017   0.9229987  29.3645006 115.1935017
   8.1899987  27.9905006 117.3755017   9.1469987  27.9905006 117.3755017
   7.9499987  28.9175006 117.3755017  12.8589987  33.3215006 115.2955017
  13.8159987  33.3215006 115.2955017  12.6189987  34.2485006 115.2955017
  18.5249987  25.5195006 103.7445017  19.4819987  25.5195006 103.7445017
  18.2849987  26.4465006 103.7445017  18.5299987  31.3705006 116.5135017
  19.4869987  31.3705006 116.5135017  18.2899987  32.2975006 116.5135017
  16.8759987  34.3325006 104.1015017  17.8329987  34.3325006 104.1015017
  16.6359987  35.2595006 104.1015017  14.0339987  29.1575006 111.1925017
  14.9909987  29.1575006 111.1925017  13.7939987  30.0845006 111.1925017
   6.5639987  33.4725006 107.3075017   7.5209987  33.4725006 107.3075017
   6.3239987  34.3995006 107.3075017   2.2989987  28.2485006 101.9435017
   3.2559987  28.2485006 101.9435017   2.0589987  29.1755006 101.9435017
   7.9909987  31.1375006 106.8595017   8.9479987  31.1375006 106.8595017
   7.7509987  32.0645006 106.8595017   8.4319987  35.3255006 113.2145017
   9.3889987  35.3255006 113.2145017   8.1919987  36.2525006 113.2145017
   6.6619987  36.1485006 106.3705017   7.6189987  36.1485006 106.3705017
   6.4219987  37.0755006 106.3705017  11.9769987  31.3535006 112.8565017
  12.9339987  31.3535006 112.8565017  11.7369987  32.2805006 112.8565017
  14.7449987  35.9235006 115.3495017  15.7019987  35.9235006 115.3495017
  14.5049987  36.8505006 115.3495017   2.8079987  23.1735006 114.7405017
   3.7649987  23.1735006 114.7405017   2.5679987  24.1005006 114.7405017
  15.0829987  31.0265006 104.2095017  16.0399987  31.0265006 104.2095017
  14.8429987  31.9535006 104.2095017   2.4759987  34.9735006 113.1445017
   3.4329987  34.9735006 113.1445017   2.2359987  35.9005006 113.1445017
   3.6749987  30.2325006 103.3665017   4.6319987  30.2325006 103.3665017
   3.4349987  31.1595006 103.3665017  11.5529987  22.9395006 113.6705017
  12.5099987  22.9395006 113.6705017  11.3129987  23.8665006 113.6705017
  12.3029987  22.5655006 104.7785017  13.2599987  22.5655006 104.7785017
  12.0629987  23.4925006 104.7785017  10.0169987  34.7075006 103.6575017
  10.9739987  34.7075006 103.6575017   9.7769987  35.6345006 103.6575017
   9.5029987  24.2985006 105.5615017  10.4599987  24.2985006 105.5615017
   9.2629987  25.2255006 105.5615017  10.0809987  25.2865006 114.7745017
  11.0379987  25.2865006 114.7745017   9.8409987  26.2135006 114.7745017
  10.3889987  21.3335006 106.5055017  11.3459987  21.3335006 106.5055017
  10.1489987  22.2605006 106.5055017   7.3429987  35.7605006 103.6105017
   8.2999987  35.7605006 103.6105017   7.1029987  36.6875006 103.6105017
   6.0699987  22.4745006 103.1575017   7.0269987  22.4745006 103.1575017
   5.8299987  23.4015006 103.1575017  16.2759987  23.1635006 115.6235017
  17.2329987  23.1635006 115.6235017  16.0359987  24.0905006 115.6235017
  14.8749987  26.9485006 109.6555017  15.8319987  26.9485006 109.6555017
  14.6349987  27.8755006 109.6555017   4.3439987  32.8835006 102.2325017
   5.3009987  32.8835006 102.2325017   4.1039987  33.8105006 102.2325017
   2.6239987  25.5435006 101.4365017   3.5809987  25.5435006 101.4365017
   2.3839987  26.4705006 101.4365017  15.9429987  36.1955006 111.3165017
  16.8999987  36.1955006 111.3165017  15.7029987  37.1225006 111.3165017
   3.4639987  20.3265006 110.0835017   4.4209987  20.3265006 110.0835017
   3.2239987  21.2535006 110.0835017   2.3669987  34.2515006 106.2395017
   3.3239987  34.2515006 106.2395017   2.1269987  35.1785006 106.2395017
   1.7139987  36.8425006 117.4795017   2.6709987  36.8425006 117.4795017
   1.4739987  37.7695006 117.4795017   6.2699987  35.8045006 119.1615017
   7.2269987  35.8045006 119.1615017   6.0299987  36.7315006 119.1615017
  12.8079987  34.1965006 117.8875017  13.7649987  34.1965006 117.8875017
  12.5679987  35.1235006 117.8875017  15.0219987  35.1845006 100.8655017
  15.9789987  35.1845006 100.8655017  14.7819987  36.1115006 100.8655017
   1.5079987  30.6795006 118.5365017   2.4649987  30.6795006 118.5365017
   1.2679987  31.6065006 118.5365017   8.2299987  30.6585006 117.9295017
   9.1869987  30.6585006 117.9295017   7.9899987  31.5855006 117.9295017
  13.9349987  30.5285006 115.3155017  14.8919987  30.5285006 115.3155017
  13.6949987  31.4555006 115.3155017   2.3649987  27.8795006 117.9175017
   3.3219987  27.8795006 117.9175017   2.1249987  28.8065006 117.9175017
   7.1079987  29.0125006 102.9765017   8.0649987  29.0125006 102.9765017
   6.8679987  29.9395006 102.9765017   6.3379987  26.8545006 115.2855017
   7.2949987  26.8545006 115.2855017   6.0979987  27.7815006 115.2855017
  11.3919987  29.3965006 118.5945017  12.3489987  29.3965006 118.5945017
  11.1519987  30.3235006 118.5945017  17.4779987  29.5935006 100.6425017
  18.4349987  29.5935006 100.6425017  17.2379987  30.5205006 100.6425017
   6.7329987  24.2285006 116.3545017   7.6899987  24.2285006 116.3545017
   6.4929987  25.1555006 116.3545017   7.1309987  22.6065006 113.8865017
   8.0879987  22.6065006 113.8865017   6.8909987  23.5335006 113.8865017
   8.6809987  28.0745006 114.1325017   9.6379987  28.0745006 114.1325017
   8.4409987  29.0015006 114.1325017  13.0809987  25.8555006 119.1085017
  14.0379987  25.8555006 119.1085017  12.8409987  26.7825006 119.1085017
  14.4079987  28.6335006 117.2395017  15.3649987  28.6335006 117.2395017
  14.1679987  29.5605006 117.2395017   5.1779987  25.4775006 118.2655017
   6.1349987  25.4775006 118.2655017   4.9379987  26.4045006 118.2655017
   7.9129987  20.0505006 114.2985017   8.8699987  20.0505006 114.2985017
   7.6729987  20.9775006 114.2985017   9.1959987  24.3755006 117.8945017
  10.1529987  24.3755006 117.8945017   8.9559987  25.3025006 117.8945017
  11.9139987  23.5085006 116.9675017  12.8709987  23.5085006 116.9675017
  11.6739987  24.4355006 116.9675017  13.5099987  22.1395006 118.9075017
  14.4669987  22.1395006 118.9075017  13.2699987  23.0665006 118.9075017
   3.3279987  23.4045006 118.0045017   4.2849987  23.4045006 118.0045017
   3.0879987  24.3315006 118.0045017   8.1359987  19.4125006 116.9835017
   9.0929987  19.4125006 116.9835017   7.8959987  20.3395006 116.9835017
   8.5029987  21.0455006 119.0725017   9.4599987  21.0455006 119.0725017
   8.2629987  21.9725006 119.0725017   1.8659987  32.3855006 102.1165017
   2.8229987  32.3855006 102.1165017   1.6259987  33.3125006 102.1165017
 108.0799987  37.9755006 106.7005017 109.0369987  37.9755006 106.7005017
 107.8399987  38.9025006 106.7005017   1.5049987  36.2015006 108.6765017
   2.4619987  36.2015006 108.6765017   1.2649987  37.1285006 108.6765017
  18.6619987  36.8475006 111.5165017  19.6189987  36.8475006 111.5165017
  18.4219987  37.7745006 111.5165017  18.2379987  36.4445006 114.4595017
  19.1949987  36.4445006 114.4595017  17.9979987  37.3715006 114.4595017
  16.6799987  32.1825006 119.1005017  17.6369987  32.1825006 119.1005017
  16.4399987  33.1095006 119.1005017  17.9919987  30.4845006 104.5855017
  18.9489987  30.4845006 104.5855017  17.7519987  31.4115006 104.5855017
  18.3599987  28.5695006 106.4405017  19.3169987  28.5695006 106.4405017
  18.1199987  29.4965006 106.4405017  18.1189987  31.2735006 111.4215017
  19.0759987  31.2735006 111.4215017  17.8789987  32.2005006 111.4215017
  16.6659987  34.1715006 113.7015017  17.6229987  34.1715006 113.7015017
  16.4259987  35.0985006 113.7015017  18.6889987  28.3995006 102.8575017
  19.6459987  28.3995006 102.8575017  18.4489987  29.3265006 102.8575017
  16.9429987  25.6575006 101.3795017  17.8999987  25.6575006 101.3795017
  16.7029987  26.5845006 101.3795017  16.1779987  27.0495006 107.0125017
  17.1349987  27.0495006 107.0125017  15.9379987  27.9765006 107.0125017
   1.1829987  29.1145006 111.0655017   2.1399987  29.1145006 111.0655017
   0.9429987  30.0415006 111.0655017  17.0289987  29.0115006 116.6805017
  17.9859987  29.0115006 116.6805017  16.7889987  29.9385006 116.6805017
  18.5369987  26.9045006 117.3465017  19.4939987  26.9045006 117.3465017
  18.2969987  27.8315006 117.3465017  16.4819987  25.1715006 110.9075017
  17.4389987  25.1715006 110.9075017  16.2419987  26.0985006 110.9075017
  16.5449987  25.8985006 113.6935017  17.5019987  25.8985006 113.6935017
  16.3049987  26.8255006 113.6935017   0.8809987  24.3875006 117.1265017
   1.8379987  24.3875006 117.1265017   0.6409987  25.3145006 117.1265017
  18.8129987  19.9395006 119.0425017  19.7699987  19.9395006 119.0425017
  18.5729987  20.8665006 119.0425017  16.5159987  21.8925006 105.4935017
  17.4729987  21.8925006 105.4935017  16.2759987  22.8195006 105.4935017
   2.0869987  22.7445006 110.0625017   3.0439987  22.7445006 110.0625017
   1.8469987  23.6715006 110.0625017   0.8909987  25.6755006 111.2645017
   1.8479987  25.6755006 111.2645017   0.6509987  26.6025006 111.2645017
  18.3429987  22.0465006 117.3945017  19.2999987  22.0465006 117.3945017
  18.1029987  22.9735006 117.3945017   0.6479987  21.9515006 105.1395017
   1.6049987  21.9515006 105.1395017   0.4079987  22.8785006 105.1395017
  15.3929987  36.9325006 107.1215017  16.3499987  36.9325006 107.1215017
  15.1529987  37.8595006 107.1215017 108.3279987  20.6345006 113.5165017
 109.2849987  20.6345006 113.5165017 108.0879987  21.5615006 113.5165017
   2.8149987  33.8615006 117.6645017   3.7719987  33.8615006 117.6645017
   2.5749987  34.7885006 117.6645017   5.7349987  34.8355006 113.9235017
   6.6919987  34.8355006 113.9235017   5.4949987  35.7625006 113.9235017
  10.0559987  36.2595006 116.8375017  11.0129987  36.2595006 116.8375017
   9.8159987  37.1865006 116.8375017  12.3549987  37.5295006 116.1265017
  13.3119987  37.5295006 116.1265017  12.1149987  38.4565006 116.1265017
  17.3559987  20.1425006 115.2305017  18.3129987  20.1425006 115.2305017
  17.1159987  21.0695006 115.2305017   3.1499987  38.0915006 113.9535017
   4.1069987  38.0915006 113.9535017   2.9099987  39.0185006 113.9535017
   5.6469987  37.6735006 112.9975017   6.6039987  37.6735006 112.9975017
   5.4069987  38.6005006 112.9975017  10.3349987  37.5715006 112.1615017
  11.2919987  37.5715006 112.1615017  10.0949987  38.4985006 112.1615017
  12.6419987  36.4025006 113.1605017  13.5989987  36.4025006 113.1605017
  12.4019987  37.3295006 113.1605017  15.2219987  37.9685006 113.4175017
  16.1789987  37.9685006 113.4175017  14.9819987  38.8955006 113.4175017
   2.6359987  36.7485006 110.9175017   3.5929987  36.7485006 110.9175017
   2.3959987  37.6755006 110.9175017   4.6819987  35.4395006 109.5135017
   5.6389987  35.4395006 109.5135017   4.4419987  36.3665006 109.5135017
   7.2689987  35.9185006 110.3855017   8.2259987  35.9185006 110.3855017
   7.0289987  36.8455006 110.3855017  10.7509987  21.5745006 109.5205017
  11.7079987  21.5745006 109.5205017  10.5109987  22.5015006 109.5205017
  15.8879987  19.6345006 109.6135017  16.8449987  19.6345006 109.6135017
  15.6479987  20.5615006 109.6135017  17.5679987  20.8485006 107.9095017
  18.5249987  20.8485006 107.9095017  17.3279987  21.7755006 107.9095017
   3.1289987  20.2085006 107.3315017   4.0859987  20.2085006 107.3315017
   2.8889987  21.1355006 107.3315017   1.9149987  19.9745006 103.1845017
   2.8719987  19.9745006 103.1845017   1.6749987  20.9015006 103.1845017
   7.6259987  20.1065006 107.1535017   8.5829987  20.1065006 107.1535017
   7.3859987  21.0335006 107.1535017  13.2819987  20.1485006 108.7925017
  14.2389987  20.1485006 108.7925017  13.0419987  21.0755006 108.7925017
  14.5829987  20.1955006 104.5135017  15.5399987  20.1955006 104.5135017
  14.3429987  21.1225006 104.5135017   1.9179987  35.9285006 104.0595017
   2.8749987  35.9285006 104.0595017   1.6779987  36.8555006 104.0595017
   3.7499987  21.9245006 101.5955017   4.7069987  21.9245006 101.5955017
   3.5099987  22.8515006 101.5955017   8.6829987  22.1695006 104.0145017
   9.6399987  22.1695006 104.0145017   8.4429987  23.0965006 104.0145017
  10.6789987  37.1485006 102.4495017  11.6359987  37.1485006 102.4495017
  10.4389987  38.0755006 102.4495017  17.4119987  36.7255006 105.1465017
  18.3689987  36.7255006 105.1465017  17.1719987  37.6525006 105.1465017
   2.9939987  20.7405006 116.8295017   3.9509987  20.7405006 116.8295017
   2.7539987  21.6675006 116.8295017   5.0129987  20.1195006 118.4435017
   5.9699987  20.1195006 118.4435017   4.7729987  21.0465006 118.4435017
   3.6099987  36.8025006 101.0885017   4.5669987  36.8025006 101.0885017
   3.3699987  37.7295006 101.0885017  13.4189987  19.4175006 118.6075017
  14.3759987  19.4175006 118.6075017  13.1789987  20.3445006 118.6075017
  16.6259987  35.4575006 117.2605017  17.5829987  35.4575006 117.2605017
  16.3859987  36.3845006 117.2605017  31.0509987  29.3315006 107.2525017
  32.0079987  29.3315006 107.2525017  30.8109987  30.2585006 107.2525017
  29.9259987  28.5995006 110.7315017  30.8829987  28.5995006 110.7315017
  29.6859987  29.5265006 110.7315017  22.2829987  28.2595006 112.2895017
  23.2399987  28.2595006 112.2895017  22.0429987  29.1865006 112.2895017
  33.6419987  31.5575006 109.0005017  34.5989987  31.5575006 109.0005017
  33.4019987  32.4845006 109.0005017  23.2109987  32.7085006 110.8125017
  24.1679987  32.7085006 110.8125017  22.9709987  33.6355006 110.8125017
  19.8419987  26.2875006 106.3055017  20.7989987  26.2875006 106.3055017
  19.6019987  27.2145006 106.3055017  20.5519987  28.5025006 108.4055017
  21.5089987  28.5025006 108.4055017  20.3119987  29.4295006 108.4055017
  30.7309987  36.7005006 109.2515017  31.6879987  36.7005006 109.2515017
  30.4909987  37.6275006 109.2515017  28.3049987  31.0115006 111.1785017
  29.2619987  31.0115006 111.1785017  28.0649987  31.9385006 111.1785017
  37.0529987  22.6135006 111.8955017  38.0099987  22.6135006 111.8955017
  36.8129987  23.5405006 111.8955017  31.5189987  25.4535006 111.5145017
  32.4759987  25.4535006 111.5145017  31.2789987  26.3805006 111.5145017
  24.5919987  23.5465006 108.7355017  25.5489987  23.5465006 108.7355017
  24.3519987  24.4735006 108.7355017  32.9739987  24.2155006 107.1735017
  33.9309987  24.2155006 107.1735017  32.7339987  25.1425006 107.1735017
  21.2139987  25.9595006 109.4795017  22.1709987  25.9595006 109.4795017
  20.9739987  26.8865006 109.4795017  26.3799987  27.5135006 108.7645017
  27.3369987  27.5135006 108.7645017  26.1399987  28.4405006 108.7645017
  37.3349987  24.0645006 114.2295017  38.2919987  24.0645006 114.2295017
  37.0949987  24.9915006 114.2295017  23.4709987  22.4395006 112.7725017
  24.4279987  22.4395006 112.7725017  23.2309987  23.3665006 112.7725017
  30.8289987  31.9465006 106.3185017  31.7859987  31.9465006 106.3185017
  30.5889987  32.8735006 106.3185017  26.0029987  30.1185006 113.0145017
  26.9599987  30.1185006 113.0145017  25.7629987  31.0455006 113.0145017
  34.1529987  22.9425006 109.1185017  35.1099987  22.9425006 109.1185017
  33.9129987  23.8695006 109.1185017  23.0279987  24.3195006 110.7655017
  23.9849987  24.3195006 110.7655017  22.7879987  25.2465006 110.7655017
  24.4419987  32.0965006 113.8385017  25.3989987  32.0965006 113.8385017
  24.2019987  33.0235006 113.8385017  20.5179987  31.7355006 104.6425017
  21.4749987  31.7355006 104.6425017  20.2779987  32.6625006 104.6425017
  34.1519987  33.3765006 111.3495017  35.1089987  33.3765006 111.3495017
  33.9119987  34.3035006 111.3495017  34.1339987  21.3815006 112.3755017
  35.0909987  21.3815006 112.3755017  33.8939987  22.3085006 112.3755017
  27.4329987  19.7675006 110.2445017  28.3899987  19.7675006 110.2445017
  27.1929987  20.6945006 110.2445017  32.4319987  35.1685006 108.0275017
  33.3889987  35.1685006 108.0275017  32.1919987  36.0955006 108.0275017
  33.4839987  33.0665006 106.5005017  34.4409987  33.0665006 106.5005017
  33.2439987  33.9935006 106.5005017  35.2399987  31.6715006 114.9885017
  36.1969987  31.6715006 114.9885017  34.9999987  32.5985006 114.9885017
  29.7329987  28.6095006 104.7755017  30.6899987  28.6095006 104.7755017
  29.4929987  29.5365006 104.7755017  29.7739987  27.0545006 101.8465017
  30.7309987  27.0545006 101.8465017  29.5339987  27.9815006 101.8465017
  37.0969987  27.9635006 113.0325017  38.0539987  27.9635006 113.0325017
  36.8569987  28.8905006 113.0325017  33.1789987  28.8155006 105.6745017
  34.1359987  28.8155006 105.6745017  32.9389987  29.7425006 105.6745017
  33.1019987  26.9405006 114.7755017  34.0589987  26.9405006 114.7755017
  32.8619987  27.8675006 114.7755017  24.7859987  29.4545006 107.5925017
  25.7429987  29.4545006 107.5925017  24.5459987  30.3815006 107.5925017
  26.1179987  32.8535006 110.2705017  27.0749987  32.8535006 110.2705017
  25.8779987  33.7805006 110.2705017  25.1329987  28.1885006 111.2455017
  26.0899987  28.1885006 111.2455017  24.8929987  29.1155006 111.2455017
  31.5099987  33.7565006 111.9475017  32.4669987  33.7565006 111.9475017
  31.2699987  34.6835006 111.9475017  26.0619987  32.6175006 115.9415017
  27.0189987  32.6175006 115.9415017  25.8219987  33.5445006 115.9415017
  32.0359987  27.9545006 103.3375017  32.9929987  27.9545006 103.3375017
  31.7959987  28.8815006 103.3375017  22.9809987  28.8175006 115.1065017
  23.9379987  28.8175006 115.1065017  22.7409987  29.7445006 115.1065017
  29.7579987  34.7035006 106.8135017  30.7149987  34.7035006 106.8135017
  29.5179987  35.6305006 106.8135017  24.3029987  34.6675006 116.6975017
  25.2599987  34.6675006 116.6975017  24.0629987  35.5945006 116.6975017
  35.7449987  19.6895006 103.2125017  36.7019987  19.6895006 103.2125017
  35.5049987  20.6165006 103.2125017  23.7739987  28.4725006 105.1875017
  24.7309987  28.4725006 105.1875017  23.5339987  29.3995006 105.1875017
  36.8949987  34.0785006 101.6335017  37.8519987  34.0785006 101.6335017
  36.6549987  35.0055006 101.6335017  19.8499987  30.8955006 114.0715017
  20.8069987  30.8955006 114.0715017  19.6099987  31.8225006 114.0715017
  19.6109987  33.6325006 110.8775017  20.5679987  33.6325006 110.8775017
  19.3709987  34.5595006 110.8775017  37.8519987  34.3225006 116.5775017
  38.8089987  34.3225006 116.5775017  37.6119987  35.2495006 116.5775017
  28.8009987  33.8815006 115.4265017  29.7579987  33.8815006 115.4265017
  28.5609987  34.8085006 115.4265017  29.2169987  37.6175006 105.2185017
  30.1739987  37.6175006 105.2185017  28.9769987  38.5445006 105.2185017
  22.8779987  36.4935006 107.0435017  23.8349987  36.4935006 107.0435017
  22.6379987  37.4205006 107.0435017  32.2939987  36.8335006 102.2665017
  33.2509987  36.8335006 102.2665017  32.0539987  37.7605006 102.2665017
  31.9749987  36.7345006 104.9885017  32.9319987  36.7345006 104.9885017
  31.7349987  37.6615006 104.9885017  34.9989987  25.8015006 117.0185017
  35.9559987  25.8015006 117.0185017  34.7589987  26.7285006 117.0185017
  22.1239987  32.2155006 115.0375017  23.0809987  32.2155006 115.0375017
  21.8839987  33.1425006 115.0375017  24.7929987  20.6785006 110.9995017
  25.7499987  20.6785006 110.9995017  24.5529987  21.6055006 110.9995017
  29.4389987  20.3625006 114.3665017  30.3959987  20.3625006 114.3665017
  29.1989987  21.2895006 114.3665017  32.7839987  24.1875006 115.2455017
  33.7409987  24.1875006 115.2455017  32.5439987  25.1145006 115.2455017
  33.5109987  28.9955006 101.0925017  34.4679987  28.9955006 101.0925017
  33.2709987  29.9225006 101.0925017  24.8659987  25.6365006 112.1675017
  25.8229987  25.6365006 112.1675017  24.6259987  26.5635006 112.1675017
  24.8579987  25.8065006 107.0845017  25.8149987  25.8065006 107.0845017
  24.6179987  26.7335006 107.0845017  30.3679987  26.2615006 105.8525017
  31.3249987  26.2615006 105.8525017  30.1279987  27.1885006 105.8525017
  29.5709987  26.5415006 117.4585017  30.5279987  26.5415006 117.4585017
  29.3309987  27.4685006 117.4585017  31.4279987  25.8115006 108.7335017
  32.3849987  25.8115006 108.7335017  31.1879987  26.7385006 108.7335017
  22.5039987  25.9425006 113.9305017  23.4609987  25.9425006 113.9305017
  22.2639987  26.8695006 113.9305017  25.8889987  23.3775006 100.8065017
  26.8459987  23.3775006 100.8065017  25.6489987  24.3045006 100.8065017
  19.1829987  23.0345006 107.8825017  20.1399987  23.0345006 107.8825017
  18.9429987  23.9615006 107.8825017  30.6379987  27.3885006 113.2925017
  31.5949987  27.3885006 113.2925017  30.3979987  28.3155006 113.2925017
  27.3709987  23.3175006 108.1205017  28.3279987  23.3175006 108.1205017
  27.1309987  24.2445006 108.1205017  22.2369987  24.8975006 106.9555017
  23.1939987  24.8975006 106.9555017  21.9969987  25.8245006 106.9555017
  25.8569987  24.9355006 104.5925017  26.8139987  24.9355006 104.5925017
  25.6169987  25.8625006 104.5925017  31.8379987  22.5665006 111.3855017
  32.7949987  22.5665006 111.3855017  31.5979987  23.4935006 111.3855017
  35.0509987  38.2045006 117.6705017  36.0079987  38.2045006 117.6705017
  34.8109987  39.1315006 117.6705017  22.7129987  30.6665006 117.2495017
  23.6699987  30.6665006 117.2495017  22.4729987  31.5935006 117.2495017
  28.7009987  26.0755006 110.0115017  29.6579987  26.0755006 110.0115017
  28.4609987  27.0025006 110.0115017  23.7069987  22.2385006 106.4015017
  24.6639987  22.2385006 106.4015017  23.4669987  23.1655006 106.4015017
  27.3419987  24.4225006 112.4295017  28.2989987  24.4225006 112.4295017
  27.1019987  25.3495006 112.4295017  27.9429987  30.6305006 104.1005017
  28.8999987  30.6305006 104.1005017  27.7029987  31.5575006 104.1005017
  35.0999987  29.8235006 112.9195017  36.0569987  29.8235006 112.9195017
  34.8599987  30.7505006 112.9195017  31.7889987  23.5025006 102.2075017
  32.7459987  23.5025006 102.2075017  31.5489987  24.4295006 102.2075017
  29.4319987  30.8965006 115.3565017  30.3889987  30.8965006 115.3565017
  29.1919987  31.8235006 115.3565017  32.5229987  25.3475006 103.9005017
  33.4799987  25.3475006 103.9005017  32.2829987  26.2745006 103.9005017
  23.0409987  30.0155006 109.9135017  23.9979987  30.0155006 109.9135017
  22.8009987  30.9425006 109.9135017  20.0299987  28.4395006 115.1835017
  20.9869987  28.4395006 115.1835017  19.7899987  29.3665006 115.1835017
  27.0749987  28.1715006 117.3885017  28.0319987  28.1715006 117.3885017
  26.8349987  29.0985006 117.3885017  31.7159987  33.3215006 115.2975017
  32.6729987  33.3215006 115.2975017  31.4759987  34.2485006 115.2975017
  37.3849987  31.3725006 116.5135017  38.3419987  31.3725006 116.5135017
  37.1449987  32.2995006 116.5135017  35.6089987  34.4295006 103.8895017
  36.5659987  34.4295006 103.8895017  35.3689987  35.3565006 103.8895017
  32.8919987  29.1535006 111.1895017  33.8489987  29.1535006 111.1895017
  32.6519987  30.0805006 111.1895017  25.3959987  33.4855006 107.3115017
  26.3529987  33.4855006 107.3115017  25.1559987  34.4125006 107.3115017
  26.8489987  31.1415006 106.8465017  27.8059987  31.1415006 106.8465017
  26.6089987  32.0685006 106.8465017  27.2899987  35.3175006 113.2145017
  28.2469987  35.3175006 113.2145017  27.0499987  36.2445006 113.2145017
  25.5209987  36.1585006 106.3425017  26.4779987  36.1585006 106.3425017
  25.2809987  37.0855006 106.3425017  30.8339987  31.3515006 112.8575017
  31.7909987  31.3515006 112.8575017  30.5939987  32.2785006 112.8575017
  33.5929987  35.9185006 115.3535017  34.5499987  35.9185006 115.3535017
  33.3529987  36.8455006 115.3535017  21.6819987  23.1695006 114.7255017
  22.6389987  23.1695006 114.7255017  21.4419987  24.0965006 114.7255017
  33.9389987  31.0585006 104.2185017  34.8959987  31.0585006 104.2185017
  33.6989987  31.9855006 104.2185017  21.3049987  34.9685006 113.1625017
  22.2619987  34.9685006 113.1625017  21.0649987  35.8955006 113.1625017
  26.0899987  33.0105006 102.8365017  27.0469987  33.0105006 102.8365017
  25.8499987  33.9375006 102.8365017  22.5989987  30.2625006 103.3865017
  23.5559987  30.2625006 103.3865017  22.3589987  31.1895006 103.3865017
  30.4409987  22.9105006 113.6615017  31.3979987  22.9105006 113.6615017
  30.2009987  23.8375006 113.6615017  31.2119987  22.5095006 104.7325017
  32.1689987  22.5095006 104.7325017  30.9719987  23.4365006 104.7325017
  28.8749987  34.7095006 103.5945017  29.8319987  34.7095006 103.5945017
  28.6349987  35.6365006 103.5945017  28.3419987  24.3315006 105.5735017
  29.2989987  24.3315006 105.5735017  28.1019987  25.2585006 105.5735017
  29.3839987  25.4075006 114.5405017  30.3409987  25.4075006 114.5405017
  29.1439987  26.3345006 114.5405017  29.0729987  21.2715006 106.3555017
  30.0299987  21.2715006 106.3555017  28.8329987  22.1985006 106.3555017
  26.2309987  35.7505006 103.5945017  27.1879987  35.7505006 103.5945017
  25.9909987  36.6775006 103.5945017  24.9009987  22.4335006 103.1925017
  25.8579987  22.4335006 103.1925017  24.6609987  23.3605006 103.1925017
  35.0879987  23.1465006 115.7945017  36.0449987  23.1465006 115.7945017
  34.8479987  24.0735006 115.7945017  33.7369987  26.9575006 109.6825017
  34.6939987  26.9575006 109.6825017  33.4969987  27.8845006 109.6825017
  34.7959987  36.1845006 111.2975017  35.7529987  36.1845006 111.2975017
  34.5559987  37.1115006 111.2975017  22.2979987  20.3285006 110.0975017
  23.2549987  20.3285006 110.0975017  22.0579987  21.2555006 110.0975017
  21.2419987  34.2435006 106.2135017  22.1989987  34.2435006 106.2135017
  21.0019987  35.1705006 106.2135017  20.4709987  36.8975006 117.5465017
  21.4279987  36.8975006 117.5465017  20.2309987  37.8245006 117.5465017
  25.1299987  35.8135006 119.1615017  26.0869987  35.8135006 119.1615017
  24.8899987  36.7405006 119.1615017  31.6569987  34.1955006 117.8945017
  32.6139987  34.1955006 117.8945017  31.4169987  35.1225006 117.8945017
  33.8009987  35.0475006 100.7915017  34.7579987  35.0475006 100.7915017
  33.5609987  35.9745006 100.7915017  20.3929987  30.6785006 118.5305017
  21.3499987  30.6785006 118.5305017  20.1529987  31.6055006 118.5305017
  27.0889987  30.6945006 117.9385017  28.0459987  30.6945006 117.9385017
  26.8489987  31.6215006 117.9385017  32.7929987  30.5295006 115.3135017
  33.7499987  30.5295006 115.3135017  32.5529987  31.4565006 115.3135017
  21.2859987  27.8955006 117.9195017  22.2429987  27.8955006 117.9195017
  21.0459987  28.8225006 117.9195017  25.9039987  29.0115006 102.9565017
  26.8609987  29.0115006 102.9565017  25.6639987  29.9385006 102.9565017
  24.9309987  26.9045006 115.1215017  25.8879987  26.9045006 115.1215017
  24.6909987  27.8315006 115.1215017  26.9769987  27.2545006 101.2055017
  27.9339987  27.2545006 101.2055017  26.7369987  28.1815006 101.2055017
  30.2549987  29.4225006 118.6215017  31.2119987  29.4225006 118.6215017
  30.0149987  30.3495006 118.6215017  25.0109987  23.9705006 116.1915017
  25.9679987  23.9705006 116.1915017  24.7709987  24.8975006 116.1915017
  26.0029987  22.5615006 113.8585017  26.9599987  22.5615006 113.8585017
  25.7629987  23.4885006 113.8585017  27.5319987  28.0915006 114.1135017
  28.4889987  28.0915006 114.1135017  27.2919987  29.0185006 114.1135017
  31.9479987  25.8585006 119.1185017  32.9049987  25.8585006 119.1185017
  31.7079987  26.7855006 119.1185017  33.2769987  28.6645006 117.2665017
  34.2339987  28.6645006 117.2665017  33.0369987  29.5915006 117.2665017
  24.0399987  25.4675006 118.2895017  24.9969987  25.4675006 118.2895017
  23.7999987  26.3945006 118.2895017  26.7789987  20.0335006 114.2885017
  27.7359987  20.0335006 114.2885017  26.5389987  20.9605006 114.2885017
  28.2469987  23.9405006 118.1925017  29.2039987  23.9405006 118.1925017
  28.0069987  24.8675006 118.1925017  30.8019987  23.4815006 116.9245017
  31.7589987  23.4815006 116.9245017  30.5619987  24.4085006 116.9245017
  32.3689987  22.1385006 118.9095017  33.3259987  22.1385006 118.9095017
  32.1289987  23.0655006 118.9095017  22.1339987  23.3915006 118.0075017
  23.0909987  23.3915006 118.0075017  21.8939987  24.3185006 118.0075017
  26.9929987  19.4145006 116.9805017  27.9499987  19.4145006 116.9805017
  26.7529987  20.3415006 116.9805017  27.3389987  21.0215006 119.0925017
  28.2959987  21.0215006 119.0925017  27.0989987  21.9485006 119.0925017
  19.1579987  37.9355006 106.7215017  20.1149987  37.9355006 106.7215017
  18.9179987  38.8625006 106.7215017  19.9849987  36.0445006 108.5705017
  20.9419987  36.0445006 108.5705017  19.7449987  36.9715006 108.5705017
  37.4729987  36.8475006 111.5335017  38.4299987  36.8475006 111.5335017
  37.2329987  37.7745006 111.5335017  37.0349987  36.4245006 114.4895017
  37.9919987  36.4245006 114.4895017  36.7949987  37.3515006 114.4895017
  35.5409987  32.1765006 119.1165017  36.4979987  32.1765006 119.1165017
  35.3009987  33.1035006 119.1165017  36.8119987  30.5255006 104.6065017
  37.7689987  30.5255006 104.6065017  36.5719987  31.4525006 104.6065017
  37.1959987  28.5315006 106.4245017  38.1529987  28.5315006 106.4245017
  36.9559987  29.4585006 106.4245017  36.9779987  31.2805006 111.3985017
  37.9349987  31.2805006 111.3985017  36.7379987  32.2075006 111.3985017
  35.5189987  34.1605006 113.6995017  36.4759987  34.1605006 113.6995017
  35.2789987  35.0875006 113.6995017  35.0289987  27.0195006 106.9925017
  35.9859987  27.0195006 106.9925017  34.7889987  27.9465006 106.9925017
  20.0399987  29.1245006 111.0585017  20.9969987  29.1245006 111.0585017
  19.7999987  30.0515006 111.0585017  35.8859987  29.0115006 116.6815017
  36.8429987  29.0115006 116.6815017  35.6459987  29.9385006 116.6815017
  37.3929987  26.9025006 117.3315017  38.3499987  26.9025006 117.3315017
  37.1529987  27.8295006 117.3315017  35.1009987  23.0985006 100.5105017
  36.0579987  23.0985006 100.5105017  34.8609987  24.0255006 100.5105017
  34.7369987  24.6375006 105.3675017  35.6939987  24.6375006 105.3675017
  34.4969987  25.5645006 105.3675017  35.3479987  25.1115006 110.9395017
  36.3049987  25.1115006 110.9395017  35.1079987  26.0385006 110.9395017
  35.3919987  25.8875006 113.6795017  36.3489987  25.8875006 113.6795017
  35.1519987  26.8145006 113.6795017  19.6509987  24.4265006 117.2035017
  20.6079987  24.4265006 117.2035017  19.4109987  25.3535006 117.2035017
  37.6669987  19.9415006 119.0405017  38.6239987  19.9415006 119.0405017
  37.4269987  20.8685006 119.0405017  35.3799987  21.8885006 105.4815017
  36.3369987  21.8885006 105.4815017  35.1399987  22.8155006 105.4815017
  20.8559987  22.7145006 110.0635017  21.8129987  22.7145006 110.0635017
  20.6159987  23.6415006 110.0635017  19.1439987  25.7085006 111.1145017
  20.1009987  25.7085006 111.1145017  18.9039987  26.6355006 111.1145017
  37.1999987  22.0605006 117.3775017  38.1569987  22.0605006 117.3775017
  36.9599987  22.9875006 117.3775017  37.2029987  21.9445006 102.0615017
  38.1599987  21.9445006 102.0615017  36.9629987  22.8715006 102.0615017
  19.4949987  21.9635006 105.1505017  20.4519987  21.9635006 105.1505017
  19.2549987  22.8905006 105.1505017  34.2519987  36.9105006 107.1325017
  35.2089987  36.9105006 107.1325017  34.0119987  37.8375006 107.1325017
  19.4609987  20.6545006 113.4905017  20.4179987  20.6545006 113.4905017
  19.2209987  21.5815006 113.4905017  21.6829987  33.8395006 117.6475017
  22.6399987  33.8395006 117.6475017  21.4429987  34.7665006 117.6475017
  24.5929987  34.8355006 113.9245017  25.5499987  34.8355006 113.9245017
  24.3529987  35.7625006 113.9245017  28.9069987  36.2915006 116.8435017
  29.8639987  36.2915006 116.8435017  28.6669987  37.2185006 116.8435017
  31.2069987  37.5495006 116.1195017  32.1639987  37.5495006 116.1195017
  30.9669987  38.4765006 116.1195017  36.2219987  20.1775006 115.1885017
  37.1789987  20.1775006 115.1885017  35.9819987  21.1045006 115.1885017
  22.0199987  38.0805006 113.9295017  22.9769987  38.0805006 113.9295017
  21.7799987  39.0075006 113.9295017  24.5069987  37.6905006 113.0095017
  25.4639987  37.6905006 113.0095017  24.2669987  38.6175006 113.0095017
  29.1799987  37.5685006 112.1805017  30.1369987  37.5685006 112.1805017
  28.9399987  38.4955006 112.1805017  31.4999987  36.3975006 113.1595017
  32.4569987  36.3975006 113.1595017  31.2599987  37.3245006 113.1595017
  34.0469987  37.9665006 113.4115017  35.0039987  37.9665006 113.4115017
  33.8069987  38.8935006 113.4115017  21.4529987  36.7295006 110.8615017
  22.4099987  36.7295006 110.8615017  21.2129987  37.6565006 110.8615017
  23.5489987  35.4415006 109.5135017  24.5059987  35.4415006 109.5135017
  23.3089987  36.3685006 109.5135017  26.1389987  35.9225006 110.3885017
  27.0959987  35.9225006 110.3885017  25.8989987  36.8495006 110.3885017
  29.6019987  21.3435006 109.8335017  30.5589987  21.3435006 109.8335017
  29.3619987  22.2705006 109.8335017  34.7589987  19.6495006 109.6305017
  35.7159987  19.6495006 109.6305017  34.5189987  20.5765006 109.6305017
  36.4239987  20.8565006 107.9075017  37.3809987  20.8565006 107.9075017
  36.1839987  21.7835006 107.9075017  21.9679987  20.2125006 107.3655017
  22.9249987  20.2125006 107.3655017  21.7279987  21.1395006 107.3655017
  20.7759987  19.9855006 103.1405017  21.7329987  19.9855006 103.1405017
  20.5359987  20.9125006 103.1405017  26.4619987  20.1025006 107.1575017
  27.4189987  20.1025006 107.1575017  26.2219987  21.0295006 107.1575017
  32.1969987  20.1075006 108.7985017  33.1539987  20.1075006 108.7985017
  31.9569987  21.0345006 108.7985017  33.4309987  20.1665006 104.4285017
  34.3879987  20.1665006 104.4285017  33.1909987  21.0935006 104.4285017
  20.6849987  35.9345006 104.0585017  21.6419987  35.9345006 104.0585017
  20.4449987  36.8615006 104.0585017  27.5629987  22.1655006 104.0525017
  28.5199987  22.1655006 104.0525017  27.3229987  23.0925006 104.0525017
  36.2239987  36.6945006 105.1685017  37.1809987  36.6945006 105.1685017
  35.9839987  37.6215006 105.1685017  21.8659987  20.7375006 116.8305017
  22.8229987  20.7375006 116.8305017  21.6259987  21.6645006 116.8305017
  23.8669987  20.1055006 118.4445017  24.8239987  20.1055006 118.4445017
  23.6269987  21.0325006 118.4445017  32.2739987  19.4145006 118.6055017
  33.2309987  19.4145006 118.6055017  32.0339987  20.3415006 118.6055017
  35.4759987  35.4495006 117.2715017  36.4329987  35.4495006 117.2715017
  35.2359987  36.3765006 117.2715017  48.8069987  28.6125006 110.7165017
  49.7639987  28.6125006 110.7165017  48.5669987  29.5395006 110.7165017
  41.1389987  28.2575006 112.2895017  42.0959987  28.2575006 112.2895017
  40.8989987  29.1845006 112.2895017  52.4629987  31.5525006 109.0095017
  53.4199987  31.5525006 109.0095017  52.2229987  32.4795006 109.0095017
  42.0879987  32.7015006 110.8665017  43.0449987  32.7015006 110.8665017
  41.8479987  33.6285006 110.8665017  38.7279987  26.3105006 106.1985017
  39.6849987  26.3105006 106.1985017  38.4879987  27.2375006 106.1985017
  39.4039987  28.4785006 108.3935017  40.3609987  28.4785006 108.3935017
  39.1639987  29.4055006 108.3935017  47.1589987  30.9885006 111.1755017
  48.1159987  30.9885006 111.1755017  46.9189987  31.9155006 111.1755017
  55.7799987  22.6455006 111.9475017  56.7369987  22.6455006 111.9475017
  55.5399987  23.5725006 111.9475017  50.3049987  25.4665006 111.4975017
  51.2619987  25.4665006 111.4975017  50.0649987  26.3935006 111.4975017
  43.4639987  23.5285006 108.7445017  44.4209987  23.5285006 108.7445017
  43.2239987  24.4555006 108.7445017  51.1909987  23.6345006 107.0945017
  52.1479987  23.6345006 107.0945017  50.9509987  24.5615006 107.0945017
  40.0669987  25.9585006 109.4815017  41.0239987  25.9585006 109.4815017
  39.8269987  26.8855006 109.4815017  45.2459987  27.5155006 108.7775017
  46.2029987  27.5155006 108.7775017  45.0059987  28.4425006 108.7775017
  56.2129987  24.0765006 114.2075017  57.1699987  24.0765006 114.2075017
  55.9729987  25.0035006 114.2075017  42.3519987  22.4535006 112.7815017
  43.3089987  22.4535006 112.7815017  42.1119987  23.3805006 112.7815017
  44.8669987  30.1155006 113.0685017  45.8239987  30.1155006 113.0685017
  44.6269987  31.0425006 113.0685017  52.9639987  22.9805006 109.0955017
  53.9209987  22.9805006 109.0955017  52.7239987  23.9075006 109.0955017
  41.8979987  24.3075006 110.7945017  42.8549987  24.3075006 110.7945017
  41.6579987  25.2345006 110.7945017  43.2889987  32.1145006 113.8585017
  44.2459987  32.1145006 113.8585017  43.0489987  33.0415006 113.8585017
  53.3229987  21.6685006 112.7815017  54.2799987  21.6685006 112.7815017
  53.0829987  22.5955006 112.7815017  46.1939987  19.6525006 109.9165017
  47.1509987  19.6525006 109.9165017  45.9539987  20.5795006 109.9165017
  54.0909987  31.6705006 114.9825017  55.0479987  31.6705006 114.9825017
  53.8509987  32.5975006 114.9825017  48.5739987  28.4855006 104.7225017
  49.5309987  28.4855006 104.7225017  48.3339987  29.4125006 104.7225017
  48.6669987  27.0835006 101.7915017  49.6239987  27.0835006 101.7915017
  48.4269987  28.0105006 101.7915017  55.9729987  27.9825006 113.0415017
  56.9299987  27.9825006 113.0415017  55.7329987  28.9095006 113.0415017
  52.0139987  28.7945006 105.6835017  52.9709987  28.7945006 105.6835017
  51.7739987  29.7215006 105.6835017  51.9479987  26.9545006 114.7855017
  52.9049987  26.9545006 114.7855017  51.7079987  27.8815006 114.7855017
  43.9819987  28.1935006 111.2425017  44.9389987  28.1935006 111.2425017
  43.7419987  29.1205006 111.2425017  44.8699987  32.5525006 115.9815017
  45.8269987  32.5525006 115.9815017  44.6299987  33.4795006 115.9815017
  50.8899987  27.9455006 103.3465017  51.8469987  27.9455006 103.3465017
  50.6499987  28.8725006 103.3465017  41.8519987  28.7825006 115.1205017
  42.8089987  28.7825006 115.1205017  41.6119987  29.7095006 115.1205017
  43.1609987  34.6595006 116.7025017  44.1179987  34.6595006 116.7025017
  42.9209987  35.5865006 116.7025017  54.6119987  19.7315006 103.2265017
  55.5689987  19.7315006 103.2265017  54.3719987  20.6585006 103.2265017
  42.6319987  28.4725006 105.1485017  43.5889987  28.4725006 105.1485017
  42.3919987  29.3995006 105.1485017  38.7019987  30.8935006 114.0695017
  39.6589987  30.8935006 114.0695017  38.4619987  31.8205006 114.0695017
  38.4509987  33.6335006 110.9015017  39.4079987  33.6335006 110.9015017
  38.2109987  34.5605006 110.9015017  56.7059987  34.3325006 116.5715017
  57.6629987  34.3325006 116.5715017  56.4659987  35.2595006 116.5715017
  53.8429987  25.8095006 117.0415017  54.7999987  25.8095006 117.0415017
  53.6029987  26.7365006 117.0415017  40.9639987  32.2095006 115.0455017
  41.9209987  32.2095006 115.0455017  40.7239987  33.1365006 115.0455017
  43.6909987  20.6905006 111.0165017  44.6479987  20.6905006 111.0165017
  43.4509987  21.6175006 111.0165017  48.2739987  20.3555006 114.3335017
  49.2309987  20.3555006 114.3335017  48.0339987  21.2825006 114.3335017
  51.5939987  24.1835006 115.2355017  52.5509987  24.1835006 115.2355017
  51.3539987  25.1105006 115.2355017  52.3549987  29.0085006 101.0715017
  53.3119987  29.0085006 101.0715017  52.1149987  29.9355006 101.0715017
  43.7639987  25.6385006 112.2025017  44.7209987  25.6385006 112.2025017
  43.5239987  26.5655006 112.2025017  43.7179987  25.7805006 107.1065017
  44.6749987  25.7805006 107.1065017  43.4779987  26.7075006 107.1065017
  49.2509987  26.2455006 105.8605017  50.2079987  26.2455006 105.8605017
  49.0109987  27.1725006 105.8605017  48.3109987  26.4785006 117.3245017
  49.2679987  26.4785006 117.3245017  48.0709987  27.4055006 117.3245017
  50.2669987  25.7595006 108.7055017  51.2239987  25.7595006 108.7055017
  50.0269987  26.6865006 108.7055017  41.3999987  25.9285006 113.9435017
  42.3569987  25.9285006 113.9435017  41.1599987  26.8555006 113.9435017
  38.0379987  23.0495006 107.8815017  38.9949987  23.0495006 107.8815017
  37.7979987  23.9765006 107.8815017  39.2999987  23.7985006 103.2835017
  40.2569987  23.7985006 103.2835017  39.0599987  24.7255006 103.2835017
  49.4799987  27.3525006 113.2995017  50.4369987  27.3525006 113.2995017
  49.2399987  28.2795006 113.2995017  46.2719987  23.2775006 108.1265017
  47.2289987  23.2775006 108.1265017  46.0319987  24.2045006 108.1265017
  41.0879987  24.8805006 106.9755017  42.0449987  24.8805006 106.9755017
  40.8479987  25.8075006 106.9755017  44.7069987  24.9545006 104.6415017
  45.6639987  24.9545006 104.6415017  44.4669987  25.8815006 104.6415017
  50.6819987  22.5365006 111.3645017  51.6389987  22.5365006 111.3645017
  50.4419987  23.4635006 111.3645017  43.4469987  26.1115006 102.1905017
  44.4039987  26.1115006 102.1905017  43.2069987  27.0385006 102.1905017
  53.9109987  38.1975006 117.6765017  54.8679987  38.1975006 117.6765017
  53.6709987  39.1245006 117.6765017  41.5709987  30.6915006 117.2385017
  42.5279987  30.6915006 117.2385017  41.3309987  31.6185006 117.2385017
  47.5659987  26.0695006 110.0075017  48.5229987  26.0695006 110.0075017
  47.3259987  26.9965006 110.0075017  42.5799987  22.2305006 106.4515017
  43.5369987  22.2305006 106.4515017  42.3399987  23.1575006 106.4515017
  46.1999987  24.3865006 112.4415017  47.1569987  24.3865006 112.4415017
  45.9599987  25.3135006 112.4415017  53.9549987  29.8295006 112.9165017
  54.9119987  29.8295006 112.9165017  53.7149987  30.7565006 112.9165017
  48.3119987  30.8855006 115.3765017  49.2689987  30.8855006 115.3765017
  48.0719987  31.8125006 115.3765017  41.8769987  30.0075006 109.8935017
  42.8339987  30.0075006 109.8935017  41.6369987  30.9345006 109.8935017
  38.8919987  28.4435006 115.1835017  39.8489987  28.4435006 115.1835017
  38.6519987  29.3705006 115.1835017  45.8989987  27.9775006 117.3805017
  46.8559987  27.9775006 117.3805017  45.6589987  28.9045006 117.3805017
  50.5759987  33.3805006 115.2685017  51.5329987  33.3805006 115.2685017
  50.3359987  34.3075006 115.2685017  56.3299987  25.5425006 103.6745017
  57.2869987  25.5425006 103.6745017  56.0899987  26.4695006 103.6745017
  56.2399987  31.3745006 116.5155017  57.1969987  31.3745006 116.5155017
  55.9999987  32.3015006 116.5155017  51.7439987  29.1685006 111.1605017
  52.7009987  29.1685006 111.1605017  51.5039987  30.0955006 111.1605017
  49.7139987  31.3655006 112.8345017  50.6709987  31.3655006 112.8345017
  49.4739987  32.2925006 112.8345017  52.4279987  35.9435006 115.3575017
  53.3849987  35.9435006 115.3575017  52.1879987  36.8705006 115.3575017
  40.5459987  23.1595006 114.7175017  41.5029987  23.1595006 114.7175017
  40.3059987  24.0865006 114.7175017  52.7859987  30.9585006 104.1965017
  53.7429987  30.9585006 104.1965017  52.5459987  31.8855006 104.1965017
  40.1559987  34.9455006 113.1665017  41.1129987  34.9455006 113.1665017
  39.9159987  35.8725006 113.1665017  49.2519987  22.9165006 113.6495017
  50.2089987  22.9165006 113.6495017  49.0119987  23.8435006 113.6495017
  50.0749987  22.5165006 104.7295017  51.0319987  22.5165006 104.7295017
  49.8349987  23.4435006 104.7295017  47.2319987  24.2915006 105.5885017
  48.1889987  24.2915006 105.5885017  46.9919987  25.2185006 105.5885017
  47.7869987  25.2685006 114.7715017  48.7439987  25.2685006 114.7715017
  47.5469987  26.1955006 114.7715017  48.1279987  21.3325006 106.5275017
  49.0849987  21.3325006 106.5275017  47.8879987  22.2595006 106.5275017
  43.7409987  22.4335006 103.2375017  44.6979987  22.4335006 103.2375017
  43.5009987  23.3605006 103.2375017  53.9879987  23.1645006 115.6285017
  54.9449987  23.1645006 115.6285017  53.7479987  24.0915006 115.6285017
  52.5839987  26.9525006 109.6655017  53.5409987  26.9525006 109.6655017
  52.3439987  27.8795006 109.6655017  41.1849987  20.3245006 110.1015017
  42.1419987  20.3245006 110.1015017  40.9449987  21.2515006 110.1015017
  39.3169987  36.8945006 117.5765017  40.2739987  36.8945006 117.5765017
  39.0769987  37.8215006 117.5765017  43.9829987  35.8055006 119.1785017
  44.9399987  35.8055006 119.1785017  43.7429987  36.7325006 119.1785017
  50.5489987  34.1695006 117.9105017  51.5059987  34.1695006 117.9105017
  50.3089987  35.0965006 117.9105017  39.2479987  30.6795006 118.5325017
  40.2049987  30.6795006 118.5325017  39.0079987  31.6065006 118.5325017
  45.9489987  30.6565006 117.9345017  46.9059987  30.6565006 117.9345017
  45.7089987  31.5835006 117.9345017  51.6499987  30.5255006 115.3145017
  52.6069987  30.5255006 115.3145017  51.4099987  31.4525006 115.3145017
  40.1239987  27.8935006 117.9155017  41.0809987  27.8935006 117.9155017
  39.8839987  28.8205006 117.9155017  44.0489987  26.8535006 115.2845017
  45.0059987  26.8535006 115.2845017  43.8089987  27.7805006 115.2845017
  49.1079987  29.4025006 118.5975017  50.0649987  29.4025006 118.5975017
  48.8679987  30.3295006 118.5975017  55.1589987  29.6115006 100.6585017
  56.1159987  29.6115006 100.6585017  54.9189987  30.5385006 100.6585017
  44.4439987  24.2325006 116.3525017  45.4009987  24.2325006 116.3525017
  44.2039987  25.1595006 116.3525017  44.8689987  22.5455006 113.8395017
  45.8259987  22.5455006 113.8395017  44.6289987  23.4725006 113.8395017
  46.3919987  28.0615006 114.1275017  47.3489987  28.0615006 114.1275017
  46.1519987  28.9885006 114.1275017  50.7949987  25.8715006 119.0825017
  51.7519987  25.8715006 119.0825017  50.5549987  26.7985006 119.0825017
  52.1189987  28.6355006 117.2425017  53.0759987  28.6355006 117.2425017
  51.8789987  29.5625006 117.2425017  42.9009987  25.4715006 118.2655017
  43.8579987  25.4715006 118.2655017  42.6609987  26.3985006 118.2655017
  45.6569987  20.0545006 114.2185017  46.6139987  20.0545006 114.2185017
  45.4169987  20.9815006 114.2185017  46.9119987  24.3705006 117.8845017
  47.8689987  24.3705006 117.8845017  46.6719987  25.2975006 117.8845017
  49.6219987  23.5055006 116.9505017  50.5789987  23.5055006 116.9505017
  49.3819987  24.4325006 116.9505017  51.2409987  22.1755006 118.8375017
  52.1979987  22.1755006 118.8375017  51.0009987  23.1025006 118.8375017
  40.9979987  23.3975006 118.0005017  41.9549987  23.3975006 118.0005017
  40.7579987  24.3245006 118.0005017  45.8559987  19.4185006 116.9785017
  46.8129987  19.4185006 116.9785017  45.6159987  20.3455006 116.9785017
  46.1959987  21.0315006 119.0675017  47.1529987  21.0315006 119.0675017
  45.9559987  21.9585006 119.0675017  37.9649987  37.9455006 106.7615017
  38.9219987  37.9455006 106.7615017  37.7249987  38.8725006 106.7615017
  38.7849987  36.0355006 108.5715017  39.7419987  36.0355006 108.5715017
  38.5449987  36.9625006 108.5715017  56.4239987  36.8215006 111.5255017
  57.3809987  36.8215006 111.5255017  56.1839987  37.7485006 111.5255017
  55.9089987  36.4545006 114.4705017  56.8659987  36.4545006 114.4705017
  55.6689987  37.3815006 114.4705017  54.3969987  32.1775006 119.1165017
  55.3539987  32.1775006 119.1165017  54.1569987  33.1045006 119.1165017
  55.7249987  30.4435006 104.5575017  56.6819987  30.4435006 104.5575017
  55.4849987  31.3705006 104.5575017  56.1029987  28.5165006 106.4265017
  57.0599987  28.5165006 106.4265017  55.8629987  29.4435006 106.4265017
  55.8229987  31.2865006 111.4245017  56.7799987  31.2865006 111.4245017
  55.5829987  32.2135006 111.4245017  54.3679987  34.1855006 113.6765017
  55.3249987  34.1855006 113.6765017  54.1279987  35.1125006 113.6765017
  56.3469987  28.3515006 102.8465017  57.3039987  28.3515006 102.8465017
  56.1069987  29.2785006 102.8465017  53.8999987  27.0295006 106.9995017
  54.8569987  27.0295006 106.9995017  53.6599987  27.9565006 106.9995017
  38.9079987  29.1265006 111.0575017  39.8649987  29.1265006 111.0575017
  38.6679987  30.0535006 111.0575017  54.7409987  29.0115006 116.6815017
  55.6979987  29.0115006 116.6815017  54.5009987  29.9385006 116.6815017
  56.2489987  26.9045006 117.3465017  57.2059987  26.9045006 117.3465017
  56.0089987  27.8315006 117.3465017  53.5359987  24.6085006 105.4425017
  54.4929987  24.6085006 105.4425017  53.2959987  25.5355006 105.4425017
  54.1929987  25.1725006 110.9065017  55.1499987  25.1725006 110.9065017
  53.9529987  26.0995006 110.9065017  54.2589987  25.8985006 113.6945017
  55.2159987  25.8985006 113.6945017  54.0189987  26.8255006 113.6945017
  38.5019987  24.4115006 117.1715017  39.4589987  24.4115006 117.1715017
  38.2619987  25.3385006 117.1715017  56.5249987  19.9405006 119.0435017
  57.4819987  19.9405006 119.0435017  56.2849987  20.8675006 119.0435017
  54.2209987  21.9035006 105.4935017  55.1779987  21.9035006 105.4935017
  53.9809987  22.8305006 105.4935017  39.6939987  22.7135006 110.0885017
  40.6509987  22.7135006 110.0885017  39.4539987  23.6405006 110.0885017
  37.9949987  25.6925006 111.1335017  38.9519987  25.6925006 111.1335017
  37.7549987  26.6195006 111.1335017  56.0549987  22.0465006 117.3945017
  57.0119987  22.0465006 117.3945017  55.8149987  22.9735006 117.3945017
  56.0749987  21.9575006 102.0425017  57.0319987  21.9575006 102.0425017
  55.8349987  22.8845006 102.0425017  38.3559987  22.0035006 105.1795017
  39.3129987  22.0035006 105.1795017  38.1159987  22.9305006 105.1795017
  38.3219987  20.6515006 113.5015017  39.2789987  20.6515006 113.5015017
  38.0819987  21.5785006 113.5015017  40.5379987  33.8275006 117.6485017
  41.4949987  33.8275006 117.6485017  40.2979987  34.7545006 117.6485017
  47.7589987  36.2885006 116.9005017  48.7159987  36.2885006 116.9005017
  47.5189987  37.2155006 116.9005017  50.1029987  37.5075006 116.1035017
  51.0599987  37.5075006 116.1035017  49.8629987  38.4345006 116.1035017
  55.0689987  20.1435006 115.2295017  56.0259987  20.1435006 115.2295017
  54.8289987  21.0705006 115.2295017  40.2829987  36.7185006 110.8565017
  41.2399987  36.7185006 110.8565017  40.0429987  37.6455006 110.8565017
  48.4609987  21.5535006 109.5785017  49.4179987  21.5535006 109.5785017
  48.2209987  22.4805006 109.5785017  53.5999987  19.6335006 109.6105017
  54.5569987  19.6335006 109.6105017  53.3599987  20.5605006 109.6105017
  55.2739987  20.8615006 107.8845017  56.2309987  20.8615006 107.8845017
  55.0339987  21.7885006 107.8845017  40.8219987  20.2085006 107.3595017
  41.7789987  20.2085006 107.3595017  40.5819987  21.1355006 107.3595017
  39.6269987  19.9665006 103.1275017  40.5839987  19.9665006 103.1275017
  39.3869987  20.8935006 103.1275017  45.3219987  20.1195006 107.1675017
  46.2789987  20.1195006 107.1675017  45.0819987  21.0465006 107.1675017
  50.9609987  20.1555006 108.7985017  51.9179987  20.1555006 108.7985017
  50.7209987  21.0825006 108.7985017  52.2859987  20.1905006 104.4365017
  53.2429987  20.1905006 104.4365017  52.0459987  21.1175006 104.4365017
  41.4539987  21.9125006 101.6085017  42.4109987  21.9125006 101.6085017
  41.2139987  22.8395006 101.6085017  46.4489987  22.1895006 104.0505017
  47.4059987  22.1895006 104.0505017  46.2089987  23.1165006 104.0505017
  40.7239987  20.7385006 116.8315017  41.6809987  20.7385006 116.8315017
  40.4839987  21.6655006 116.8315017  42.7279987  20.1115006 118.4435017
  43.6849987  20.1115006 118.4435017  42.4879987  21.0385006 118.4435017
  51.1289987  19.3615006 118.5585017  52.0859987  19.3615006 118.5585017
  50.8889987  20.2885006 118.5585017  54.3359987  35.4565006 117.2645017
  55.2929987  35.4565006 117.2645017  54.0959987  36.3835006 117.2645017
  68.7569987  29.3375006 107.2705017  69.7139987  29.3375006 107.2705017
  68.5169987  30.2645006 107.2705017  67.6379987  28.6045006 110.7375017
  68.5949987  28.6045006 110.7375017  67.3979987  29.5315006 110.7375017
  59.9959987  28.2585006 112.2905017  60.9529987  28.2585006 112.2905017
  59.7559987  29.1855006 112.2905017  71.3369987  31.5435006 109.0085017
  72.2939987  31.5435006 109.0085017  71.0969987  32.4705006 109.0085017
  60.9239987  32.7085006 110.8135017  61.8809987  32.7085006 110.8135017
  60.6839987  33.6355006 110.8135017  57.6169987  26.3075006 106.1475017
  58.5739987  26.3075006 106.1475017  57.3769987  27.2345006 106.1475017
  58.2539987  28.4855006 108.3835017  59.2109987  28.4855006 108.3835017
  58.0139987  29.4125006 108.3835017  68.4339987  36.6775006 109.2315017
  69.3909987  36.6775006 109.2315017  68.1939987  37.6045006 109.2315017
  66.0149987  31.0105006 111.1785017  66.9719987  31.0105006 111.1785017
  65.7749987  31.9375006 111.1785017  74.6359987  22.6445006 111.9475017
  75.5929987  22.6445006 111.9475017  74.3959987  23.5715006 111.9475017
  69.1799987  25.4645006 111.5045017  70.1369987  25.4645006 111.5045017
  68.9399987  26.3915006 111.5045017  62.3009987  23.5505006 108.7365017
  63.2579987  23.5505006 108.7365017  62.0609987  24.4775006 108.7365017
  70.0389987  23.6515006 107.1135017  70.9959987  23.6515006 107.1135017
  69.7989987  24.5785006 107.1135017  58.9269987  25.9655006 109.4745017
  59.8839987  25.9655006 109.4745017  58.6869987  26.8925006 109.4745017
  64.0859987  27.5095006 108.7775017  65.0429987  27.5095006 108.7775017
  63.8459987  28.4365006 108.7775017  75.0699987  24.0775006 114.2075017
  76.0269987  24.0775006 114.2075017  74.8299987  25.0045006 114.2075017
  61.1899987  22.4495006 112.7825017  62.1469987  22.4495006 112.7825017
  60.9499987  23.3765006 112.7825017  68.5169987  31.9505006 106.3325017
  69.4739987  31.9505006 106.3325017  68.2769987  32.8775006 106.3325017
  63.7219987  30.0975006 113.0375017  64.6789987  30.0975006 113.0375017
  63.4819987  31.0245006 113.0375017  71.8329987  22.9735006 109.0985017
  72.7899987  22.9735006 109.0985017  71.5929987  23.9005006 109.0985017
  60.7519987  24.3195006 110.7895017  61.7089987  24.3195006 110.7895017
  60.5119987  25.2465006 110.7895017  62.1589987  32.0875006 113.8475017
  63.1159987  32.0875006 113.8475017  61.9189987  33.0145006 113.8475017
  58.2099987  31.7315006 104.6605017  59.1669987  31.7315006 104.6605017
  57.9699987  32.6585006 104.6605017  71.8609987  33.3855006 111.3915017
  72.8179987  33.3855006 111.3915017  71.6209987  34.3125006 111.3915017
  72.1779987  21.6685006 112.7805017  73.1349987  21.6685006 112.7805017
  71.9379987  22.5955006 112.7805017  65.1599987  19.7795006 110.2415017
  66.1169987  19.7795006 110.2415017  64.9199987  20.7065006 110.2415017
  70.1209987  35.1545006 107.9885017  71.0779987  35.1545006 107.9885017
  69.8809987  36.0815006 107.9885017  71.3319987  33.0895006 106.4875017
  72.2889987  33.0895006 106.4875017  71.0919987  34.0165006 106.4875017
  72.9519987  31.6675006 114.9895017  73.9089987  31.6675006 114.9895017
  72.7119987  32.5945006 114.9895017  67.4509987  28.5965006 104.7595017
  68.4079987  28.5965006 104.7595017  67.2109987  29.5235006 104.7595017
  74.8269987  27.9865006 113.0415017  75.7839987  27.9865006 113.0415017
  74.5869987  28.9135006 113.0415017  70.8609987  28.7895006 105.6735017
  71.8179987  28.7895006 105.6735017  70.6209987  29.7165006 105.6735017
  70.8029987  26.9535006 114.7875017  71.7599987  26.9535006 114.7875017
  70.5629987  27.8805006 114.7875017  62.5099987  29.4615006 107.5925017
  63.4669987  29.4615006 107.5925017  62.2699987  30.3885006 107.5925017
  63.8229987  32.8455006 110.2735017  64.7799987  32.8455006 110.2735017
  63.5829987  33.7725006 110.2735017  62.8349987  28.1945006 111.2395017
  63.7919987  28.1945006 111.2395017  62.5949987  29.1215006 111.2395017
  69.2249987  33.7555006 111.9565017  70.1819987  33.7555006 111.9565017
  68.9849987  34.6825006 111.9565017  63.7729987  32.6185006 115.9445017
  64.7299987  32.6185006 115.9445017  63.5329987  33.5455006 115.9445017
  60.7079987  28.7845006 115.1195017  61.6649987  28.7845006 115.1195017
  60.4679987  29.7115006 115.1195017  67.4569987  34.7105006 106.8305017
  68.4139987  34.7105006 106.8305017  67.2169987  35.6375006 106.8305017
  62.0169987  34.6675006 116.6975017  62.9739987  34.6675006 116.6975017
  61.7769987  35.5945006 116.6975017  61.4679987  28.4905006 105.2135017
  62.4249987  28.4905006 105.2135017  61.2279987  29.4175006 105.2135017
  57.5469987  30.9025006 114.0685017  58.5039987  30.9025006 114.0685017
  57.3069987  31.8295006 114.0685017  57.3189987  33.6205006 110.8945017
  58.2759987  33.6205006 110.8945017  57.0789987  34.5475006 110.8945017
  75.5579987  34.3345006 116.5615017  76.5149987  34.3345006 116.5615017
  75.3179987  35.2615006 116.5615017  66.5159987  33.8765006 115.4275017
  67.4729987  33.8765006 115.4275017  66.2759987  34.8035006 115.4275017
  66.8999987  37.6395006 105.2345017  67.8569987  37.6395006 105.2345017
  66.6599987  38.5665006 105.2345017  60.5809987  36.4945006 107.0435017
  61.5379987  36.4945006 107.0435017  60.3409987  37.4215006 107.0435017
  69.9529987  36.7935006 102.2125017  70.9099987  36.7935006 102.2125017
  69.7129987  37.7205006 102.2125017  69.6819987  36.7265006 104.9715017
  70.6389987  36.7265006 104.9715017  69.4419987  37.6535006 104.9715017
  72.6969987  25.8095006 117.0425017  73.6539987  25.8095006 117.0425017
  72.4569987  26.7365006 117.0425017  59.8349987  32.2155006 115.0335017
  60.7919987  32.2155006 115.0335017  59.5949987  33.1425006 115.0335017
  62.5059987  20.6795006 110.9965017  63.4629987  20.6795006 110.9965017
  62.2659987  21.6065006 110.9965017  67.1509987  20.3665006 114.3665017
  68.1079987  20.3665006 114.3665017  66.9109987  21.2935006 114.3665017
  70.4529987  24.1835006 115.2545017  71.4099987  24.1835006 115.2545017
  70.2129987  25.1105006 115.2545017  62.6069987  25.6455006 112.2105017
  63.5639987  25.6455006 112.2105017  62.3669987  26.5725006 112.2105017
  62.5599987  25.8185006 107.0735017  63.5169987  25.8185006 107.0735017
  62.3199987  26.7455006 107.0735017  68.0729987  26.2585006 105.8805017
  69.0299987  26.2585006 105.8805017  67.8329987  27.1855006 105.8805017
  67.1669987  26.4815006 117.3225017  68.1239987  26.4815006 117.3225017
  66.9269987  27.4085006 117.3225017  69.1199987  25.7605006 108.7005017
  70.0769987  25.7605006 108.7005017  68.8799987  26.6875006 108.7005017
  60.2539987  25.9295006 113.9425017  61.2109987  25.9295006 113.9425017
  60.0139987  26.8565006 113.9425017  56.9079987  23.0645006 107.8725017
  57.8649987  23.0645006 107.8725017  56.6679987  23.9915006 107.8725017
  58.1719987  23.7715006 103.2765017  59.1289987  23.7715006 103.2765017
  57.9319987  24.6985006 103.2765017  68.3369987  27.3595006 113.2985017
  69.2939987  27.3595006 113.2985017  68.0969987  28.2865006 113.2985017
  65.1259987  23.3155006 108.1205017  66.0829987  23.3155006 108.1205017
  64.8859987  24.2425006 108.1205017  59.9559987  24.9115006 106.9325017
  60.9129987  24.9115006 106.9325017  59.7159987  25.8385006 106.9325017
  63.5659987  24.9725006 104.6415017  64.5229987  24.9725006 104.6415017
  63.3259987  25.8995006 104.6415017  69.5429987  22.5525006 111.3605017
  70.4999987  22.5525006 111.3605017  69.3029987  23.4795006 111.3605017
  62.2449987  26.1315006 102.1845017  63.2019987  26.1315006 102.1845017
  62.0049987  27.0585006 102.1845017  72.7659987  38.2035006 117.6815017
  73.7229987  38.2035006 117.6815017  72.5259987  39.1305006 117.6815017
  60.4239987  30.6655006 117.2485017  61.3809987  30.6655006 117.2485017
  60.1839987  31.5925006 117.2485017  66.4229987  26.0815006 110.0085017
  67.3799987  26.0815006 110.0085017  66.1829987  27.0085006 110.0085017
  61.4199987  22.2345006 106.4505017  62.3769987  22.2345006 106.4505017
  61.1799987  23.1615006 106.4505017  65.0619987  24.4205006 112.4205017
  66.0189987  24.4205006 112.4205017  64.8219987  25.3475006 112.4205017
  65.6589987  30.6385006 104.1115017  66.6159987  30.6385006 104.1115017
  65.4189987  31.5655006 104.1115017  72.8109987  29.8225006 112.9185017
  73.7679987  29.8225006 112.9185017  72.5709987  30.7495006 112.9185017
  67.1359987  30.8845006 115.3555017  68.0929987  30.8845006 115.3555017
  66.8959987  31.8115006 115.3555017  70.2059987  25.3925006 104.0135017
  71.1629987  25.3925006 104.0135017  69.9659987  26.3195006 104.0135017
  60.7539987  30.0155006 109.9145017  61.7109987  30.0155006 109.9145017
  60.5139987  30.9425006 109.9145017  57.7439987  28.4375006 115.1855017
  58.7009987  28.4375006 115.1855017  57.5039987  29.3645006 115.1855017
  64.7569987  27.9895006 117.3755017  65.7139987  27.9895006 117.3755017
  64.5169987  28.9165006 117.3755017  69.4319987  33.3535006 115.2885017
  70.3889987  33.3535006 115.2885017  69.1919987  34.2805006 115.2885017
  75.0849987  25.5425006 103.7085017  76.0419987  25.5425006 103.7085017
  74.8449987  26.4695006 103.7085017  75.0959987  31.3745006 116.5155017
  76.0529987  31.3745006 116.5155017  74.8559987  32.3015006 116.5155017
  73.4019987  34.3325006 104.1015017  74.3589987  34.3325006 104.1015017
  73.1619987  35.2595006 104.1015017  70.6019987  29.1575006 111.1925017
  71.5589987  29.1575006 111.1925017  70.3619987  30.0845006 111.1925017
  63.1059987  33.4885006 107.3245017  64.0629987  33.4885006 107.3245017
  62.8659987  34.4155006 107.3245017  58.9069987  28.2805006 101.9855017
  59.8639987  28.2805006 101.9855017  58.6669987  29.2075006 101.9855017
  64.5519987  31.1455006 106.8255017  65.5089987  31.1455006 106.8255017
  64.3119987  32.0725006 106.8255017  64.9999987  35.3235006 113.2145017
  65.9569987  35.3235006 113.2145017  64.7599987  36.2505006 113.2145017
  63.2489987  36.1615006 106.3655017  64.2059987  36.1615006 106.3655017
  63.0089987  37.0885006 106.3655017  68.5579987  31.3615006 112.8635017
  69.5149987  31.3615006 112.8635017  68.3179987  32.2885006 112.8635017
  71.3219987  35.9255006 115.3345017  72.2789987  35.9255006 115.3345017
  71.0819987  36.8525006 115.3345017  59.3949987  23.1735006 114.7315017
  60.3519987  23.1735006 114.7315017  59.1549987  24.1005006 114.7315017
  59.0099987  34.9695006 113.1595017  59.9669987  34.9695006 113.1595017
  58.7699987  35.8965006 113.1595017  64.9509987  33.4485006 100.3955017
  65.9079987  33.4485006 100.3955017  64.7109987  34.3755006 100.3955017
  63.7869987  33.0155006 102.8625017  64.7439987  33.0155006 102.8625017
  63.5469987  33.9425006 102.8625017  60.3049987  30.2315006 103.3985017
  61.2619987  30.2315006 103.3985017  60.0649987  31.1585006 103.3985017
  68.1209987  22.9395006 113.6705017  69.0779987  22.9395006 113.6705017
  67.8809987  23.8665006 113.6705017  68.9199987  22.5275006 104.7195017
  69.8769987  22.5275006 104.7195017  68.6799987  23.4545006 104.7195017
  66.5649987  34.6845006 103.5825017  67.5219987  34.6845006 103.5825017
  66.3249987  35.6115006 103.5825017  66.0889987  24.3065006 105.5955017
  67.0459987  24.3065006 105.5955017  65.8489987  25.2335006 105.5955017
  66.6499987  25.2875006 114.7755017  67.6069987  25.2875006 114.7755017
  66.4099987  26.2145006 114.7755017  66.9699987  21.3335006 106.4955017
  67.9269987  21.3335006 106.4955017  66.7299987  22.2605006 106.4955017
  63.9359987  35.7255006 103.6015017  64.8929987  35.7255006 103.6015017
  63.6959987  36.6525006 103.6015017  72.8439987  23.1645006 115.6245017
  73.8009987  23.1645006 115.6245017  72.6039987  24.0915006 115.6245017
  71.4409987  26.9475006 109.6745017  72.3979987  26.9475006 109.6745017
  71.2009987  27.8745006 109.6745017  60.8909987  32.8415006 102.2955017
  61.8479987  32.8415006 102.2955017  60.6509987  33.7685006 102.2955017
  59.2099987  25.5005006 101.2675017  60.1669987  25.5005006 101.2675017
  58.9699987  26.4275006 101.2675017  72.5119987  36.1645006 111.2945017
  73.4689987  36.1645006 111.2945017  72.2719987  37.0915006 111.2945017
  60.0109987  20.3295006 110.0995017  60.9679987  20.3295006 110.0995017
  59.7709987  21.2565006 110.0995017  58.9619987  34.2395006 106.2295017
  59.9189987  34.2395006 106.2295017  58.7219987  35.1665006 106.2295017
  58.1979987  36.8895006 117.5315017  59.1549987  36.8895006 117.5315017
  57.9579987  37.8165006 117.5315017  62.8319987  35.8115006 119.1715017
  63.7889987  35.8115006 119.1715017  62.5919987  36.7385006 119.1715017
  66.9599987  35.3135006 100.5715017  67.9169987  35.3135006 100.5715017
  66.7199987  36.2405006 100.5715017  69.3749987  34.1875006 117.8965017
  70.3319987  34.1875006 117.8965017  69.1349987  35.1145006 117.8965017
  71.6259987  35.1885006 100.8865017  72.5829987  35.1885006 100.8865017
  71.3859987  36.1155006 100.8865017  58.1029987  30.6795006 118.5325017
  59.0599987  30.6795006 118.5325017  57.8629987  31.6065006 118.5325017
  64.7999987  30.6585006 117.9305017  65.7569987  30.6585006 117.9305017
  64.5599987  31.5855006 117.9305017  70.5059987  30.5245006 115.3175017
  71.4629987  30.5245006 115.3175017  70.2659987  31.4515006 115.3175017
  58.9939987  27.8975006 117.9195017  59.9509987  27.8975006 117.9195017
  58.7539987  28.8245006 117.9195017  63.6489987  28.9955006 102.9945017
  64.6059987  28.9955006 102.9945017  63.4089987  29.9225006 102.9945017
  62.9059987  26.8545006 115.2855017  63.8629987  26.8545006 115.2855017
  62.6659987  27.7815006 115.2855017  67.9619987  29.3995006 118.6005017
  68.9189987  29.3995006 118.6005017  67.7219987  30.3265006 118.6005017
  63.2979987  24.2285006 116.3535017  64.2549987  24.2285006 116.3535017
  63.0579987  25.1555006 116.3535017  63.6989987  22.6055006 113.8865017
  64.6559987  22.6055006 113.8865017  63.4589987  23.5325006 113.8865017
  65.2489987  28.0745006 114.1325017  66.2059987  28.0745006 114.1325017
  65.0089987  29.0015006 114.1325017  69.6489987  25.8525006 119.1135017
  70.6059987  25.8525006 119.1135017  69.4089987  26.7795006 119.1135017
  70.9749987  28.6335006 117.2435017  71.9319987  28.6335006 117.2435017
  70.7349987  29.5605006 117.2435017  61.7579987  25.4705006 118.2665017
  62.7149987  25.4705006 118.2665017  61.5179987  26.3975006 118.2665017
  64.4929987  20.0445006 114.2935017  65.4499987  20.0445006 114.2935017
  64.2529987  20.9715006 114.2935017  65.7649987  24.3745006 117.8915017
  66.7219987  24.3745006 117.8915017  65.5249987  25.3015006 117.8915017
  68.4819987  23.5105006 116.9665017  69.4389987  23.5105006 116.9665017
  68.2419987  24.4375006 116.9665017  70.0779987  22.1405006 118.9105017
  71.0349987  22.1405006 118.9105017  69.8379987  23.0675006 118.9105017
  59.8539987  23.3965006 118.0005017  60.8109987  23.3965006 118.0005017
  59.6139987  24.3235006 118.0005017  64.7039987  19.4125006 116.9835017
  65.6609987  19.4125006 116.9835017  64.4639987  20.3395006 116.9835017
  65.0709987  21.0465006 119.0725017  66.0279987  21.0465006 119.0725017
  64.8309987  21.9735006 119.0725017  58.1379987  32.5115006 101.7495017
  59.0949987  32.5115006 101.7495017  57.8979987  33.4385006 101.7495017
  57.7099987  36.0375006 108.5585017  58.6669987  36.0375006 108.5585017
  57.4699987  36.9645006 108.5585017  75.2489987  36.8225006 111.5275017
  76.2059987  36.8225006 111.5275017  75.0089987  37.7495006 111.5275017
  74.7899987  36.4415006 114.4685017  75.7469987  36.4415006 114.4685017
  74.5499987  37.3685006 114.4685017  73.2509987  32.1765006 119.1155017
  74.2079987  32.1765006 119.1155017  73.0109987  33.1035006 119.1155017
  74.5739987  30.4845006 104.5535017  75.5309987  30.4845006 104.5535017
  74.3339987  31.4115006 104.5535017  74.9429987  28.5525006 106.4195017
  75.8999987  28.5525006 106.4195017  74.7029987  29.4795006 106.4195017
  74.6869987  31.2725006 111.4215017  75.6439987  31.2725006 111.4215017
  74.4469987  32.1995006 111.4215017  73.2299987  34.1785006 113.7015017
  74.1869987  34.1785006 113.7015017  72.9899987  35.1055006 113.7015017
  75.1639987  28.3785006 102.8355017  76.1209987  28.3785006 102.8355017
  74.9239987  29.3055006 102.8355017  72.7589987  27.0355006 107.0025017
  73.7159987  27.0355006 107.0025017  72.5189987  27.9625006 107.0025017
  57.7499987  29.1275006 111.0565017  58.7069987  29.1275006 111.0565017
  57.5099987  30.0545006 111.0565017  73.5969987  29.0115006 116.6825017
  74.5539987  29.0115006 116.6825017  73.3569987  29.9385006 116.6825017
  75.1049987  26.9045006 117.3465017  76.0619987  26.9045006 117.3465017
  74.8649987  27.8315006 117.3465017  72.8989987  22.9725006 100.4385017
  73.8559987  22.9725006 100.4385017  72.6589987  23.8995006 100.4385017
  72.4259987  24.6095006 105.4535017  73.3829987  24.6095006 105.4535017
  72.1859987  25.5365006 105.4535017  73.0489987  25.1725006 110.9065017
  74.0059987  25.1725006 110.9065017  72.8089987  26.0995006 110.9065017
  73.1179987  25.8985006 113.6955017  74.0749987  25.8985006 113.6955017
  72.8779987  26.8255006 113.6955017  57.3609987  24.4235006 117.2035017
  58.3179987  24.4235006 117.2035017  57.1209987  25.3505006 117.2035017
  75.3819987  19.9395006 119.0425017  76.3389987  19.9395006 119.0425017
  75.1419987  20.8665006 119.0425017  73.0929987  21.9005006 105.5025017
  74.0499987  21.9005006 105.5025017  72.8529987  22.8275006 105.5025017
  58.5669987  22.7155006 110.0635017  59.5239987  22.7155006 110.0635017
  58.3269987  23.6425006 110.0635017  56.8559987  25.7095006 111.1145017
  57.8129987  25.7095006 111.1145017  56.6159987  26.6365006 111.1145017
  74.9119987  22.0455006 117.3945017  75.8689987  22.0455006 117.3945017
  74.6719987  22.9725006 117.3945017  57.2169987  21.9935006 105.1715017
  58.1739987  21.9935006 105.1715017  56.9769987  22.9205006 105.1715017
  71.9579987  36.9365006 107.1045017  72.9149987  36.9365006 107.1045017
  71.7179987  37.8635006 107.1045017  57.1739987  20.6525006 113.4905017
  58.1309987  20.6525006 113.4905017  56.9339987  21.5795006 113.4905017
  59.3949987  33.8385006 117.6475017  60.3519987  33.8385006 117.6475017
  59.1549987  34.7655006 117.6475017  62.3059987  34.8335006 113.9195017
  63.2629987  34.8335006 113.9195017  62.0659987  35.7605006 113.9195017
  66.6199987  36.2405006 116.8455017  67.5769987  36.2405006 116.8455017
  66.3799987  37.1675006 116.8455017  68.9169987  37.4965006 116.1585017
  69.8739987  37.4965006 116.1585017  68.6769987  38.4235006 116.1585017
  73.9239987  20.1415006 115.2305017  74.8809987  20.1415006 115.2305017
  73.6839987  21.0685006 115.2305017  59.7319987  38.0915006 113.9335017
  60.6889987  38.0915006 113.9335017  59.4919987  39.0185006 113.9335017
  62.2009987  37.6625006 112.9915017  63.1579987  37.6625006 112.9915017
  61.9609987  38.5895006 112.9915017  66.8159987  37.5315006 112.1895017
  67.7729987  37.5315006 112.1895017  66.5759987  38.4585006 112.1895017
  59.1549987  36.7285006 110.8705017  60.1119987  36.7285006 110.8705017
  58.9149987  37.6555006 110.8705017  61.2509987  35.4395006 109.5105017
  62.2079987  35.4395006 109.5105017  61.0109987  36.3665006 109.5105017
  63.8399987  35.9205006 110.3815017  64.7969987  35.9205006 110.3815017
  63.5999987  36.8475006 110.3815017  67.3219987  21.5685006 109.5355017
  68.2789987  21.5685006 109.5355017  67.0819987  22.4955006 109.5355017
  72.4559987  19.6335006 109.6125017  73.4129987  19.6335006 109.6125017
  72.2159987  20.5605006 109.6125017  74.1369987  20.8535006 107.8945017
  75.0939987  20.8535006 107.8945017  73.8969987  21.7805006 107.8945017
  59.6719987  20.2015006 107.3845017  60.6289987  20.2015006 107.3845017
  59.4319987  21.1285006 107.3845017  58.4139987  19.9575006 103.0845017
  59.3709987  19.9575006 103.0845017  58.1739987  20.8845006 103.0845017
  64.1759987  20.1245006 107.1655017  65.1329987  20.1245006 107.1655017
  63.9359987  21.0515006 107.1655017  69.8479987  20.1485006 108.8025017
  70.8049987  20.1485006 108.8025017  69.6079987  21.0755006 108.8025017
  71.1559987  20.1745006 104.4435017  72.1129987  20.1745006 104.4435017
  70.9159987  21.1015006 104.4435017  58.3729987  35.9105006 104.0655017
  59.3299987  35.9105006 104.0655017  58.1329987  36.8375006 104.0655017
  65.3659987  22.1555006 104.0345017  66.3229987  22.1555006 104.0345017
  65.1259987  23.0825006 104.0345017  73.9509987  36.7265006 105.1255017
  74.9079987  36.7265006 105.1255017  73.7109987  37.6535006 105.1255017
  59.5799987  20.7375006 116.8315017  60.5369987  20.7375006 116.8315017
  59.3399987  21.6645006 116.8315017  61.5829987  20.1125006 118.4445017
  62.5399987  20.1125006 118.4445017  61.3429987  21.0395006 118.4445017
  69.9859987  19.4215006 118.6125017  70.9429987  19.4215006 118.6125017
  69.7459987  20.3485006 118.6125017  73.1899987  35.4625006 117.2545017
  74.1469987  35.4625006 117.2545017  72.9499987  36.3895006 117.2545017
  87.6309987  29.3425006 107.2535017  88.5879987  29.3425006 107.2535017
  87.3909987  30.2695006 107.2535017  86.4949987  28.6045006 110.7325017
  87.4519987  28.6045006 110.7325017  86.2549987  29.5315006 110.7325017
  78.8519987  28.2585006 112.2905017  79.8089987  28.2585006 112.2905017
  78.6119987  29.1855006 112.2905017  90.1959987  31.5435006 109.0145017
  91.1529987  31.5435006 109.0145017  89.9559987  32.4705006 109.0145017
  79.7789987  32.7085006 110.8125017  80.7359987  32.7085006 110.8125017
  79.5389987  33.6355006 110.8125017  76.4149987  26.2895006 106.2795017
  77.3719987  26.2895006 106.2795017  76.1749987  27.2165006 106.2795017
  77.1189987  28.5025006 108.4045017  78.0759987  28.5025006 108.4045017
  76.8789987  29.4295006 108.4045017  87.3059987  36.6955006 109.2505017
  88.2629987  36.6955006 109.2505017  87.0659987  37.6225006 109.2505017
  84.8719987  31.0115006 111.1795017  85.8289987  31.0115006 111.1795017
  84.6319987  31.9385006 111.1795017  93.4949987  22.6445006 111.9465017
  94.4519987  22.6445006 111.9465017  93.2549987  23.5715006 111.9465017
  88.0429987  25.4715006 111.5025017  88.9999987  25.4715006 111.5025017
  87.8029987  26.3985006 111.5025017  81.1569987  23.5525006 108.7405017
  82.1139987  23.5525006 108.7405017  80.9169987  24.4795006 108.7405017
  88.8989987  23.6385006 107.0985017  89.8559987  23.6385006 107.0985017
  88.6589987  24.5655006 107.0985017  77.7829987  25.9585006 109.4775017
  78.7399987  25.9585006 109.4775017  77.5429987  26.8855006 109.4775017
  82.9419987  27.5105006 108.7765017  83.8989987  27.5105006 108.7765017
  82.7019987  28.4375006 108.7765017  93.9459987  24.0945006 114.2055017
  94.9029987  24.0945006 114.2055017  93.7059987  25.0215006 114.2055017
  80.0459987  22.4495006 112.7825017  81.0029987  22.4495006 112.7825017
  79.8059987  23.3765006 112.7825017  87.3619987  31.9365006 106.3325017
  88.3189987  31.9365006 106.3325017  87.1219987  32.8635006 106.3325017
  82.5779987  30.0975006 113.0375017  83.5349987  30.0975006 113.0375017
  82.3379987  31.0245006 113.0375017  90.6939987  22.9805006 109.0935017
  91.6509987  22.9805006 109.0935017  90.4539987  23.9075006 109.0935017
  79.6079987  24.3195006 110.7915017  80.5649987  24.3195006 110.7915017
  79.3679987  25.2465006 110.7915017  81.0149987  32.0875006 113.8475017
  81.9719987  32.0875006 113.8475017  80.7749987  33.0145006 113.8475017
  77.0949987  31.7305006 104.6235017  78.0519987  31.7305006 104.6235017
  76.8549987  32.6575006 104.6235017  90.7179987  33.3775006 111.3835017
  91.6749987  33.3775006 111.3835017  90.4779987  34.3045006 111.3835017
  91.0599987  21.6915006 112.8215017  92.0169987  21.6915006 112.8215017
  90.8199987  22.6185006 112.8215017  83.9909987  19.7865006 110.2025017
  84.9479987  19.7865006 110.2025017  83.7509987  20.7135006 110.2025017
  88.9709987  35.1635006 107.9875017  89.9279987  35.1635006 107.9875017
  88.7309987  36.0905006 107.9875017  90.1699987  33.0925006 106.5005017
  91.1269987  33.0925006 106.5005017  89.9299987  34.0195006 106.5005017
  91.8079987  31.6715006 114.9885017  92.7649987  31.6715006 114.9885017
  91.5679987  32.5985006 114.9885017  86.2879987  28.5825006 104.7365017
  87.2449987  28.5825006 104.7365017  86.0479987  29.5095006 104.7365017
  93.6829987  27.9855006 113.0425017  94.6399987  27.9855006 113.0425017
  93.4429987  28.9125006 113.0425017  89.7159987  28.7695006 105.6725017
  90.6729987  28.7695006 105.6725017  89.4759987  29.6965006 105.6725017
  89.6599987  26.9535006 114.7875017  90.6169987  26.9535006 114.7875017
  89.4199987  27.8805006 114.7875017  81.3509987  29.4515006 107.5875017
  82.3079987  29.4515006 107.5875017  81.1109987  30.3785006 107.5875017
  82.6819987  32.8495006 110.2695017  83.6389987  32.8495006 110.2695017
  82.4419987  33.7765006 110.2695017  81.6909987  28.1945006 111.2395017
  82.6479987  28.1945006 111.2395017  81.4509987  29.1215006 111.2395017
  88.0819987  33.7545006 111.9495017  89.0389987  33.7545006 111.9495017
  87.8419987  34.6815006 111.9495017  82.6299987  32.6165006 115.9435017
  83.5869987  32.6165006 115.9435017  82.3899987  33.5435006 115.9435017
  88.6039987  27.9765006 103.3555017  89.5609987  27.9765006 103.3555017
  88.3639987  28.9035006 103.3555017  79.5639987  28.7845006 115.1195017
  80.5209987  28.7845006 115.1195017  79.3239987  29.7115006 115.1195017
  86.3249987  34.7015006 106.8225017  87.2819987  34.7015006 106.8225017
  86.0849987  35.6285006 106.8225017  80.8719987  34.6675006 116.6975017
  81.8289987  34.6675006 116.6975017  80.6319987  35.5945006 116.6975017
  92.3029987  19.7015006 103.1815017  93.2599987  19.7015006 103.1815017
  92.0629987  20.6285006 103.1815017  80.3349987  28.4665006 105.1955017
  81.2919987  28.4665006 105.1955017  80.0949987  29.3935006 105.1955017
  76.4179987  30.8965006 114.0705017  77.3749987  30.8965006 114.0705017
  76.1779987  31.8235006 114.0705017  76.1799987  33.6285006 110.8825017
  77.1369987  33.6285006 110.8825017  75.9399987  34.5555006 110.8825017
  94.4129987  34.3355006 116.5615017  95.3699987  34.3355006 116.5615017
  94.1729987  35.2625006 116.5615017  85.3699987  33.8795006 115.4255017
  86.3269987  33.8795006 115.4255017  85.1299987  34.8065006 115.4255017
  85.7999987  37.6255006 105.2155017  86.7569987  37.6255006 105.2155017
  85.5599987  38.5525006 105.2155017  79.4859987  36.4395006 107.0295017
  80.4429987  36.4395006 107.0295017  79.2459987  37.3665006 107.0295017
  88.8329987  36.8065006 102.2175017  89.7899987  36.8065006 102.2175017
  88.5929987  37.7335006 102.2175017  88.5589987  36.7725006 105.0005017
  89.5159987  36.7725006 105.0005017  88.3189987  37.6995006 105.0005017
  91.5539987  25.8075006 117.0415017  92.5109987  25.8075006 117.0415017
  91.3139987  26.7345006 117.0415017  78.6909987  32.2155006 115.0345017
  79.6479987  32.2155006 115.0345017  78.4509987  33.1425006 115.0345017
  81.3619987  20.6765006 111.0015017  82.3189987  20.6765006 111.0015017
  81.1219987  21.6035006 111.0015017  85.9969987  20.4165006 114.4105017
  86.9539987  20.4165006 114.4105017  85.7569987  21.3435006 114.4105017
  89.3089987  24.1845006 115.2525017  90.2659987  24.1845006 115.2525017
  89.0689987  25.1115006 115.2525017  81.4619987  25.6455006 112.2105017
  82.4189987  25.6455006 112.2105017  81.2219987  26.5725006 112.2105017
  81.4239987  25.8085006 107.0935017  82.3809987  25.8085006 107.0935017
  81.1839987  26.7355006 107.0935017  86.9319987  26.2665006 105.8525017
  87.8889987  26.2665006 105.8525017  86.6919987  27.1935006 105.8525017
  86.0229987  26.4815006 117.3225017  86.9799987  26.4815006 117.3225017
  85.7829987  27.4085006 117.3225017  87.9759987  25.7555006 108.7055017
  88.9329987  25.7555006 108.7055017  87.7359987  26.6825006 108.7055017
  79.1099987  25.9295006 113.9425017  80.0669987  25.9295006 113.9425017
  78.8699987  26.8565006 113.9425017  75.7519987  23.0345006 107.8795017
  76.7089987  23.0345006 107.8795017  75.5119987  23.9615006 107.8795017
  77.0139987  23.7755006 103.2815017  77.9709987  23.7755006 103.2815017
  76.7739987  24.7025006 103.2815017  87.1929987  27.3595006 113.2985017
  88.1499987  27.3595006 113.2985017  86.9529987  28.2865006 113.2985017
  83.9819987  23.3205006 108.1265017  84.9389987  23.3205006 108.1265017
  83.7419987  24.2475006 108.1265017  78.8069987  24.8935006 106.9625017
  79.7639987  24.8935006 106.9625017  78.5669987  25.8205006 106.9625017
  82.4349987  24.9235006 104.5845017  83.3919987  24.9235006 104.5845017
  82.1949987  25.8505006 104.5845017  88.4049987  22.7185006 111.3415017
  89.3619987  22.7185006 111.3415017  88.1649987  23.6455006 111.3415017
  81.1949987  26.0295006 102.1975017  82.1519987  26.0295006 102.1975017
  80.9549987  26.9565006 102.1975017  91.6109987  38.2035006 117.6775017
  92.5679987  38.2035006 117.6775017  91.3709987  39.1305006 117.6775017
  79.2799987  30.6665006 117.2485017  80.2369987  30.6665006 117.2485017
  79.0399987  31.5935006 117.2485017  85.2789987  26.0815006 110.0065017
  86.2359987  26.0815006 110.0065017  85.0389987  27.0085006 110.0065017
  80.2939987  22.2275006 106.4445017  81.2509987  22.2275006 106.4445017
  80.0539987  23.1545006 106.4445017  83.9179987  24.4315006 112.4175017
  84.8749987  24.4315006 112.4175017  83.6779987  25.3585006 112.4175017
  84.5059987  30.6235006 104.0965017  85.4629987  30.6235006 104.0965017
  84.2659987  31.5505006 104.0965017  91.6669987  29.8225006 112.9195017
  92.6239987  29.8225006 112.9195017  91.4269987  30.7495006 112.9195017
  88.3399987  23.4475006 102.2935017  89.2969987  23.4475006 102.2935017
  88.0999987  24.3745006 102.2935017  85.9909987  30.8855006 115.3555017
  86.9479987  30.8855006 115.3555017  85.7509987  31.8125006 115.3555017
  89.0759987  25.3455006 103.9495017  90.0329987  25.3455006 103.9495017
  88.8359987  26.2725006 103.9495017  79.6069987  30.0145006 109.9105017
  80.5639987  30.0145006 109.9105017  79.3669987  30.9415006 109.9105017
  86.6249987  32.1085006 103.1745017  87.5819987  32.1085006 103.1745017
  86.3849987  33.0355006 103.1745017  76.5999987  28.4375006 115.1845017
  77.5569987  28.4375006 115.1845017  76.3599987  29.3645006 115.1845017
  83.6129987  27.9895006 117.3755017  84.5699987  27.9895006 117.3755017
  83.3729987  28.9165006 117.3755017  88.2839987  33.3215006 115.2975017
  89.2409987  33.3215006 115.2975017  88.0439987  34.2485006 115.2975017
  94.0369987  25.5315006 103.6615017  94.9939987  25.5315006 103.6615017
  93.7969987  26.4585006 103.6615017  93.9519987  31.3745006 116.5155017
  94.9089987  31.3745006 116.5155017  93.7119987  32.3015006 116.5155017
  92.2849987  34.3505006 104.1135017  93.2419987  34.3505006 104.1135017
  92.0449987  35.2775006 104.1135017  89.4589987  29.1555006 111.1915017
  90.4159987  29.1555006 111.1915017  89.2189987  30.0825006 111.1915017
  83.4159987  31.1405006 106.8445017  84.3729987  31.1405006 106.8445017
  83.1759987  32.0675006 106.8445017  83.8589987  35.3225006 113.2145017
  84.8159987  35.3225006 113.2145017  83.6189987  36.2495006 113.2145017
  82.1049987  36.1235006 106.3975017  83.0619987  36.1235006 106.3975017
  81.8649987  37.0505006 106.3975017  87.4009987  31.3535006 112.8565017
  88.3579987  31.3535006 112.8565017  87.1609987  32.2805006 112.8565017
  89.6249987  32.3095006 101.9295017  90.5819987  32.3095006 101.9295017
  89.3849987  33.2365006 101.9295017  90.1689987  35.9235006 115.3505017
  91.1259987  35.9235006 115.3505017  89.9289987  36.8505006 115.3505017
  94.2309987  36.7845006 102.2665017  95.1879987  36.7845006 102.2665017
  93.9909987  37.7115006 102.2665017  78.2489987  23.1755006 114.7325017
  79.2059987  23.1755006 114.7325017  78.0089987  24.1025006 114.7325017
  90.4849987  31.0335006 104.2095017  91.4419987  31.0335006 104.2095017
  90.2449987  31.9605006 104.2095017  77.8729987  34.9675006 113.1635017
  78.8299987  34.9675006 113.1635017  77.6329987  35.8945006 113.1635017
  82.6289987  33.0385006 102.8795017  83.5859987  33.0385006 102.8795017
  82.3889987  33.9655006 102.8795017  79.1819987  30.2605006 103.4485017
  80.1389987  30.2605006 103.4485017  78.9419987  31.1875006 103.4485017
  86.9549987  22.9645006 113.7005017  87.9119987  22.9645006 113.7005017
  86.7149987  23.8915006 113.7005017  87.7689987  22.5105006 104.7595017
  88.7259987  22.5105006 104.7595017  87.5289987  23.4375006 104.7595017
  85.4429987  34.7105006 103.5895017  86.3999987  34.7105006 103.5895017
  85.2029987  35.6375006 103.5895017  84.9449987  24.2895006 105.5745017
  85.9019987  24.2895006 105.5745017  84.7049987  25.2165006 105.5745017
  85.5059987  25.2855006 114.7735017  86.4629987  25.2855006 114.7735017
  85.2659987  26.2125006 114.7735017  85.8129987  21.3395006 106.4725017
  86.7699987  21.3395006 106.4725017  85.5729987  22.2665006 106.4725017
  82.8219987  35.7495006 103.6255017  83.7789987  35.7495006 103.6255017
  82.5819987  36.6765006 103.6255017  81.5009987  22.4425006 103.1795017
  82.4579987  22.4425006 103.1795017  81.2609987  23.3695006 103.1795017
  91.7009987  23.1655006 115.6255017  92.6579987  23.1655006 115.6255017
  91.4609987  24.0925006 115.6255017  90.3069987  26.9465006 109.6445017
  91.2639987  26.9465006 109.6445017  90.0669987  27.8735006 109.6445017
  91.3669987  36.1955006 111.3165017  92.3239987  36.1955006 111.3165017
  91.1269987  37.1225006 111.3165017  78.8649987  20.3285006 110.0955017
  79.8219987  20.3285006 110.0955017  78.6249987  21.2555006 110.0955017
  77.7959987  34.2045006 106.2095017  78.7529987  34.2045006 106.2095017
  77.5559987  35.1315006 106.2095017  77.0399987  36.8965006 117.5475017
  77.9969987  36.8965006 117.5475017  76.7999987  37.8235006 117.5475017
  81.6939987  35.8135006 119.1645017  82.6509987  35.8135006 119.1645017
  81.4539987  36.7405006 119.1645017  85.7899987  35.2935006 100.5585017
  86.7469987  35.2935006 100.5585017  85.5499987  36.2205006 100.5585017
  88.2259987  34.1945006 117.8945017  89.1829987  34.1945006 117.8945017
  87.9859987  35.1215006 117.8945017  76.9589987  30.6795006 118.5325017
  77.9159987  30.6795006 118.5325017  76.7189987  31.6065006 118.5325017
  83.6549987  30.6585006 117.9305017  84.6119987  30.6585006 117.9305017
  83.4149987  31.5855006 117.9305017  89.3589987  30.5285006 115.3165017
  90.3159987  30.5285006 115.3165017  89.1189987  31.4555006 115.3165017
  77.8499987  27.8975006 117.9195017  78.8069987  27.8975006 117.9195017
  77.6099987  28.8245006 117.9195017  82.5849987  28.9905006 103.0115017
  83.5419987  28.9905006 103.0115017  82.3449987  29.9175006 103.0115017
  81.7619987  26.8545006 115.2855017  82.7189987  26.8545006 115.2855017
  81.5219987  27.7815006 115.2855017  86.8179987  29.3995006 118.6005017
  87.7749987  29.3995006 118.6005017  86.5779987  30.3265006 118.6005017
  82.1549987  24.2285006 116.3535017  83.1119987  24.2285006 116.3535017
  81.9149987  25.1555006 116.3535017  82.5549987  22.6085006 113.8855017
  83.5119987  22.6085006 113.8855017  82.3149987  23.5355006 113.8855017
  84.1049987  28.0745006 114.1325017  85.0619987  28.0745006 114.1325017
  83.8649987  29.0015006 114.1325017  88.5039987  25.8535006 119.1085017
  89.4609987  25.8535006 119.1085017  88.2639987  26.7805006 119.1085017
  89.8309987  28.6345006 117.2435017  90.7879987  28.6345006 117.2435017
  89.5909987  29.5615006 117.2435017  80.6139987  25.4705006 118.2665017
  81.5709987  25.4705006 118.2665017  80.3739987  26.3975006 118.2665017
  83.3249987  20.0465006 114.3265017  84.2819987  20.0465006 114.3265017
  83.0849987  20.9735006 114.3265017  84.6179987  24.3705006 117.8905017
  85.5749987  24.3705006 117.8905017  84.3779987  25.2975006 117.8905017
  87.3409987  23.5125006 116.9805017  88.2979987  23.5125006 116.9805017
  87.1009987  24.4395006 116.9805017  88.9209987  22.2215006 118.9135017
  89.8779987  22.2215006 118.9135017  88.6809987  23.1485006 118.9135017
  78.7099987  23.3965006 118.0005017  79.6669987  23.3965006 118.0005017
  78.4699987  24.3235006 118.0005017  83.5179987  19.3685006 116.9775017
  84.4749987  19.3685006 116.9775017  83.2779987  20.2955006 116.9775017
  83.9099987  21.0445006 119.0755017  84.8669987  21.0445006 119.0755017
  83.6699987  21.9715006 119.0755017  75.6359987  37.9525006 106.7575017
  76.5929987  37.9525006 106.7575017  75.3959987  38.8795006 106.7575017
  76.5469987  36.0525006 108.5695017  77.5039987  36.0525006 108.5695017
  76.3069987  36.9795006 108.5695017  94.0859987  36.8465006 111.5165017
  95.0429987  36.8465006 111.5165017  93.8459987  37.7735006 111.5165017
  93.6619987  36.4445006 114.4595017  94.6189987  36.4445006 114.4595017
  93.4219987  37.3715006 114.4595017  92.1069987  32.1755006 119.1155017
  93.0639987  32.1755006 119.1155017  91.8669987  33.1025006 119.1155017
  93.4209987  30.4595006 104.5755017  94.3779987  30.4595006 104.5755017
  93.1809987  31.3865006 104.5755017  93.8069987  28.5235006 106.4085017
  94.7639987  28.5235006 106.4085017  93.5669987  29.4505006 106.4085017
  93.5439987  31.2745006 111.4205017  94.5009987  31.2745006 111.4205017
  93.3039987  32.2015006 111.4205017  92.0899987  34.1715006 113.7025017
  93.0469987  34.1715006 113.7025017  91.8499987  35.0985006 113.7025017
  94.1209987  28.3905006 102.8275017  95.0779987  28.3905006 102.8275017
  93.8809987  29.3175006 102.8275017  91.6209987  27.0275006 106.9845017
  92.5779987  27.0275006 106.9845017  91.3809987  27.9545006 106.9845017
  76.6059987  29.1275006 111.0585017  77.5629987  29.1275006 111.0585017
  76.3659987  30.0545006 111.0585017  92.4529987  29.0115006 116.6825017
  93.4099987  29.0115006 116.6825017  92.2129987  29.9385006 116.6825017
  93.9609987  26.9045006 117.3475017  94.9179987  26.9045006 117.3475017
  93.7209987  27.8315006 117.3475017  91.2799987  24.6185006 105.4395017
  92.2369987  24.6185006 105.4395017  91.0399987  25.5455006 105.4395017
  91.9049987  25.1725006 110.9065017  92.8619987  25.1725006 110.9065017
  91.6649987  26.0995006 110.9065017  91.9739987  25.8985006 113.6955017
  92.9309987  25.8985006 113.6955017  91.7339987  26.8255006 113.6955017
  76.2179987  24.4255006 117.2035017  77.1749987  24.4255006 117.2035017
  75.9779987  25.3525006 117.2035017  94.2639987  19.9465006 119.0435017
  95.2209987  19.9465006 119.0435017  94.0239987  20.8735006 119.0435017
  91.9599987  21.9035006 105.4685017  92.9169987  21.9035006 105.4685017
  91.7199987  22.8305006 105.4685017  77.4229987  22.7145006 110.0635017
  78.3799987  22.7145006 110.0635017  77.1829987  23.6415006 110.0635017
  75.7119987  25.7085006 111.1145017  76.6689987  25.7085006 111.1145017
  75.4719987  26.6355006 111.1145017  93.7639987  22.0415006 117.3975017
  94.7209987  22.0415006 117.3975017  93.5239987  22.9685006 117.3975017
  76.0719987  21.9855006 105.1845017  77.0289987  21.9855006 105.1845017
  75.8319987  22.9125006 105.1845017  90.8139987  36.9295006 107.1345017
  91.7709987  36.9295006 107.1345017  90.5739987  37.8565006 107.1345017
  76.0299987  20.6535006 113.4905017  76.9869987  20.6535006 113.4905017
  75.7899987  21.5805006 113.4905017  78.2499987  33.8395006 117.6475017
  79.2069987  33.8395006 117.6475017  78.0099987  34.7665006 117.6475017
  81.1609987  34.8345006 113.9225017  82.1179987  34.8345006 113.9225017
  80.9209987  35.7615006 113.9225017  85.4809987  36.2595006 116.8375017
  86.4379987  36.2595006 116.8375017  85.2409987  37.1865006 116.8375017
  87.7789987  37.5295006 116.1265017  88.7359987  37.5295006 116.1265017
  87.5389987  38.4565006 116.1265017  92.7769987  20.1465006 115.2255017
  93.7339987  20.1465006 115.2255017  92.5369987  21.0735006 115.2255017
  78.5849987  38.0835006 113.9295017  79.5419987  38.0835006 113.9295017
  78.3449987  39.0105006 113.9295017  81.0569987  37.6615006 112.9965017
  82.0139987  37.6615006 112.9965017  80.8169987  38.5885006 112.9965017
  85.7599987  37.5725006 112.1625017  86.7169987  37.5725006 112.1625017
  85.5199987  38.4995006 112.1625017  88.0659987  36.4025006 113.1595017
  89.0229987  36.4025006 113.1595017  87.8259987  37.3295006 113.1595017
  90.6459987  37.9685006 113.4175017  91.6029987  37.9685006 113.4175017
  90.4059987  38.8955006 113.4175017  78.0239987  36.7235006 110.8755017
  78.9809987  36.7235006 110.8755017  77.7839987  37.6505006 110.8755017
  80.1149987  35.4435006 109.5215017  81.0719987  35.4435006 109.5215017
  79.8749987  36.3705006 109.5215017  82.7129987  35.9245006 110.3865017
  83.6699987  35.9245006 110.3865017  82.4729987  36.8515006 110.3865017
  86.1239987  21.6105006 109.4415017  87.0809987  21.6105006 109.4415017
  85.8839987  22.5375006 109.4415017  91.3289987  19.6225006 109.5965017
  92.2859987  19.6225006 109.5965017  91.0889987  20.5495006 109.5965017
  92.9759987  20.8635006 107.8825017  93.9329987  20.8635006 107.8825017
  92.7359987  21.7905006 107.8825017  78.5439987  20.2065006 107.3655017
  79.5009987  20.2065006 107.3655017  78.3039987  21.1335006 107.3655017
  83.0529987  20.0985006 107.1555017  84.0099987  20.0985006 107.1555017
  82.8129987  21.0255006 107.1555017  88.7659987  20.1635006 108.7025017
  89.7229987  20.1635006 108.7025017  88.5259987  21.0905006 108.7025017
  89.9879987  20.1615006 104.4035017  90.9449987  20.1615006 104.4035017
  89.7479987  21.0885006 104.4035017  77.2359987  35.9105006 104.0825017
  78.1929987  35.9105006 104.0825017  76.9959987  36.8375006 104.0825017
  79.1669987  21.8805006 101.5835017  80.1239987  21.8805006 101.5835017
  78.9269987  22.8075006 101.5835017  92.7929987  36.7455006 105.1805017
  93.7499987  36.7455006 105.1805017  92.5529987  37.6725006 105.1805017
  78.4329987  20.7415006 116.8305017  79.3899987  20.7415006 116.8305017
  78.1929987  21.6685006 116.8305017  80.4389987  20.1055006 118.4325017
  81.3959987  20.1055006 118.4325017  80.1989987  21.0325006 118.4325017
  89.1789987  19.7945006 118.4655017  90.1359987  19.7945006 118.4655017
  88.9389987  20.7215006 118.4655017  92.0489987  35.4565006 117.2615017
  93.0059987  35.4565006 117.2615017  91.8089987  36.3835006 117.2615017
 106.4719987  29.3095006 107.2235017 107.4289987  29.3095006 107.2235017
 106.2319987  30.2365006 107.2235017 105.2809987  28.6195006 110.7475017
 106.2379987  28.6195006 110.7475017 105.0409987  29.5465006 110.7475017
  97.7079987  28.2585006 112.2905017  98.6649987  28.2585006 112.2905017
  97.4679987  29.1855006 112.2905017  98.6349987  32.7075006 110.8135017
  99.5919987  32.7075006 110.8135017  98.3949987  33.6345006 110.8135017
  95.2549987  26.3395006 106.2625017  96.2119987  26.3395006 106.2625017
  95.0149987  27.2665006 106.2625017  95.9659987  28.4835006 108.3745017
  96.9229987  28.4835006 108.3745017  95.7259987  29.4105006 108.3745017
 106.1799987  36.6605006 109.2295017 107.1369987  36.6605006 109.2295017
 105.9399987  37.5875006 109.2295017 103.7009987  30.9995006 111.1715017
 104.6579987  30.9995006 111.1715017 103.4609987  31.9265006 111.1715017
 106.2229987  25.2255006 111.4635017 107.1799987  25.2255006 111.4635017
 105.9829987  26.1525006 111.4635017 100.0009987  23.5525006 108.7335017
 100.9579987  23.5525006 108.7335017  99.7609987  24.4795006 108.7335017
 107.7079987  24.1585006 106.7515017 108.6649987  24.1585006 106.7515017
 107.4679987  25.0855006 106.7515017  96.6349987  25.9545006 109.4745017
  97.5919987  25.9545006 109.4745017  96.3949987  26.8815006 109.4745017
 101.7869987  27.5155006 108.7635017 102.7439987  27.5155006 108.7635017
 101.5469987  28.4425006 108.7635017  98.9029987  22.4485006 112.7835017
  99.8599987  22.4485006 112.7835017  98.6629987  23.3755006 112.7835017
 106.2499987  31.9545006 106.3295017 107.2069987  31.9545006 106.3295017
 106.0099987  32.8815006 106.3295017 101.4369987  30.0985006 113.0375017
 102.3939987  30.0985006 113.0375017 101.1969987  31.0255006 113.0375017
  98.4629987  24.3185006 110.7935017  99.4199987  24.3185006 110.7935017
  98.2229987  25.2455006 110.7935017  99.8709987  32.0875006 113.8475017
 100.8279987  32.0875006 113.8475017  99.6309987  33.0145006 113.8475017
  95.9219987  31.7175006 104.6425017  96.8789987  31.7175006 104.6425017
  95.6819987  32.6445006 104.6425017 102.8779987  19.7805006 110.2475017
 103.8349987  19.7805006 110.2475017 102.6379987  20.7075006 110.2475017
 107.5109987  34.9765006 107.5615017 108.4679987  34.9765006 107.5615017
 107.2709987  35.9035006 107.5615017 105.1479987  28.6035006 104.7475017
 106.1049987  28.6035006 104.7475017 104.9079987  29.5305006 104.7475017
 105.2209987  27.0825006 101.8015017 106.1779987  27.0825006 101.8015017
 104.9809987  28.0095006 101.8015017 100.2079987  29.4585006 107.5965017
 101.1649987  29.4585006 107.5965017  99.9679987  30.3855006 107.5965017
 101.5379987  32.8475006 110.2725017 102.4949987  32.8475006 110.2725017
 101.2979987  33.7745006 110.2725017 100.5469987  28.1935006 111.2395017
 101.5039987  28.1935006 111.2395017 100.3069987  29.1205006 111.2395017
 106.5359987  33.7785006 111.9915017 107.4929987  33.7785006 111.9915017
 106.2959987  34.7055006 111.9915017 101.4859987  32.6175006 115.9425017
 102.4429987  32.6175006 115.9425017 101.2459987  33.5445006 115.9425017
 107.4729987  27.9585006 103.3575017 108.4299987  27.9585006 103.3575017
 107.2329987  28.8855006 103.3575017  98.4199987  28.7835006 115.1195017
  99.3769987  28.7835006 115.1195017  98.1799987  29.7105006 115.1195017
 105.0839987  34.7045006 106.8135017 106.0409987  34.7045006 106.8135017
 104.8439987  35.6315006 106.8135017  99.7269987  34.6675006 116.6975017
 100.6839987  34.6675006 116.6975017  99.4869987  35.5945006 116.6975017
  99.1659987  28.4865006 105.2045017 100.1229987  28.4865006 105.2045017
  98.9259987  29.4135006 105.2045017  95.2739987  30.8945006 114.0705017
  96.2309987  30.8945006 114.0705017  95.0339987  31.8215006 114.0705017
  95.0359987  33.6325006 110.8765017  95.9929987  33.6325006 110.8765017
  94.7959987  34.5595006 110.8765017 104.2419987  33.8785006 115.4465017
 105.1989987  33.8785006 115.4465017 104.0019987  34.8055006 115.4465017
 104.5969987  37.6515006 105.2265017 105.5539987  37.6515006 105.2265017
 104.3569987  38.5785006 105.2265017  98.3139987  36.5015006 107.0385017
  99.2709987  36.5015006 107.0385017  98.0739987  37.4285006 107.0385017
 107.6999987  36.8635006 102.2355017 108.6569987  36.8635006 102.2355017
 107.4599987  37.7905006 102.2355017 107.2289987  36.5665006 104.8275017
 108.1859987  36.5665006 104.8275017 106.9889987  37.4935006 104.8275017
  97.5479987  32.2155006 115.0365017  98.5049987  32.2155006 115.0365017
  97.3079987  33.1425006 115.0365017 100.2179987  20.6815006 110.9935017
 101.1749987  20.6815006 110.9935017  99.9779987  21.6085006 110.9935017
 104.8979987  20.3535006 114.3735017 105.8549987  20.3535006 114.3735017
 104.6579987  21.2805006 114.3735017 100.3049987  25.6425006 112.2125017
 101.2619987  25.6425006 112.2125017 100.0649987  26.5695006 112.2125017
 100.2769987  25.8125006 107.0855017 101.2339987  25.8125006 107.0855017
 100.0369987  26.7395006 107.0855017 105.7679987  26.2605006 105.8415017
 106.7249987  26.2605006 105.8415017 105.5279987  27.1875006 105.8415017
 104.8989987  26.5075006 117.3555017 105.8559987  26.5075006 117.3555017
 104.6589987  27.4345006 117.3555017 106.7769987  25.7365006 108.7045017
 107.7339987  25.7365006 108.7045017 106.5369987  26.6635006 108.7045017
  97.9659987  25.9295006 113.9425017  98.9229987  25.9295006 113.9425017
  97.7259987  26.8565006 113.9425017 101.3589987  23.3185006 100.7895017
 102.3159987  23.3185006 100.7895017 101.1189987  24.2455006 100.7895017
  94.6359987  23.0865006 107.8485017  95.5929987  23.0865006 107.8485017
  94.3959987  24.0135006 107.8485017  95.7329987  23.6565006 102.9655017
  96.6899987  23.6565006 102.9655017  95.4929987  24.5835006 102.9655017
 106.0439987  27.3565006 113.3175017 107.0009987  27.3565006 113.3175017
 105.8039987  28.2835006 113.3175017 102.8459987  23.3055006 108.1105017
 103.8029987  23.3055006 108.1105017 102.6059987  24.2325006 108.1105017
  97.7179987  24.8995006 107.0195017  98.6749987  24.8995006 107.0195017
  97.4779987  25.8265006 107.0195017 101.2809987  24.9295006 104.6175017
 102.2379987  24.9295006 104.6175017 101.0409987  25.8565006 104.6175017
 107.2399987  22.5065006 111.4175017 108.1969987  22.5065006 111.4175017
 106.9999987  23.4335006 111.4175017  98.1359987  30.6705006 117.2485017
  99.0929987  30.6705006 117.2485017  97.8959987  31.5975006 117.2485017
 104.0939987  26.0765006 109.9655017 105.0509987  26.0765006 109.9655017
 103.8539987  27.0035006 109.9655017  99.1049987  22.2585006 106.3755017
 100.0619987  22.2585006 106.3755017  98.8649987  23.1855006 106.3755017
 102.7579987  24.4195006 112.4205017 103.7149987  24.4195006 112.4205017
 102.5179987  25.3465006 112.4205017 103.3449987  30.6385006 104.1055017
 104.3019987  30.6385006 104.1055017 103.1049987  31.5655006 104.1055017
 104.8409987  30.8665006 115.3485017 105.7979987  30.8665006 115.3485017
 104.6009987  31.7935006 115.3485017   0.1099987  25.4595006 104.0145017
   1.0669987  25.4595006 104.0145017  -0.1300013  26.3865006 104.0145017
  98.4579987  30.0125006 109.9085017  99.4149987  30.0125006 109.9085017
  98.2179987  30.9395006 109.9085017  95.4559987  28.4375006 115.1835017
  96.4129987  28.4375006 115.1835017  95.2159987  29.3645006 115.1835017
 102.4719987  27.9885006 117.3735017 103.4289987  27.9885006 117.3735017
 102.2319987  28.9155006 117.3735017 107.1539987  33.3625006 115.2835017
 108.1109987  33.3625006 115.2835017 106.9139987  34.2895006 115.2835017
 100.8169987  33.4875006 107.3255017 101.7739987  33.4875006 107.3255017
 100.5769987  34.4145006 107.3255017 102.2559987  31.1455006 106.8345017
 103.2129987  31.1455006 106.8345017 102.0159987  32.0725006 106.8345017
 102.7069987  35.3215006 113.2145017 103.6639987  35.3215006 113.2145017
 102.4669987  36.2485006 113.2145017 100.9559987  36.1945006 106.3465017
 101.9129987  36.1945006 106.3465017 100.7159987  37.1215006 106.3465017
 106.2749987  31.3315006 112.8725017 107.2319987  31.3315006 112.8725017
 106.0349987  32.2585006 112.8725017  97.1119987  23.1695006 114.7305017
  98.0689987  23.1695006 114.7305017  96.8719987  24.0965006 114.7305017
  96.7279987  34.9685006 113.1635017  97.6849987  34.9685006 113.1635017
  96.4879987  35.8955006 113.1635017 101.4449987  33.0205006 102.8965017
 102.4019987  33.0205006 102.8965017 101.2049987  33.9475006 102.8965017
 105.8509987  22.9215006 113.6835017 106.8079987  22.9215006 113.6835017
 105.6109987  23.8485006 113.6835017 104.3349987  34.7615006 103.6455017
 105.2919987  34.7615006 103.6455017 104.0949987  35.6885006 103.6455017
 103.8179987  24.2715006 105.5915017 104.7749987  24.2715006 105.5915017
 103.5779987  25.1985006 105.5915017 104.3359987  25.2475006 114.7885017
 105.2929987  25.2475006 114.7885017 104.0959987  26.1745006 114.7885017
 104.6909987  21.3545006 106.4745017 105.6479987  21.3545006 106.4745017
 104.4509987  22.2815006 106.4745017 101.6399987  35.7485006 103.6295017
 102.5969987  35.7485006 103.6295017 101.3999987  36.6755006 103.6295017
 100.3199987  22.4215006 103.2265017 101.2769987  22.4215006 103.2265017
 100.0799987  23.3485006 103.2265017  98.5909987  32.8885006 102.2485017
  99.5479987  32.8885006 102.2485017  98.3509987  33.8155006 102.2485017
  96.8599987  25.5165006 101.4575017  97.8169987  25.5165006 101.4575017
  96.6199987  26.4435006 101.4575017  97.7229987  20.3285006 110.0995017
  98.6799987  20.3285006 110.0995017  97.4829987  21.2555006 110.0995017
  96.6619987  34.2495006 106.2605017  97.6189987  34.2495006 106.2605017
  96.4219987  35.1765006 106.2605017  95.8949987  36.8965006 117.5475017
  96.8519987  36.8965006 117.5475017  95.6549987  37.8235006 117.5475017
 100.5529987  35.8175006 119.1595017 101.5099987  35.8175006 119.1595017
 100.3129987  36.7445006 119.1595017 107.1349987  34.1985006 117.8925017
 108.0919987  34.1985006 117.8925017 106.8949987  35.1255006 117.8925017
  95.8149987  30.6795006 118.5325017  96.7719987  30.6795006 118.5325017
  95.5749987  31.6065006 118.5325017 102.4989987  30.6565006 117.9355017
 103.4559987  30.6565006 117.9355017 102.2589987  31.5835006 117.9355017
  96.7089987  27.9005006 117.9225017  97.6659987  27.9005006 117.9225017
  96.4689987  28.8275006 117.9225017 100.6179987  26.8545006 115.2845017
 101.5749987  26.8545006 115.2845017 100.3779987  27.7815006 115.2845017
 105.6759987  29.3965006 118.6325017 106.6329987  29.3965006 118.6325017
 105.4359987  30.3235006 118.6325017 101.0099987  24.2285006 116.3535017
 101.9669987  24.2285006 116.3535017 100.7699987  25.1555006 116.3535017
 101.4079987  22.6025006 113.8865017 102.3649987  22.6025006 113.8865017
 101.1679987  23.5295006 113.8865017 102.9779987  28.0745006 114.1345017
 103.9349987  28.0745006 114.1345017 102.7379987  29.0015006 114.1345017
 107.4019987  25.8625006 119.2455017 108.3589987  25.8625006 119.2455017
 107.1619987  26.7895006 119.2455017  99.4639987  25.4705006 118.2715017
 100.4209987  25.4705006 118.2715017  99.2239987  26.3975006 118.2715017
 102.2169987  20.0515006 114.2885017 103.1739987  20.0515006 114.2885017
 101.9769987  20.9785006 114.2885017 103.4749987  24.3785006 117.8935017
 104.4319987  24.3785006 117.8935017 103.2349987  25.3055006 117.8935017
 106.1369987  23.4805006 116.9525017 107.0939987  23.4805006 116.9525017
 105.8969987  24.4075006 116.9525017 107.7859987  22.1835006 118.8985017
 108.7429987  22.1835006 118.8985017 107.5459987  23.1105006 118.8985017
  97.5659987  23.3965006 118.0005017  98.5229987  23.3965006 118.0005017
  97.3259987  24.3235006 118.0005017 102.4209987  19.4035006 116.9865017
 103.3779987  19.4035006 116.9865017 102.1809987  20.3305006 116.9865017
 102.7849987  21.0455006 119.0695017 103.7419987  21.0455006 119.0695017
 102.5449987  21.9725006 119.0695017  94.5779987  37.9405006 106.7265017
  95.5349987  37.9405006 106.7265017  94.3379987  38.8675006 106.7265017
  95.4089987  36.0505006 108.5665017  96.3659987  36.0505006 108.5665017
  95.1689987  36.9775006 108.5665017  95.4629987  29.1255006 111.0555017
  96.4199987  29.1255006 111.0555017  95.2229987  30.0525006 111.0555017
  95.0739987  24.4255006 117.2035017  96.0309987  24.4255006 117.2035017
  94.8339987  25.3525006 117.2035017  96.2889987  22.7235006 110.0355017
  97.2459987  22.7235006 110.0355017  96.0489987  23.6505006 110.0355017
  94.5659987  25.7105006 111.1205017  95.5229987  25.7105006 111.1205017
  94.3259987  26.6375006 111.1205017  94.9249987  22.0525006 105.1885017
  95.8819987  22.0525006 105.1885017  94.6849987  22.9795006 105.1885017
  94.8869987  20.6535006 113.4905017  95.8439987  20.6535006 113.4905017
  94.6469987  21.5805006 113.4905017  97.1059987  33.8395006 117.6475017
  98.0629987  33.8395006 117.6475017  96.8659987  34.7665006 117.6475017
 100.0169987  34.8335006 113.9205017 100.9739987  34.8335006 113.9205017
  99.7769987  35.7605006 113.9205017 104.3349987  36.2685006 116.8615017
 105.2919987  36.2685006 116.8615017 104.0949987  37.1955006 116.8615017
 106.6879987  37.5695006 116.0885017 107.6449987  37.5695006 116.0885017
 106.4479987  38.4965006 116.0885017  97.4419987  38.0815006 113.9315017
  98.3989987  38.0815006 113.9315017  97.2019987  39.0085006 113.9315017
  99.9129987  37.6635006 112.9955017 100.8699987  37.6635006 112.9955017
  99.6729987  38.5905006 112.9955017 104.5979987  37.5715006 112.1645017
 105.5549987  37.5715006 112.1645017 104.3579987  38.4985006 112.1645017
 106.9369987  36.4385006 113.1775017 107.8939987  36.4385006 113.1775017
 106.6969987  37.3655006 113.1775017  96.8839987  36.7325006 110.8595017
  97.8409987  36.7325006 110.8595017  96.6439987  37.6595006 110.8595017
  98.9719987  35.4455006 109.5125017  99.9289987  35.4455006 109.5125017
  98.7319987  36.3725006 109.5125017 101.5379987  35.9255006 110.3835017
 102.4949987  35.9255006 110.3835017 101.2979987  36.8525006 110.3835017
 105.0059987  21.5645006 109.4985017 105.9629987  21.5645006 109.4985017
 104.7659987  22.4915006 109.4985017  97.3969987  20.2185006 107.3715017
  98.3539987  20.2185006 107.3715017  97.1569987  21.1455006 107.3715017
  96.1459987  19.9715006 103.1025017  97.1029987  19.9715006 103.1025017
  95.9059987  20.8985006 103.1025017 101.9159987  20.1165006 107.1465017
 102.8729987  20.1165006 107.1465017 101.6759987  21.0435006 107.1465017
 107.4629987  20.0685006 108.9575017 108.4199987  20.0685006 108.9575017
 107.2229987  20.9955006 108.9575017  96.1179987  35.9305006 104.1085017
  97.0749987  35.9305006 104.1085017  95.8779987  36.8575006 104.1085017
 103.0599987  22.1745006 104.0205017 104.0169987  22.1745006 104.0205017
 102.8199987  23.1015006 104.0205017  97.2919987  20.7375006 116.8305017
  98.2489987  20.7375006 116.8305017  97.0519987  21.6645006 116.8305017
  99.2959987  20.1135006 118.4455017 100.2529987  20.1135006 118.4455017
  99.0559987  21.0405006 118.4455017  -0.1140013  19.4305006 118.6185017
   0.8429987  19.4305006 118.6185017  -0.3540013  20.3575006 118.6185017
  12.1959987  48.1975006 107.2695017  13.1529987  48.1975006 107.2695017
  11.9559987  49.1245006 107.2695017  11.0859987  47.4485006 110.7315017
  12.0429987  47.4485006 110.7315017  10.8459987  48.3755006 110.7315017
   3.4769987  47.0915006 112.2655017   4.4339987  47.0915006 112.2655017
   3.2369987  48.0185006 112.2655017  14.7679987  50.3945006 109.0225017
  15.7249987  50.3945006 109.0225017  14.5279987  51.3215006 109.0225017
   4.3319987  51.5655006 110.8025017   5.2889987  51.5655006 110.8025017
   4.0919987  52.4925006 110.8025017   1.0609987  45.2205006 106.2535017
   2.0179987  45.2205006 106.2535017   0.8209987  46.1475006 106.2535017
   1.6869987  47.3295006 108.3985017   2.6439987  47.3295006 108.3985017
   1.4469987  48.2565006 108.3985017  11.8879987  55.5445006 109.2395017
  12.8449987  55.5445006 109.2395017  11.6479987  56.4715006 109.2395017
   9.4539987  49.8785006 111.1085017  10.4109987  49.8785006 111.1085017
   9.2139987  50.8055006 111.1085017  18.0679987  41.5005006 111.9475017
  19.0249987  41.5005006 111.9475017  17.8279987  42.4275006 111.9475017
  12.6129987  44.3195006 111.5045017  13.5699987  44.3195006 111.5045017
  12.3729987  45.2465006 111.5045017   5.7389987  42.3985006 108.7285017
   6.6959987  42.3985006 108.7285017   5.4989987  43.3255006 108.7285017
  13.4669987  42.4985006 107.1095017  14.4239987  42.4985006 107.1095017
  13.2269987  43.4255006 107.1095017   2.5409987  44.8605006 109.3765017
   3.4979987  44.8605006 109.3765017   2.3009987  45.7875006 109.3765017
   7.5209987  46.3695006 108.7585017   8.4779987  46.3695006 108.7585017
   7.2809987  47.2965006 108.7585017  18.5019987  42.9335006 114.2075017
  19.4589987  42.9335006 114.2075017  18.2619987  43.8605006 114.2075017
   4.6289987  41.3115006 112.7925017   5.5859987  41.3115006 112.7925017
   4.3889987  42.2385006 112.7925017  11.9429987  50.7955006 106.3285017
  12.8999987  50.7955006 106.3285017  11.7029987  51.7225006 106.3285017
   7.0869987  48.9095006 112.9575017   8.0439987  48.9095006 112.9575017
   6.8469987  49.8365006 112.9575017  15.2619987  41.8325006 109.1015017
  16.2189987  41.8325006 109.1015017  15.0219987  42.7595006 109.1015017
   4.2039987  43.1465006 110.8085017   5.1609987  43.1465006 110.8085017
   3.9639987  44.0735006 110.8085017   5.5689987  50.9375006 113.8315017
   6.5259987  50.9375006 113.8315017   5.3289987  51.8645006 113.8315017
   1.6959987  50.5995006 104.6565017   2.6529987  50.5995006 104.6565017
   1.4559987  51.5265006 104.6565017  15.2979987  52.2345006 111.3805017
  16.2549987  52.2345006 111.3805017  15.0579987  53.1615006 111.3805017
  15.6099987  40.5235006 112.7805017  16.5669987  40.5235006 112.7805017
  15.3699987  41.4505006 112.7805017   8.5899987  38.6345006 110.2405017
   9.5469987  38.6345006 110.2405017   8.3499987  39.5615006 110.2405017
  13.5509987  54.0195006 107.9925017  14.5079987  54.0195006 107.9925017
  13.3109987  54.9465006 107.9925017  14.7489987  51.9455006 106.4845017
  15.7059987  51.9455006 106.4845017  14.5089987  52.8725006 106.4845017
  16.3769987  50.5305006 114.9895017  17.3339987  50.5305006 114.9895017
  16.1369987  51.4575006 114.9895017  10.8689987  47.4565006 104.7595017
  11.8259987  47.4565006 104.7595017  10.6289987  48.3835006 104.7595017
  18.2579987  46.8425006 113.0415017  19.2149987  46.8425006 113.0415017
  18.0179987  47.7695006 113.0415017  14.3099987  47.6575006 105.6795017
  15.2669987  47.6575006 105.6795017  14.0699987  48.5845006 105.6795017
  14.2369987  45.8095006 114.7865017  15.1939987  45.8095006 114.7865017
  13.9969987  46.7365006 114.7865017   5.9519987  48.3215006 107.5915017
   6.9089987  48.3215006 107.5915017   5.7119987  49.2485006 107.5915017
   7.2669987  51.7195006 110.2635017   8.2239987  51.7195006 110.2635017
   7.0269987  52.6465006 110.2635017   6.2779987  47.0425006 111.2325017
   7.2349987  47.0425006 111.2325017   6.0379987  47.9695006 111.2325017
  12.6679987  52.6195006 111.9455017  13.6249987  52.6195006 111.9455017
  12.4279987  53.5465006 111.9455017   7.0319987  51.4075006 116.1145017
   7.9889987  51.4075006 116.1145017   6.7919987  52.3345006 116.1145017
  13.1589987  46.8475006 103.3525017  14.1159987  46.8475006 103.3525017
  12.9189987  47.7745006 103.3525017   4.1179987  47.6355006 115.1385017
   5.0749987  47.6355006 115.1385017   3.8779987  48.5625006 115.1385017
  10.8979987  53.5625006 106.7985017  11.8549987  53.5625006 106.7985017
  10.6579987  54.4895006 106.7985017   5.4159987  53.5725006 116.7055017
   6.3729987  53.5725006 116.7055017   5.1759987  54.4995006 116.7055017
  16.8929987  38.5815006 103.2485017  17.8499987  38.5815006 103.2485017
  16.6529987  39.5085006 103.2485017   4.9409987  47.3325006 105.2185017
   5.8979987  47.3325006 105.2185017   4.7009987  48.2595006 105.2185017
   1.1239987  49.7285006 114.0205017   2.0809987  49.7285006 114.0205017
   0.8839987  50.6555006 114.0205017   1.0109987  52.6255006 110.5995017
   1.9679987  52.6255006 110.5995017   0.7709987  53.5525006 110.5995017
  18.9889987  53.1915006 116.5615017  19.9459987  53.1915006 116.5615017
  18.7489987  54.1185006 116.5615017  10.1169987  52.9165006 115.6245017
  11.0739987  52.9165006 115.6245017   9.8769987  53.8435006 115.6245017
  10.3629987  56.4795006 105.2215017  11.3199987  56.4795006 105.2215017
  10.1229987  57.4065006 105.2215017   4.0199987  55.3455006 107.0275017
   4.9769987  55.3455006 107.0275017   3.7799987  56.2725006 107.0275017
  13.1039987  55.6105006 104.9895017  14.0609987  55.6105006 104.9895017
  12.8639987  56.5375006 104.9895017  16.1289987  44.6655006 117.0425017
  17.0859987  44.6655006 117.0425017  15.8889987  45.5925006 117.0425017
   3.2359987  51.1115006 115.0575017   4.1929987  51.1115006 115.0575017
   2.9959987  52.0385006 115.0575017   5.9369987  39.5415006 110.9915017
   6.8939987  39.5415006 110.9915017   5.6969987  40.4685006 110.9915017
  10.5819987  39.2225006 114.3665017  11.5389987  39.2225006 114.3665017
  10.3419987  40.1495006 114.3665017  13.8849987  43.0395006 115.2545017
  14.8419987  43.0395006 115.2545017  13.6449987  43.9665006 115.2545017
  10.2659987  41.7475006 101.7105017  11.2229987  41.7475006 101.7105017
  10.0259987  42.6745006 101.7105017   6.0439987  44.5035006 112.2135017
   7.0009987  44.5035006 112.2135017   5.8039987  45.4305006 112.2135017
   5.9859987  44.6595006 107.0955017   6.9429987  44.6595006 107.0955017
   5.7459987  45.5865006 107.0955017  11.5389987  45.1305006 105.8975017
  12.4959987  45.1305006 105.8975017  11.2989987  46.0575006 105.8975017
  10.5999987  45.3325006 117.3245017  11.5569987  45.3325006 117.3245017
  10.3599987  46.2595006 117.3245017  12.5519987  44.6095006 108.7075017
  13.5089987  44.6095006 108.7075017  12.3119987  45.5365006 108.7075017
   3.7019987  44.7785006 113.9515017   4.6589987  44.7785006 113.9515017
   3.4619987  45.7055006 113.9515017   0.4309987  41.2015006 108.2265017
   1.3879987  41.2015006 108.2265017   0.1909987  42.1285006 108.2265017
   1.8209987  42.6335006 103.3685017   2.7779987  42.6335006 103.3685017
   1.5809987  43.5605006 103.3685017  11.7929987  46.2025006 113.2985017
  12.7499987  46.2025006 113.2985017  11.5529987  47.1295006 113.2985017
   8.5639987  42.1715006 108.1125017   9.5209987  42.1715006 108.1125017
   8.3239987  43.0985006 108.1125017   3.3939987  43.7215006 106.9635017
   4.3509987  43.7215006 106.9635017   3.1539987  44.6485006 106.9635017
   7.0059987  43.8005006 104.6385017   7.9629987  43.8005006 104.6385017
   6.7659987  44.7275006 104.6385017  12.9729987  41.4085006 111.3615017
  13.9299987  41.4085006 111.3615017  12.7329987  42.3355006 111.3615017
   5.7299987  45.0045006 102.1765017   6.6869987  45.0045006 102.1765017
   5.4899987  45.9315006 102.1765017  16.1869987  57.0595006 117.6775017
  17.1439987  57.0595006 117.6775017  15.9469987  57.9865006 117.6775017
   3.8609987  49.5035006 117.2565017   4.8179987  49.5035006 117.2565017
   3.6209987  50.4305006 117.2565017   9.8569987  44.9385006 110.0085017
  10.8139987  44.9385006 110.0085017   9.6169987  45.8655006 110.0085017
   4.8559987  41.0905006 106.4375017   5.8129987  41.0905006 106.4375017
   4.6159987  42.0175006 106.4375017   8.4939987  43.2765006 112.4205017
   9.4509987  43.2765006 112.4205017   8.2539987  44.2035006 112.4205017
   9.0809987  49.4945006 104.1085017  10.0379987  49.4945006 104.1085017
   8.8409987  50.4215006 104.1085017  16.2439987  48.6775006 112.9195017
  17.2009987  48.6775006 112.9195017  16.0039987  49.6045006 112.9195017
  12.8699987  42.3535006 102.4875017  13.8269987  42.3535006 102.4875017
  12.6299987  43.2805006 102.4875017  10.9049987  49.6195006 115.6615017
  11.8619987  49.6195006 115.6615017  10.6649987  50.5465006 115.6615017
  13.6849987  44.2345006 104.0105017  14.6419987  44.2345006 104.0105017
  13.4449987  45.1615006 104.0105017   4.1839987  48.8765006 109.9115017
   5.1409987  48.8765006 109.9115017   3.9439987  49.8035006 109.9115017
   1.1629987  47.2945006 115.1925017   2.1199987  47.2945006 115.1925017
   0.9229987  48.2215006 115.1925017   8.1829987  46.8205006 117.3885017
   9.1399987  46.8205006 117.3885017   7.9429987  47.7475006 117.3885017
  12.8739987  52.1985006 115.2955017  13.8309987  52.1985006 115.2955017
  12.6339987  53.1255006 115.2955017  18.5099987  44.3905006 103.7135017
  19.4669987  44.3905006 103.7135017  18.2699987  45.3175006 103.7135017
  18.5279987  50.2305006 116.5155017  19.4849987  50.2305006 116.5155017
  18.2879987  51.1575006 116.5155017  16.8989987  53.1625006 104.1465017
  17.8559987  53.1625006 104.1465017  16.6589987  54.0895006 104.1465017
  14.0309987  48.0155006 111.1925017  14.9879987  48.0155006 111.1925017
  13.7909987  48.9425006 111.1925017   6.5609987  52.3315006 107.3025017
   7.5179987  52.3315006 107.3025017   6.3209987  53.2585006 107.3025017
   7.9889987  50.0075006 106.8235017   8.9459987  50.0075006 106.8235017
   7.7489987  50.9345006 106.8235017   8.4199987  54.2275006 113.2165017
   9.3769987  54.2275006 113.2165017   8.1799987  55.1545006 113.2165017
   6.6809987  55.0065006 106.3595017   7.6379987  55.0065006 106.3595017
   6.4409987  55.9335006 106.3595017  12.0149987  50.2205006 112.8505017
  12.9719987  50.2205006 112.8505017  11.7749987  51.1475006 112.8505017
  14.7409987  54.7775006 115.3505017  15.6979987  54.7775006 115.3505017
  14.5009987  55.7045006 115.3505017   2.8079987  42.0275006 114.7375017
   3.7649987  42.0275006 114.7375017   2.5679987  42.9545006 114.7375017
  15.0689987  49.8655006 104.1795017  16.0259987  49.8655006 104.1795017
  14.8289987  50.7925006 104.1795017   2.4749987  53.8285006 113.1445017
   3.4319987  53.8285006 113.1445017   2.2349987  54.7555006 113.1445017
   7.2589987  51.8865006 102.8695017   8.2159987  51.8865006 102.8695017
   7.0189987  52.8135006 102.8695017   3.7849987  49.0775006 103.4475017
   4.7419987  49.0775006 103.4475017   3.5449987  50.0045006 103.4475017
  11.5529987  41.7955006 113.6705017  12.5099987  41.7955006 113.6705017
  11.3129987  42.7225006 113.6705017  12.3269987  41.3635006 104.7915017
  13.2839987  41.3635006 104.7915017  12.0869987  42.2905006 104.7915017
   9.5189987  43.1415006 105.5775017  10.4759987  43.1415006 105.5775017
   9.2789987  44.0685006 105.5775017  10.0819987  44.1435006 114.7755017
  11.0389987  44.1435006 114.7755017   9.8419987  45.0705006 114.7755017
  10.3939987  40.1975006 106.5045017  11.3509987  40.1975006 106.5045017
  10.1539987  41.1245006 106.5045017   7.3679987  54.6075006 103.5865017
   8.3249987  54.6075006 103.5865017   7.1279987  55.5345006 103.5865017
   6.0529987  41.3065006 103.1715017   7.0099987  41.3065006 103.1715017
   5.8129987  42.2335006 103.1715017  16.2759987  42.0195006 115.6235017
  17.2329987  42.0195006 115.6235017  16.0359987  42.9465006 115.6235017
  14.8759987  45.8065006 109.6635017  15.8329987  45.8065006 109.6635017
  14.6359987  46.7335006 109.6635017   4.3059987  51.7075006 102.2665017
   5.2629987  51.7075006 102.2665017   4.0659987  52.6345006 102.2665017
   2.6229987  44.4035006 101.3875017   3.5799987  44.4035006 101.3875017
   2.3829987  45.3305006 101.3875017  15.9439987  55.0505006 111.3155017
  16.9009987  55.0505006 111.3155017  15.7039987  55.9775006 111.3155017
   3.4639987  39.1825006 110.0855017   4.4209987  39.1825006 110.0855017
   3.2239987  40.1095006 110.0855017   2.3869987  53.1155006 106.2515017
   3.3439987  53.1155006 106.2515017   2.1469987  54.0425006 106.2515017
   1.7139987  55.6985006 117.4795017   2.6709987  55.6985006 117.4795017
   1.4739987  56.6255006 117.4795017   6.2669987  54.6555006 119.1695017
   7.2239987  54.6555006 119.1695017   6.0269987  55.5825006 119.1695017
  12.8139987  53.0605006 117.9125017  13.7709987  53.0605006 117.9125017
  12.5739987  53.9875006 117.9125017   1.5099987  49.5385006 118.5345017
   2.4669987  49.5385006 118.5345017   1.2699987  50.4655006 118.5345017
   5.8919987  49.8405006 100.6075017   6.8489987  49.8405006 100.6075017
   5.6519987  50.7675006 100.6075017   8.2219987  49.5175006 117.9405017
   9.1789987  49.5175006 117.9405017   7.9819987  50.4445006 117.9405017
  13.9489987  49.3805006 115.3215017  14.9059987  49.3805006 115.3215017
  13.7089987  50.3075006 115.3215017   2.3629987  46.7335006 117.9125017
   3.3199987  46.7335006 117.9125017   2.1229987  47.6605006 117.9125017
   7.0889987  47.8705006 102.9505017   8.0459987  47.8705006 102.9505017
   6.8489987  48.7975006 102.9505017   6.3349987  45.7115006 115.2825017
   7.2919987  45.7115006 115.2825017   6.0949987  46.6385006 115.2825017
  11.3979987  48.2475006 118.6225017  12.3549987  48.2475006 118.6225017
  11.1579987  49.1745006 118.6225017   6.7329987  43.0845006 116.3535017
   7.6899987  43.0845006 116.3535017   6.4929987  44.0115006 116.3535017
   7.1309987  41.4615006 113.8855017   8.0879987  41.4615006 113.8855017
   6.8909987  42.3885006 113.8855017   8.6669987  46.9145006 114.1185017
   9.6239987  46.9145006 114.1185017   8.4269987  47.8415006 114.1185017
  13.0799987  44.7095006 119.1085017  14.0369987  44.7095006 119.1085017
  12.8399987  45.6365006 119.1085017  14.4079987  47.4895006 117.2445017
  15.3649987  47.4895006 117.2445017  14.1679987  48.4165006 117.2445017
   5.1789987  44.3325006 118.2635017   6.1359987  44.3325006 118.2635017
   4.9389987  45.2595006 118.2635017   7.9139987  38.9075006 114.2975017
   8.8709987  38.9075006 114.2975017   7.6739987  39.8345006 114.2975017
   9.1959987  43.2295006 117.8935017  10.1529987  43.2295006 117.8935017
   8.9559987  44.1565006 117.8935017  11.9139987  42.3645006 116.9675017
  12.8709987  42.3645006 116.9675017  11.6739987  43.2915006 116.9675017
  13.5099987  40.9955006 118.9075017  14.4669987  40.9955006 118.9075017
  13.2699987  41.9225006 118.9075017   3.3269987  42.2585006 118.0095017
   4.2839987  42.2585006 118.0095017   3.0869987  43.1855006 118.0095017
   8.1359987  38.2685006 116.9835017   9.0929987  38.2685006 116.9835017
   7.8959987  39.1955006 116.9835017   8.5029987  39.9015006 119.0725017
   9.4599987  39.9015006 119.0725017   8.2629987  40.8285006 119.0725017
 108.0769987  56.8415006 106.7275017 109.0339987  56.8415006 106.7275017
 107.8369987  57.7685006 106.7275017   1.5079987  55.0565006 108.6775017
   2.4649987  55.0565006 108.6775017   1.2679987  55.9835006 108.6775017
  18.6619987  55.7025006 111.5165017  19.6189987  55.7025006 111.5165017
  18.4219987  56.6295006 111.5165017  18.2379987  55.3005006 114.4595017
  19.1949987  55.3005006 114.4595017  17.9979987  56.2275006 114.4595017
  16.6829987  51.0315006 119.1155017  17.6399987  51.0315006 119.1155017
  16.4429987  51.9585006 119.1155017  17.9909987  49.3415006 104.5775017
  18.9479987  49.3415006 104.5775017  17.7509987  50.2685006 104.5775017
  18.3629987  47.4145006 106.4275017  19.3199987  47.4145006 106.4275017
  18.1229987  48.3415006 106.4275017  18.1189987  50.1295006 111.4215017
  19.0759987  50.1295006 111.4215017  17.8789987  51.0565006 111.4215017
  16.6659987  53.0275006 113.7025017  17.6229987  53.0275006 113.7025017
  16.4259987  53.9545006 113.7025017  18.7229987  47.2625006 102.8425017
  19.6799987  47.2625006 102.8425017  18.4829987  48.1895006 102.8425017
  16.9949987  44.4895006 101.3605017  17.9519987  44.4895006 101.3605017
  16.7549987  45.4165006 101.3605017  16.1759987  45.8995006 107.0035017
  17.1329987  45.8995006 107.0035017  15.9359987  46.8265006 107.0035017
   1.1759987  47.9605006 111.0615017   2.1329987  47.9605006 111.0615017
   0.9359987  48.8875006 111.0615017  17.0269987  47.8695006 116.6815017
  17.9839987  47.8695006 116.6815017  16.7869987  48.7965006 116.6815017
  18.5369987  45.7595006 117.3465017  19.4939987  45.7595006 117.3465017
  18.2969987  46.6865006 117.3465017  15.8589987  43.4785006 105.4645017
  16.8159987  43.4785006 105.4645017  15.6189987  44.4055006 105.4645017
  16.4799987  44.0295006 110.9065017  17.4369987  44.0295006 110.9065017
  16.2399987  44.9565006 110.9065017  16.5499987  44.7545006 113.6955017
  17.5069987  44.7545006 113.6955017  16.3099987  45.6815006 113.6955017
   0.8809987  43.2425006 117.1245017   1.8379987  43.2425006 117.1245017
   0.6409987  44.1695006 117.1245017  18.8129987  38.7965006 119.0425017
  19.7699987  38.7965006 119.0425017  18.5729987  39.7235006 119.0425017
  16.5079987  40.7595006 105.5015017  17.4649987  40.7595006 105.5015017
  16.2679987  41.6865006 105.5015017   2.0859987  41.6005006 110.0565017
   3.0429987  41.6005006 110.0565017   1.8459987  42.5275006 110.0565017
   0.8909987  44.5325006 111.2685017   1.8479987  44.5325006 111.2685017
   0.6509987  45.4595006 111.2685017  18.3429987  40.9025006 117.3945017
  19.2999987  40.9025006 117.3945017  18.1029987  41.8295006 117.3945017
  18.3499987  40.8245006 102.0135017  19.3069987  40.8245006 102.0135017
  18.1099987  41.7515006 102.0135017   0.8819987  40.7775006 105.2105017
   1.8389987  40.7775006 105.2105017   0.6419987  41.7045006 105.2105017
  15.3869987  55.7945006 107.1105017  16.3439987  55.7945006 107.1105017
  15.1469987  56.7215006 107.1105017 108.3279987  39.4895006 113.5155017
 109.2849987  39.4895006 113.5155017 108.0879987  40.4165006 113.5155017
   2.8149987  52.7195006 117.6645017   3.7719987  52.7195006 117.6645017
   2.5749987  53.6465006 117.6645017   5.7269987  53.6885006 113.9115017
   6.6839987  53.6885006 113.9115017   5.4869987  54.6155006 113.9115017
  10.0439987  55.1995006 116.8875017  11.0009987  55.1995006 116.8875017
   9.8039987  56.1265006 116.8875017  12.3579987  56.3865006 116.1245017
  13.3149987  56.3865006 116.1245017  12.1179987  57.3135006 116.1245017
  17.3559987  38.9985006 115.2305017  18.3129987  38.9985006 115.2305017
  17.1159987  39.9255006 115.2305017   3.1439987  56.9515006 113.9555017
   4.1009987  56.9515006 113.9555017   2.9039987  57.8785006 113.9555017
   5.6339987  56.5045006 112.9975017   6.5909987  56.5045006 112.9975017
   5.3939987  57.4315006 112.9975017  10.3409987  56.4325006 112.1515017
  11.2979987  56.4325006 112.1515017  10.1009987  57.3595006 112.1515017
  12.6589987  55.2655006 113.1485017  13.6159987  55.2655006 113.1485017
  12.4189987  56.1925006 113.1485017  15.2219987  56.8275006 113.4175017
  16.1789987  56.8275006 113.4175017  14.9819987  57.7545006 113.4175017
   2.6359987  55.6055006 110.9175017   3.5929987  55.6055006 110.9175017
   2.3959987  56.5325006 110.9175017   4.6819987  54.2955006 109.5135017
   5.6389987  54.2955006 109.5135017   4.4419987  55.2225006 109.5135017
   7.2639987  54.7795006 110.3835017   8.2209987  54.7795006 110.3835017
   7.0239987  55.7065006 110.3835017  10.7549987  40.4255006 109.5355017
  11.7119987  40.4255006 109.5355017  10.5149987  41.3525006 109.5355017
  15.8889987  38.4905006 109.6125017  16.8459987  38.4905006 109.6125017
  15.6489987  39.4175006 109.6125017  17.5699987  39.7125006 107.8955017
  18.5269987  39.7125006 107.8955017  17.3299987  40.6395006 107.8955017
   3.1269987  39.0555006 107.3345017   4.0839987  39.0555006 107.3345017
   2.8869987  39.9825006 107.3345017   1.9379987  38.8105006 103.1565017
   2.8949987  38.8105006 103.1565017   1.6979987  39.7375006 103.1565017
   7.6139987  38.9775006 107.1585017   8.5709987  38.9775006 107.1585017
   7.3739987  39.9045006 107.1585017  13.2839987  39.0035006 108.7925017
  14.2409987  39.0035006 108.7925017  13.0439987  39.9305006 108.7925017
  14.5699987  39.0405006 104.4865017  15.5269987  39.0405006 104.4865017
  14.3299987  39.9675006 104.4865017   1.9159987  54.7685006 104.0915017
   2.8729987  54.7685006 104.0915017   1.6759987  55.6955006 104.0915017
   3.7479987  40.7415006 101.6165017   4.7049987  40.7415006 101.6165017
   3.5079987  41.6685006 101.6165017   8.7279987  41.0315006 104.0155017
   9.6849987  41.0315006 104.0155017   8.4879987  41.9585006 104.0155017
  17.3999987  55.5915006 105.1455017  18.3569987  55.5915006 105.1455017
  17.1599987  56.5185006 105.1455017   2.9949987  39.5955006 116.8265017
   3.9519987  39.5955006 116.8265017   2.7549987  40.5225006 116.8265017
   5.0119987  38.9745006 118.4425017   5.9689987  38.9745006 118.4425017
   4.7719987  39.9015006 118.4425017  13.4189987  38.2735006 118.6055017
  14.3759987  38.2735006 118.6055017  13.1789987  39.2005006 118.6055017
  16.6219987  54.3115006 117.2595017  17.5789987  54.3115006 117.2595017
  16.3819987  55.2385006 117.2595017  31.0579987  48.2035006 107.2675017
  32.0149987  48.2035006 107.2675017  30.8179987  49.1305006 107.2675017
  29.9169987  47.4695006 110.7425017  30.8739987  47.4695006 110.7425017
  29.6769987  48.3965006 110.7425017  22.2899987  47.1125006 112.2815017
  23.2469987  47.1125006 112.2815017  22.0499987  48.0395006 112.2815017
  33.6259987  50.3875006 109.0195017  34.5829987  50.3875006 109.0195017
  33.3859987  51.3145006 109.0195017  23.2109987  51.5645006 110.8125017
  24.1679987  51.5645006 110.8125017  22.9709987  52.4915006 110.8125017
  19.8819987  45.1505006 106.2255017  20.8389987  45.1505006 106.2255017
  19.6419987  46.0775006 106.2255017  20.5459987  47.3565006 108.4085017
  21.5029987  47.3565006 108.4085017  20.3059987  48.2835006 108.4085017
  30.7359987  55.5375006 109.2395017  31.6929987  55.5375006 109.2395017
  30.4959987  56.4645006 109.2395017  28.3039987  49.8685006 111.1785017
  29.2609987  49.8685006 111.1785017  28.0639987  50.7955006 111.1785017
  36.8439987  41.5605006 111.9095017  37.8009987  41.5605006 111.9095017
  36.6039987  42.4875006 111.9095017  31.4299987  44.3115006 111.5025017
  32.3869987  44.3115006 111.5025017  31.1899987  45.2385006 111.5025017
  24.6619987  42.4155006 108.7265017  25.6189987  42.4155006 108.7265017
  24.4219987  43.3425006 108.7265017  32.3099987  42.5105006 107.1255017
  33.2669987  42.5105006 107.1255017  32.0699987  43.4375006 107.1255017
  21.2039987  44.8155006 109.4755017  22.1609987  44.8155006 109.4755017
  20.9639987  45.7425006 109.4755017  26.3729987  46.3595006 108.7675017
  27.3299987  46.3595006 108.7675017  26.1329987  47.2865006 108.7675017
  37.3729987  42.9625006 114.2065017  38.3299987  42.9625006 114.2065017
  37.1329987  43.8895006 114.2065017  23.5099987  41.3275006 112.7965017
  24.4669987  41.3275006 112.7965017  23.2699987  42.2545006 112.7965017
  30.7939987  50.8005006 106.3295017  31.7509987  50.8005006 106.3295017
  30.5539987  51.7275006 106.3295017  26.0079987  48.9545006 113.0365017
  26.9649987  48.9545006 113.0365017  25.7679987  49.8815006 113.0365017
  34.0869987  41.8385006 109.1125017  35.0439987  41.8385006 109.1125017
  33.8469987  42.7655006 109.1125017  23.0619987  43.1725006 110.7855017
  24.0189987  43.1725006 110.7855017  22.8219987  44.0995006 110.7855017
  24.4469987  50.9435006 113.8465017  25.4039987  50.9435006 113.8465017
  24.2069987  51.8705006 113.8465017  20.5039987  50.5995006 104.6365017
  21.4609987  50.5995006 104.6365017  20.2639987  51.5265006 104.6365017
  34.1449987  52.2445006 111.4025017  35.1019987  52.2445006 111.4025017
  33.9049987  53.1715006 111.4025017  34.4559987  40.5155006 112.7745017
  35.4129987  40.5155006 112.7745017  34.2159987  41.4425006 112.7745017
  27.4429987  38.6475006 110.2425017  28.3999987  38.6475006 110.2425017
  27.2029987  39.5745006 110.2425017  32.4599987  54.0305006 108.0055017
  33.4169987  54.0305006 108.0055017  32.2199987  54.9575006 108.0055017
  33.5669987  51.9545006 106.4885017  34.5239987  51.9545006 106.4885017
  33.3269987  52.8815006 106.4885017  35.2349987  50.5275006 114.9865017
  36.1919987  50.5275006 114.9865017  34.9949987  51.4545006 114.9865017
  29.7319987  47.4345006 104.7485017  30.6889987  47.4345006 104.7485017
  29.4919987  48.3615006 104.7485017  37.1159987  46.8415006 113.0425017
  38.0729987  46.8415006 113.0425017  36.8759987  47.7685006 113.0425017
  33.1519987  47.6645006 105.6865017  34.1089987  47.6645006 105.6865017
  32.9119987  48.5915006 105.6865017  33.0899987  45.8085006 114.7885017
  34.0469987  45.8085006 114.7885017  32.8499987  46.7355006 114.7885017
  24.7869987  48.3255006 107.5975017  25.7439987  48.3255006 107.5975017
  24.5469987  49.2525006 107.5975017  26.1129987  51.7015006 110.2685017
  27.0699987  51.7015006 110.2685017  25.8729987  52.6285006 110.2685017
  25.1489987  47.0235006 111.2445017  26.1059987  47.0235006 111.2445017
  24.9089987  47.9505006 111.2445017  31.5169987  52.6145006 111.9525017
  32.4739987  52.6145006 111.9525017  31.2769987  53.5415006 111.9525017
  26.0619987  51.4725006 115.9435017  27.0189987  51.4725006 115.9435017
  25.8219987  52.3995006 115.9435017  32.0089987  46.8775006 103.3835017
  32.9659987  46.8775006 103.3835017  31.7689987  47.8045006 103.3835017
  22.9969987  47.6395006 115.1195017  23.9539987  47.6395006 115.1195017
  22.7569987  48.5665006 115.1195017  29.7679987  53.5775006 106.8055017
  30.7249987  53.5775006 106.8055017  29.5279987  54.5045006 106.8055017
  24.3029987  53.5235006 116.6975017  25.2599987  53.5235006 116.6975017
  24.0629987  54.4505006 116.6975017  35.7439987  38.5755006 103.2635017
  36.7009987  38.5755006 103.2635017  35.5039987  39.5025006 103.2635017
  23.7589987  47.3065006 105.2815017  24.7159987  47.3065006 105.2815017
  23.5189987  48.2335006 105.2815017  19.8499987  49.7525006 114.0705017
  20.8069987  49.7525006 114.0705017  19.6099987  50.6795006 114.0705017
  19.6109987  52.4875006 110.8825017  20.5679987  52.4875006 110.8825017
  19.3709987  53.4145006 110.8825017  37.8519987  53.1855006 116.5745017
  38.8089987  53.1855006 116.5745017  37.6119987  54.1125006 116.5745017
  28.8029987  52.7355006 115.4255017  29.7599987  52.7355006 115.4255017
  28.5629987  53.6625006 115.4255017  29.2489987  56.5115006 105.2455017
  30.2059987  56.5115006 105.2455017  29.0089987  57.4385006 105.2455017
  22.8719987  55.3565006 107.0485017  23.8289987  55.3565006 107.0485017
  22.6319987  56.2835006 107.0485017  34.9839987  44.6605006 117.0405017
  35.9409987  44.6605006 117.0405017  34.7439987  45.5875006 117.0405017
  22.1229987  51.0715006 115.0335017  23.0799987  51.0715006 115.0335017
  21.8829987  51.9985006 115.0335017  24.8019987  39.5605006 110.9715017
  25.7589987  39.5605006 110.9715017  24.5619987  40.4875006 110.9715017
  29.4379987  39.2375006 114.3885017  30.3949987  39.2375006 114.3885017
  29.1979987  40.1645006 114.3885017  32.7109987  43.0265006 115.2355017
  33.6679987  43.0265006 115.2355017  32.4709987  43.9535006 115.2355017
  24.9129987  44.4965006 112.1885017  25.8699987  44.4965006 112.1885017
  24.6729987  45.4235006 112.1885017  24.8689987  44.6545006 107.0925017
  25.8259987  44.6545006 107.0925017  24.6289987  45.5815006 107.0925017
  30.3539987  45.1255006 105.8785017  31.3109987  45.1255006 105.8785017
  30.1139987  46.0525006 105.8785017  29.4579987  45.3125006 117.3055017
  30.4149987  45.3125006 117.3055017  29.2179987  46.2395006 117.3055017
  31.3609987  44.5955006 108.7085017  32.3179987  44.5955006 108.7085017
  31.1209987  45.5225006 108.7085017  22.5439987  44.7845006 113.9425017
  23.5009987  44.7845006 113.9425017  22.3039987  45.7115006 113.9425017
  19.1869987  41.8935006 107.8735017  20.1439987  41.8935006 107.8735017
  18.9469987  42.8205006 107.8735017  20.4669987  42.6565006 103.2715017
  21.4239987  42.6565006 103.2715017  20.2269987  43.5835006 103.2715017
  30.6049987  46.2155006 113.2765017  31.5619987  46.2155006 113.2765017
  30.3649987  47.1425006 113.2765017  27.4099987  41.9145006 107.9545017
  28.3669987  41.9145006 107.9545017  27.1699987  42.8415006 107.9545017
  22.2729987  43.7695006 106.9265017  23.2299987  43.7695006 106.9265017
  22.0329987  44.6965006 106.9265017  25.8609987  43.8065006 104.6245017
  26.8179987  43.8065006 104.6245017  25.6209987  44.7335006 104.6245017
  31.8149987  41.4105006 111.3725017  32.7719987  41.4105006 111.3725017
  31.5749987  42.3375006 111.3725017  35.0419987  57.0675006 117.6695017
  35.9989987  57.0675006 117.6695017  34.8019987  57.9945006 117.6695017
  22.7119987  49.5235006 117.2485017  23.6689987  49.5235006 117.2485017
  22.4719987  50.4505006 117.2485017  28.8589987  45.0555006 110.0535017
  29.8159987  45.0555006 110.0535017  28.6189987  45.9825006 110.0535017
  23.7289987  41.1045006 106.4325017  24.6859987  41.1045006 106.4325017
  23.4889987  42.0315006 106.4325017  27.3469987  43.2805006 112.4215017
  28.3039987  43.2805006 112.4215017  27.1069987  44.2075006 112.4215017
  27.9459987  49.4575006 104.1345017  28.9029987  49.4575006 104.1345017
  27.7059987  50.3845006 104.1345017  35.0989987  48.6775006 112.9195017
  36.0559987  48.6775006 112.9195017  34.8589987  49.6045006 112.9195017
  29.4239987  49.7415006 115.3555017  30.3809987  49.7415006 115.3555017
  29.1839987  50.6685006 115.3555017  32.5129987  44.2085006 104.0245017
  33.4699987  44.2085006 104.0245017  32.2729987  45.1355006 104.0245017
  23.0389987  48.8705006 109.9125017  23.9959987  48.8705006 109.9125017
  22.7989987  49.7975006 109.9125017  30.0819987  50.9755006 103.1855017
  31.0389987  50.9755006 103.1855017  29.8419987  51.9025006 103.1855017
  20.0319987  47.2935006 115.1825017  20.9889987  47.2935006 115.1825017
  19.7919987  48.2205006 115.1825017  27.0429987  46.8485006 117.3795017
  27.9999987  46.8485006 117.3795017  26.8029987  47.7755006 117.3795017
  31.7289987  52.2115006 115.2825017  32.6859987  52.2115006 115.2825017
  31.4889987  53.1385006 115.2825017  37.2679987  44.4355006 103.7585017
  38.2249987  44.4355006 103.7585017  37.0279987  45.3625006 103.7585017
  37.3829987  50.2295006 116.5135017  38.3399987  50.2295006 116.5135017
  37.1429987  51.1565006 116.5135017  32.8899987  48.0135006 111.1935017
  33.8469987  48.0135006 111.1935017  32.6499987  48.9405006 111.1935017
  25.4119987  52.3325006 107.2875017  26.3689987  52.3325006 107.2875017
  25.1719987  53.2595006 107.2875017  21.2369987  47.1665006 101.9195017
  22.1939987  47.1665006 101.9195017  20.9969987  48.0935006 101.9195017
  26.8329987  49.9915006 106.8255017  27.7899987  49.9915006 106.8255017
  26.5929987  50.9185006 106.8255017  27.2919987  54.1775006 113.2135017
  28.2489987  54.1775006 113.2135017  27.0519987  55.1045006 113.2135017
  25.5129987  54.9865006 106.3945017  26.4699987  54.9865006 106.3945017
  25.2729987  55.9135006 106.3945017  30.8369987  50.2125006 112.8565017
  31.7939987  50.2125006 112.8565017  30.5969987  51.1395006 112.8565017
  33.0259987  51.1275006 101.9635017  33.9829987  51.1275006 101.9635017
  32.7859987  52.0545006 101.9635017  33.5999987  54.7755006 115.3415017
  34.5569987  54.7755006 115.3415017  33.3599987  55.7025006 115.3415017
  21.6819987  42.0295006 114.7295017  22.6389987  42.0295006 114.7295017
  21.4419987  42.9565006 114.7295017  33.9349987  49.8335006 104.1765017
  34.8919987  49.8335006 104.1765017  33.6949987  50.7605006 104.1765017
  21.3049987  53.8235006 113.1625017  22.2619987  53.8235006 113.1625017
  21.0649987  54.7505006 113.1625017  22.3599987  49.3495006 103.2415017
  23.3169987  49.3495006 103.2415017  22.1199987  50.2765006 103.2415017
  30.3399987  41.8075006 113.7225017  31.2969987  41.8075006 113.7225017
  30.0999987  42.7345006 113.7225017  31.1939987  41.3935006 104.7355017
  32.1509987  41.3935006 104.7355017  30.9539987  42.3205006 104.7355017
  28.8479987  53.5275006 103.6275017  29.8049987  53.5275006 103.6275017
  28.6079987  54.4545006 103.6275017  28.3429987  43.1705006 105.5845017
  29.2999987  43.1705006 105.5845017  28.1029987  44.0975006 105.5845017
  28.9069987  44.0825006 114.7895017  29.8639987  44.0825006 114.7895017
  28.6669987  45.0095006 114.7895017  29.2619987  40.1875006 106.4865017
  30.2189987  40.1875006 106.4865017  29.0219987  41.1145006 106.4865017
  26.1989987  54.5885006 103.6085017  27.1559987  54.5885006 103.6085017
  25.9589987  55.5155006 103.6085017  24.9419987  41.3055006 103.1485017
  25.8989987  41.3055006 103.1485017  24.7019987  42.2325006 103.1485017
  35.1259987  42.0295006 115.6335017  36.0829987  42.0295006 115.6335017
  34.8859987  42.9565006 115.6335017  33.7229987  45.8095006 109.6715017
  34.6799987  45.8095006 109.6715017  33.4829987  46.7365006 109.6715017
  22.3019987  39.1835006 110.0985017  23.2589987  39.1835006 110.0985017
  22.0619987  40.1105006 110.0985017  21.2259987  53.0905006 106.2235017
  22.1829987  53.0905006 106.2235017  20.9859987  54.0175006 106.2235017
  20.4709987  55.7525006 117.5475017  21.4279987  55.7525006 117.5475017
  20.2309987  56.6795006 117.5475017  25.1279987  54.6715006 119.1605017
  26.0849987  54.6715006 119.1605017  24.8879987  55.5985006 119.1605017
  31.6569987  53.0495006 117.8945017  32.6139987  53.0495006 117.8945017
  31.4169987  53.9765006 117.8945017  20.3899987  49.5355006 118.5335017
  21.3469987  49.5355006 118.5335017  20.1499987  50.4625006 118.5335017
  27.0879987  49.5145006 117.9305017  28.0449987  49.5145006 117.9305017
  26.8479987  50.4415006 117.9305017  32.7889987  49.3835006 115.3165017
  33.7459987  49.3835006 115.3165017  32.5489987  50.3105006 115.3165017
  21.2819987  46.7535006 117.9185017  22.2389987  46.7535006 117.9185017
  21.0419987  47.6805006 117.9185017  26.0169987  47.8585006 102.9505017
  26.9739987  47.8585006 102.9505017  25.7769987  48.7855006 102.9505017
  25.2009987  45.6975006 115.2875017  26.1579987  45.6975006 115.2875017
  24.9609987  46.6245006 115.2875017  30.2509987  48.2485006 118.5935017
  31.2079987  48.2485006 118.5935017  30.0109987  49.1755006 118.5935017
  25.6369987  43.0785006 116.3485017  26.5939987  43.0785006 116.3485017
  25.3969987  44.0055006 116.3485017  26.0229987  41.4525006 113.8755017
  26.9799987  41.4525006 113.8755017  25.7829987  42.3795006 113.8755017
  27.5249987  46.9125006 114.1105017  28.4819987  46.9125006 114.1105017
  27.2849987  47.8395006 114.1105017  31.9379987  44.7135006 119.1075017
  32.8949987  44.7135006 119.1075017  31.6979987  45.6405006 119.1075017
  33.2609987  47.4985006 117.2485017  34.2179987  47.4985006 117.2485017
  33.0209987  48.4255006 117.2485017  24.0469987  44.3185006 118.2725017
  25.0039987  44.3185006 118.2725017  23.8069987  45.2455006 118.2725017
  26.7889987  38.9245006 114.3085017  27.7459987  38.9245006 114.3085017
  26.5489987  39.8515006 114.3085017  28.0629987  43.1515006 117.8645017
  29.0199987  43.1515006 117.8645017  27.8229987  44.0785006 117.8645017
  30.7369987  42.3005006 116.9225017  31.6939987  42.3005006 116.9225017
  30.4969987  43.2275006 116.9225017  32.3269987  40.9985006 118.8945017
  33.2839987  40.9985006 118.8945017  32.0869987  41.9255006 118.8945017
  22.1429987  42.2525006 118.0005017  23.0999987  42.2525006 118.0005017
  21.9029987  43.1795006 118.0005017  27.0399987  38.3245006 116.9645017
  27.9969987  38.3245006 116.9645017  26.7999987  39.2515006 116.9645017
  27.3929987  39.9345006 119.0335017  28.3499987  39.9345006 119.0335017
  27.1529987  40.8615006 119.0335017  26.8769987  56.8065006 102.2245017
  27.8339987  56.8065006 102.2245017  26.6369987  57.7335006 102.2245017
  19.1399987  56.7915006 106.7315017  20.0969987  56.7915006 106.7315017
  18.8999987  57.7185006 106.7315017  19.9849987  54.9045006 108.5645017
  20.9419987  54.9045006 108.5645017  19.7449987  55.8315006 108.5645017
  37.0829987  55.2625006 114.5375017  38.0399987  55.2625006 114.5375017
  36.8429987  56.1895006 114.5375017  35.5379987  51.0315006 119.1155017
  36.4949987  51.0315006 119.1155017  35.2979987  51.9585006 119.1155017
  36.8249987  49.3315006 104.6105017  37.7819987  49.3315006 104.6105017
  36.5849987  50.2585006 104.6105017  37.2399987  47.3905006 106.4245017
  38.1969987  47.3905006 106.4245017  36.9999987  48.3175006 106.4245017
  36.9699987  50.1295006 111.4255017  37.9269987  50.1295006 111.4255017
  36.7299987  51.0565006 111.4255017  35.4999987  53.0455006 113.6955017
  36.4569987  53.0455006 113.6955017  35.2599987  53.9725006 113.6955017
  35.8419987  44.4895006 101.3625017  36.7989987  44.4895006 101.3625017
  35.6019987  45.4165006 101.3625017  35.0209987  45.9085006 107.0145017
  35.9779987  45.9085006 107.0145017  34.7809987  46.8355006 107.0145017
  20.0409987  47.9815006 111.0525017  20.9979987  47.9815006 111.0525017
  19.8009987  48.9085006 111.0525017  35.8799987  47.8645006 116.6855017
  36.8369987  47.8645006 116.6855017  35.6399987  48.7915006 116.6855017
  37.3919987  45.7615006 117.3465017  38.3489987  45.7615006 117.3465017
  37.1519987  46.6885006 117.3465017  35.1079987  41.9085006 100.4695017
  36.0649987  41.9085006 100.4695017  34.8679987  42.8355006 100.4695017
  34.7179987  43.4825006 105.5015017  35.6749987  43.4825006 105.5015017
  34.4779987  44.4095006 105.5015017  35.3359987  44.0355006 110.9055017
  36.2929987  44.0355006 110.9055017  35.0959987  44.9625006 110.9055017
  35.3979987  44.7625006 113.6945017  36.3549987  44.7625006 113.6945017
  35.1579987  45.6895006 113.6945017  19.6579987  43.2805006 117.2005017
  20.6149987  43.2805006 117.2005017  19.4179987  44.2075006 117.2005017
  37.6609987  38.7995006 119.0445017  38.6179987  38.7995006 119.0445017
  37.4209987  39.7265006 119.0445017  35.3329987  40.7755006 105.5295017
  36.2899987  40.7755006 105.5295017  35.0929987  41.7025006 105.5295017
  20.8569987  41.5705006 110.0625017  21.8139987  41.5705006 110.0625017
  20.6169987  42.4975006 110.0625017  19.1439987  44.5645006 111.1155017
  20.1009987  44.5645006 111.1155017  18.9039987  45.4915006 111.1155017
  37.1949987  40.9015006 117.4035017  38.1519987  40.9015006 117.4035017
  36.9549987  41.8285006 117.4035017  19.5029987  40.8445006 105.1725017
  20.4599987  40.8445006 105.1725017  19.2629987  41.7715006 105.1725017
  19.4619987  39.5095006 113.4905017  20.4189987  39.5095006 113.4905017
  19.2219987  40.4365006 113.4905017  21.6819987  52.6955006 117.6475017
  22.6389987  52.6955006 117.6475017  21.4419987  53.6225006 117.6475017
  24.5919987  53.6905006 113.9225017  25.5489987  53.6905006 113.9225017
  24.3519987  54.6175006 113.9225017  28.9119987  55.1165006 116.8385017
  29.8689987  55.1165006 116.8385017  28.6719987  56.0435006 116.8385017
  31.2309987  56.4065006 116.1115017  32.1879987  56.4065006 116.1115017
  30.9909987  57.3335006 116.1115017  36.1519987  38.9735006 115.2955017
  37.1089987  38.9735006 115.2955017  35.9119987  39.9005006 115.2955017
  22.0189987  56.9365006 113.9305017  22.9759987  56.9365006 113.9305017
  21.7789987  57.8635006 113.9305017  24.4889987  56.5175006 112.9945017
  25.4459987  56.5175006 112.9945017  24.2489987  57.4445006 112.9945017
  29.1899987  56.4155006 112.1755017  30.1469987  56.4155006 112.1755017
  28.9499987  57.3425006 112.1755017  31.5339987  55.2725006 113.1385017
  32.4909987  55.2725006 113.1385017  31.2939987  56.1995006 113.1385017
  21.4539987  55.5855006 110.8605017  22.4109987  55.5855006 110.8605017
  21.2139987  56.5125006 110.8605017  23.5489987  54.2975006 109.5135017
  24.5059987  54.2975006 109.5135017  23.3089987  55.2245006 109.5135017
  26.1429987  54.7755006 110.3825017  27.0999987  54.7755006 110.3825017
  25.9029987  55.7025006 110.3825017  29.5749987  40.4505006 109.5055017
  30.5319987  40.4505006 109.5055017  29.3349987  41.3775006 109.5055017
  34.7269987  38.4775006 109.6035017  35.6839987  38.4775006 109.6035017
  34.4869987  39.4045006 109.6035017  36.4039987  39.7155006 107.9105017
  37.3609987  39.7155006 107.9105017  36.1639987  40.6425006 107.9105017
  21.9699987  39.0635006 107.3665017  22.9269987  39.0635006 107.3665017
  21.7299987  39.9905006 107.3665017  26.4759987  38.9785006 107.1525017
  27.4329987  38.9785006 107.1525017  26.2359987  39.9055006 107.1525017
  32.1299987  39.0075006 108.7965017  33.0869987  39.0075006 108.7965017
  31.8899987  39.9345006 108.7965017  33.4209987  39.0465006 104.4985017
  34.3779987  39.0465006 104.4985017  33.1809987  39.9735006 104.4985017
  20.6639987  54.7875006 104.0675017  21.6209987  54.7875006 104.0675017
  20.4239987  55.7145006 104.0675017  22.6039987  40.6825006 101.6255017
  23.5609987  40.6825006 101.6255017  22.3639987  41.6095006 101.6255017
  27.5359987  40.9915006 104.0425017  28.4929987  40.9915006 104.0425017
  27.2959987  41.9185006 104.0425017  29.5519987  55.9985006 102.4255017
  30.5089987  55.9985006 102.4255017  29.3119987  56.9255006 102.4255017
  21.8629987  39.5945006 116.8325017  22.8199987  39.5945006 116.8325017
  21.6229987  40.5215006 116.8325017  23.8799987  38.9695006 118.4345017
  24.8369987  38.9695006 118.4345017  23.6399987  39.8965006 118.4345017
  32.2669987  38.2835006 118.6005017  33.2239987  38.2835006 118.6005017
  32.0269987  39.2105006 118.6005017  35.4719987  54.3035006 117.2775017
  36.4289987  54.3035006 117.2775017  35.2319987  55.2305006 117.2775017
  49.9039987  48.1935006 107.2515017  50.8609987  48.1935006 107.2515017
  49.6639987  49.1205006 107.2515017  48.7719987  47.4665006 110.7205017
  49.7289987  47.4665006 110.7205017  48.5319987  48.3935006 110.7205017
  41.1389987  47.1145006 112.2935017  42.0959987  47.1145006 112.2935017
  40.8989987  48.0415006 112.2935017  52.4839987  50.4005006 109.0135017
  53.4409987  50.4005006 109.0135017  52.2439987  51.3275006 109.0135017
  42.0739987  51.5465006 110.8195017  43.0309987  51.5465006 110.8195017
  41.8339987  52.4735006 110.8195017  39.4039987  47.3475006 108.3735017
  40.3609987  47.3475006 108.3735017  39.1639987  48.2745006 108.3735017
  49.5939987  55.5505006 109.2505017  50.5509987  55.5505006 109.2505017
  49.3539987  56.4775006 109.2505017  47.1629987  49.8675006 111.1765017
  48.1199987  49.8675006 111.1765017  46.9229987  50.7945006 111.1765017
  55.8059987  41.4995006 111.9665017  56.7629987  41.4995006 111.9665017
  55.5659987  42.4265006 111.9665017  50.3339987  44.3195006 111.4915017
  51.2909987  44.3195006 111.4915017  50.0939987  45.2465006 111.4915017
  51.1969987  42.5585006 107.1455017  52.1539987  42.5585006 107.1455017
  50.9569987  43.4855006 107.1455017  40.0749987  44.8155006 109.4645017
  41.0319987  44.8155006 109.4645017  39.8349987  45.7425006 109.4645017
  45.2329987  46.3775006 108.7585017  46.1899987  46.3775006 108.7585017
  44.9929987  47.3045006 108.7585017  56.2329987  42.9485006 114.2145017
  57.1899987  42.9485006 114.2145017  55.9929987  43.8755006 114.2145017
  49.6469987  50.7995006 106.3295017  50.6039987  50.7995006 106.3295017
  49.4069987  51.7265006 106.3295017  44.8699987  48.9525006 113.0505017
  45.8269987  48.9525006 113.0505017  44.6299987  49.8795006 113.0505017
  41.8799987  43.2345006 110.6835017  42.8369987  43.2345006 110.6835017
  41.6399987  44.1615006 110.6835017  43.3039987  50.9355006 113.8505017
  44.2609987  50.9355006 113.8505017  43.0639987  51.8625006 113.8505017
  39.3869987  50.6055006 104.6285017  40.3439987  50.6055006 104.6285017
  39.1469987  51.5325006 104.6285017  53.0059987  52.2345006 111.3835017
  53.9629987  52.2345006 111.3835017  52.7659987  53.1615006 111.3835017
  53.4259987  40.5055006 112.8535017  54.3829987  40.5055006 112.8535017
  53.1859987  41.4325006 112.8535017  51.2559987  54.0245006 107.9915017
  52.2129987  54.0245006 107.9915017  51.0159987  54.9515006 107.9915017
  52.4539987  51.9625006 106.4985017  53.4109987  51.9625006 106.4985017
  52.2139987  52.8895006 106.4985017  54.0959987  50.5275006 114.9885017
  55.0529987  50.5275006 114.9885017  53.8559987  51.4545006 114.9885017
  55.9709987  46.8405006 113.0425017  56.9279987  46.8405006 113.0425017
  55.7309987  47.7675006 113.0425017  52.0039987  47.6745006 105.6755017
  52.9609987  47.6745006 105.6755017  51.7639987  48.6015006 105.6755017
  51.9479987  45.8095006 114.7835017  52.9049987  45.8095006 114.7835017
  51.7079987  46.7365006 114.7835017  43.6169987  48.3025006 107.6015017
  44.5739987  48.3025006 107.6015017  43.3769987  49.2295006 107.6015017
  44.9669987  51.7025006 110.2855017  45.9239987  51.7025006 110.2855017
  44.7269987  52.6295006 110.2855017  43.9729987  47.0685006 111.2355017
  44.9299987  47.0685006 111.2355017  43.7329987  47.9955006 111.2355017
  50.3639987  52.6125006 111.9475017  51.3209987  52.6125006 111.9475017
  50.1239987  53.5395006 111.9475017  44.9179987  51.4725006 115.9435017
  45.8749987  51.4725006 115.9435017  44.6779987  52.3995006 115.9435017
  41.8519987  47.6405006 115.1205017  42.8089987  47.6405006 115.1205017
  41.6119987  48.5675006 115.1205017  48.6149987  53.5555006 106.7975017
  49.5719987  53.5555006 106.7975017  48.3749987  54.4825006 106.7975017
  43.1599987  53.5185006 116.6975017  44.1169987  53.5185006 116.6975017
  42.9199987  54.4455006 116.6975017  42.5919987  47.3625006 105.2305017
  43.5489987  47.3625006 105.2305017  42.3519987  48.2895006 105.2305017
  55.7369987  52.9505006 101.6245017  56.6939987  52.9505006 101.6245017
  55.4969987  53.8775006 101.6245017  38.7089987  49.7515006 114.0715017
  39.6659987  49.7515006 114.0715017  38.4689987  50.6785006 114.0715017
  38.4599987  52.4715006 110.9185017  39.4169987  52.4715006 110.9185017
  38.2199987  53.3985006 110.9185017  56.7009987  53.1915006 116.5615017
  57.6579987  53.1915006 116.5615017  56.4609987  54.1185006 116.5615017
  47.6579987  52.7355006 115.4255017  48.6149987  52.7355006 115.4255017
  47.4179987  53.6625006 115.4255017  48.0889987  56.4855006 105.2305017
  49.0459987  56.4855006 105.2305017  47.8489987  57.4125006 105.2305017
  41.7319987  55.3335006 107.0315017  42.6889987  55.3335006 107.0315017
  41.4919987  56.2605006 107.0315017  51.1049987  55.6735006 102.2265017
  52.0619987  55.6735006 102.2265017  50.8649987  56.6005006 102.2265017
  50.8439987  55.6095006 104.9885017  51.8009987  55.6095006 104.9885017
  50.6039987  56.5365006 104.9885017  53.8499987  44.6695006 117.0475017
  54.8069987  44.6695006 117.0475017  53.6099987  45.5965006 117.0475017
  40.9819987  51.0735006 115.0365017  41.9389987  51.0735006 115.0365017
  40.7419987  52.0005006 115.0365017  51.6149987  43.0485006 115.2595017
  52.5719987  43.0485006 115.2595017  51.3749987  43.9755006 115.2595017
  43.7389987  44.5105006 112.1865017  44.6959987  44.5105006 112.1865017
  43.4989987  45.4375006 112.1865017  43.6999987  44.6915006 107.0715017
  44.6569987  44.6915006 107.0715017  43.4599987  45.6185006 107.0715017
  49.2309987  45.1035006 105.8455017  50.1879987  45.1035006 105.8455017
  48.9909987  46.0305006 105.8455017  48.3119987  45.3355006 117.3195017
  49.2689987  45.3355006 117.3195017  48.0719987  46.2625006 117.3195017
  50.2479987  44.5825006 108.7095017  51.2049987  44.5825006 108.7095017
  50.0079987  45.5095006 108.7095017  41.3959987  44.7965006 113.9495017
  42.3529987  44.7965006 113.9495017  41.1559987  45.7235006 113.9495017
  38.0449987  41.9325006 107.8485017  39.0019987  41.9325006 107.8485017
  37.8049987  42.8595006 107.8485017  49.4869987  46.2235006 113.2945017
  50.4439987  46.2235006 113.2945017  49.2469987  47.1505006 113.2945017
  53.8989987  57.0595006 117.6775017  54.8559987  57.0595006 117.6775017
  53.6589987  57.9865006 117.6775017  41.5679987  49.5245006 117.2485017
  42.5249987  49.5245006 117.2485017  41.3279987  50.4515006 117.2485017
  47.5919987  44.9455006 110.0255017  48.5489987  44.9455006 110.0255017
  47.3519987  45.8725006 110.0255017  46.2329987  43.3225006 112.4115017
  47.1899987  43.3225006 112.4115017  45.9929987  44.2495006 112.4115017
  53.9559987  48.6785006 112.9195017  54.9129987  48.6785006 112.9195017
  53.7159987  49.6055006 112.9195017  48.2789987  49.7415006 115.3545017
  49.2359987  49.7415006 115.3545017  48.0389987  50.6685006 115.3545017
  41.8879987  48.8615006 109.8895017  42.8449987  48.8615006 109.8895017
  41.6479987  49.7885006 109.8895017  38.8869987  47.2935006 115.1855017
  39.8439987  47.2935006 115.1855017  38.6469987  48.2205006 115.1855017
  45.9039987  46.8425006 117.3815017  46.8609987  46.8425006 117.3815017
  45.6639987  47.7695006 117.3815017  50.5719987  52.1775006 115.2975017
  51.5289987  52.1775006 115.2975017  50.3319987  53.1045006 115.2975017
  56.2399987  50.2305006 116.5155017  57.1969987  50.2305006 116.5155017
  55.9999987  51.1575006 116.5155017  54.5639987  53.2095006 104.1095017
  55.5209987  53.2095006 104.1095017  54.3239987  54.1365006 104.1095017
  51.7459987  48.0165006 111.1935017  52.7029987  48.0165006 111.1935017
  51.5059987  48.9435006 111.1935017  44.2499987  52.3475006 107.3395017
  45.2069987  52.3475006 107.3395017  44.0099987  53.2745006 107.3395017
  46.1409987  54.1805006 113.2195017  47.0979987  54.1805006 113.2195017
  45.9009987  55.1075006 113.2195017  44.3659987  54.9875006 106.4095017
  45.3229987  54.9875006 106.4095017  44.1259987  55.9145006 106.4095017
  49.6889987  50.2095006 112.8565017  50.6459987  50.2095006 112.8565017
  49.4489987  51.1365006 112.8565017  51.9499987  51.2525006 101.9815017
  52.9069987  51.2525006 101.9815017  51.7099987  52.1795006 101.9815017
  52.4569987  54.7795006 115.3505017  53.4139987  54.7795006 115.3505017
  52.2169987  55.7065006 115.3505017  56.4579987  55.6345006 102.1845017
  57.4149987  55.6345006 102.1845017  56.2179987  56.5615006 102.1845017
  40.5529987  42.0535006 114.7735017  41.5099987  42.0535006 114.7735017
  40.3129987  42.9805006 114.7735017  52.7949987  49.9155006 104.2315017
  53.7519987  49.9155006 104.2315017  52.5549987  50.8425006 104.2315017
  40.1529987  53.8235006 113.1675017  41.1099987  53.8235006 113.1675017
  39.9129987  54.7505006 113.1675017  41.4749987  49.0975006 103.4055017
  42.4319987  49.0975006 103.4055017  41.2349987  50.0245006 103.4055017
  47.2579987  43.1135006 105.5685017  48.2149987  43.1135006 105.5685017
  47.0179987  44.0405006 105.5685017  47.8089987  44.1335006 114.7675017
  48.7659987  44.1335006 114.7675017  47.5689987  45.0605006 114.7675017
  48.0989987  40.2615006 106.4425017  49.0559987  40.2615006 106.4425017
  47.8589987  41.1885006 106.4425017  45.0149987  54.6195006 103.5915017
  45.9719987  54.6195006 103.5915017  44.7749987  55.5465006 103.5915017
  43.7959987  41.3425006 103.1685017  44.7529987  41.3425006 103.1685017
  43.5559987  42.2695006 103.1685017  53.9909987  42.0205006 115.6265017
  54.9479987  42.0205006 115.6265017  53.7509987  42.9475006 115.6265017
  52.5799987  45.8085006 109.6895017  53.5369987  45.8085006 109.6895017
  52.3399987  46.7355006 109.6895017  53.6549987  55.0525006 111.3165017
  54.6119987  55.0525006 111.3165017  53.4149987  55.9795006 111.3165017
  39.3279987  55.7635006 117.5615017  40.2849987  55.7635006 117.5615017
  39.0879987  56.6905006 117.5615017  43.9869987  54.6675006 119.1675017
  44.9439987  54.6675006 119.1675017  43.7469987  55.5945006 119.1675017
  50.5139987  53.0505006 117.8945017  51.4709987  53.0505006 117.8945017
  50.2739987  53.9775006 117.8945017  52.6999987  53.9925006 100.8285017
  53.6569987  53.9925006 100.8285017  52.4599987  54.9195006 100.8285017
  39.2469987  49.5355006 118.5325017  40.2039987  49.5355006 118.5325017
  39.0069987  50.4625006 118.5325017  45.9439987  49.5145006 117.9305017
  46.9009987  49.5145006 117.9305017  45.7039987  50.4415006 117.9305017
  51.6469987  49.3845006 115.3165017  52.6039987  49.3845006 115.3165017
  51.4069987  50.3115006 115.3165017  40.1419987  46.7575006 117.9225017
  41.0989987  46.7575006 117.9225017  39.9019987  47.6845006 117.9225017
  44.0519987  45.7105006 115.2895017  45.0089987  45.7105006 115.2895017
  43.8119987  46.6375006 115.2895017  49.1059987  48.2555006 118.6005017
  50.0629987  48.2555006 118.6005017  48.8659987  49.1825006 118.6005017
  44.4619987  43.0895006 116.3585017  45.4189987  43.0895006 116.3585017
  44.2219987  44.0165006 116.3585017  46.3949987  46.9075006 114.1265017
  47.3519987  46.9075006 114.1265017  46.1549987  47.8345006 114.1265017
  50.7899987  44.7155006 119.1095017  51.7469987  44.7155006 119.1095017
  50.5499987  45.6425006 119.1095017  52.1209987  47.4915006 117.2455017
  53.0779987  47.4915006 117.2455017  51.8809987  48.4185006 117.2455017
  42.9079987  44.3265006 118.2705017  43.8649987  44.3265006 118.2705017
  42.6679987  45.2535006 118.2705017  46.9089987  43.2205006 117.8815017
  47.8659987  43.2205006 117.8815017  46.6689987  44.1475006 117.8815017
  49.6179987  42.3685006 116.9535017  50.5749987  42.3685006 116.9535017
  49.3779987  43.2955006 116.9535017  51.2159987  40.9945006 118.8995017
  52.1729987  40.9945006 118.8995017  50.9759987  41.9215006 118.8995017
  41.0159987  42.2485006 117.9745017  41.9729987  42.2485006 117.9745017
  40.7759987  43.1755006 117.9745017  45.8459987  38.2875006 116.9815017
  46.8029987  38.2875006 116.9815017  45.6059987  39.2145006 116.9815017
  46.2089987  39.9005006 119.0625017  47.1659987  39.9005006 119.0625017
  45.9689987  40.8275006 119.0625017  39.3019987  51.2675006 101.8525017
  40.2589987  51.2675006 101.8525017  39.0619987  52.1945006 101.8525017
  56.3739987  55.7035006 111.5165017  57.3309987  55.7035006 111.5165017
  56.1339987  56.6305006 111.5165017  55.9509987  55.3005006 114.4595017
  56.9079987  55.3005006 114.4595017  55.7109987  56.2275006 114.4595017
  54.3949987  51.0315006 119.1155017  55.3519987  51.0315006 119.1155017
  54.1549987  51.9585006 119.1155017  55.6659987  49.3825006 104.6025017
  56.6229987  49.3825006 104.6025017  55.4259987  50.3095006 104.6025017
  56.0979987  47.4305006 106.4345017  57.0549987  47.4305006 106.4345017
  55.8579987  48.3575006 106.4345017  55.8319987  50.1305006 111.4205017
  56.7889987  50.1305006 111.4205017  55.5919987  51.0575006 111.4205017
  54.3779987  53.0265006 113.7035017  55.3349987  53.0265006 113.7035017
  54.1379987  53.9535006 113.7035017  54.7709987  44.5165006 101.3855017
  55.7279987  44.5165006 101.3855017  54.5309987  45.4435006 101.3855017
  53.8869987  45.9105006 107.0105017  54.8439987  45.9105006 107.0105017
  53.6469987  46.8375006 107.0105017  38.8949987  47.9765006 111.0575017
  39.8519987  47.9765006 111.0575017  38.6549987  48.9035006 111.0575017
  54.7399987  47.8685006 116.6815017  55.6969987  47.8685006 116.6815017
  54.4999987  48.7955006 116.6815017  56.2509987  45.7615006 117.3475017
  57.2079987  45.7615006 117.3475017  56.0109987  46.6885006 117.3475017
  53.5659987  43.4715006 105.4885017  54.5229987  43.4715006 105.4885017
  53.3259987  44.3985006 105.4885017  54.1929987  44.0475006 110.9045017
  55.1499987  44.0475006 110.9045017  53.9529987  44.9745006 110.9045017
  54.2529987  44.7485006 113.6815017  55.2099987  44.7485006 113.6815017
  54.0129987  45.6755006 113.6815017  38.5039987  43.2945006 117.2385017
  39.4609987  43.2945006 117.2385017  38.2639987  44.2215006 117.2385017
  56.5339987  38.8045006 119.0595017  57.4909987  38.8045006 119.0595017
  56.2939987  39.7315006 119.0595017  39.7359987  41.5865006 110.0045017
  40.6929987  41.5865006 110.0045017  39.4959987  42.5135006 110.0045017
  37.9969987  44.5745006 111.1115017  38.9539987  44.5745006 111.1115017
  37.7569987  45.5015006 111.1115017  56.0539987  40.8955006 117.3945017
  57.0109987  40.8955006 117.3945017  55.8139987  41.8225006 117.3945017
  38.3109987  40.9235006 105.2415017  39.2679987  40.9235006 105.2415017
  38.0709987  41.8505006 105.2415017  53.1029987  55.7875006 107.1315017
  54.0599987  55.7875006 107.1315017  52.8629987  56.7145006 107.1315017
  40.5379987  52.7045006 117.6385017  41.4949987  52.7045006 117.6385017
  40.2979987  53.6315006 117.6385017  43.4569987  53.6855006 113.9375017
  44.4139987  53.6855006 113.9375017  43.2169987  54.6125006 113.9375017
  47.7679987  55.1165006 116.8365017  48.7249987  55.1165006 116.8365017
  47.5279987  56.0435006 116.8365017  50.0669987  56.3855006 116.1265017
  51.0239987  56.3855006 116.1265017  49.8269987  57.3125006 116.1265017
  55.0389987  38.9725006 115.2195017  55.9959987  38.9725006 115.2195017
  54.7989987  39.8995006 115.2195017  43.3509987  56.5755006 113.0435017
  44.3079987  56.5755006 113.0435017  43.1109987  57.5025006 113.0435017
  48.0489987  56.4235006 112.1645017  49.0059987  56.4235006 112.1645017
  47.8089987  57.3505006 112.1645017  50.3539987  55.2585006 113.1595017
  51.3109987  55.2585006 113.1595017  50.1139987  56.1855006 113.1595017
  52.9339987  56.8255006 113.4175017  53.8909987  56.8255006 113.4175017
  52.6939987  57.7525006 113.4175017  42.4089987  54.2965006 109.4905017
  43.3659987  54.2965006 109.4905017  42.1689987  55.2235006 109.4905017
  44.9909987  54.7795006 110.3925017  45.9479987  54.7795006 110.3925017
  44.7509987  55.7065006 110.3925017  46.4589987  41.0365006 104.0285017
  47.4159987  41.0365006 104.0285017  46.2189987  41.9635006 104.0285017
  48.3819987  56.0355006 102.4575017  49.3389987  56.0355006 102.4575017
  48.1419987  56.9625006 102.4575017  55.0989987  55.5885006 105.1535017
  56.0559987  55.5885006 105.1535017  54.8589987  56.5155006 105.1535017
  40.7209987  39.6515006 116.9145017  41.6779987  39.6515006 116.9145017
  40.4809987  40.5785006 116.9145017  42.7489987  38.9725006 118.4685017
  43.7059987  38.9725006 118.4685017  42.5089987  39.8995006 118.4685017
  51.1459987  38.2705006 118.6065017  52.1029987  38.2705006 118.6065017
  50.9059987  39.1975006 118.6065017  54.3369987  54.3125006 117.2615017
  55.2939987  54.3125006 117.2615017  54.0969987  55.2395006 117.2615017
  68.7009987  48.1995006 107.3075017  69.6579987  48.1995006 107.3075017
  68.4609987  49.1265006 107.3075017  59.9959987  47.1125006 112.2945017
  60.9529987  47.1125006 112.2945017  59.7559987  48.0395006 112.2945017
  60.9289987  51.5625006 110.8155017  61.8859987  51.5625006 110.8155017
  60.6889987  52.4895006 110.8155017  58.2669987  47.3465006 108.3745017
  59.2239987  47.3465006 108.3745017  58.0269987  48.2735006 108.3745017
  68.4869987  55.5025006 109.2025017  69.4439987  55.5025006 109.2025017
  68.2469987  56.4295006 109.2025017  74.6909987  41.4855006 111.9795017
  75.6479987  41.4855006 111.9795017  74.4509987  42.4125006 111.9795017
  62.2769987  42.3935006 108.7445017  63.2339987  42.3935006 108.7445017
  62.0369987  43.3205006 108.7445017  58.9539987  44.8355006 109.4675017
  59.9109987  44.8355006 109.4675017  58.7139987  45.7625006 109.4675017
  64.0869987  46.3625006 108.7745017  65.0439987  46.3625006 108.7745017
  63.8469987  47.2895006 108.7745017  75.0769987  42.9405006 114.2175017
  76.0339987  42.9405006 114.2175017  74.8369987  43.8675006 114.2175017
  61.1779987  41.3015006 112.7935017  62.1349987  41.3015006 112.7935017
  60.9379987  42.2285006 112.7935017  63.7499987  48.9555006 113.0995017
  64.7069987  48.9555006 113.0995017  63.5099987  49.8825006 113.0995017
  60.7409987  43.1965006 110.7675017  61.6979987  43.1965006 110.7675017
  60.5009987  44.1235006 110.7675017  62.1629987  50.9325006 113.8495017
  63.1199987  50.9325006 113.8495017  61.9229987  51.8595006 113.8495017
  58.2189987  50.5885006 104.6495017  59.1759987  50.5885006 104.6495017
  57.9789987  51.5155006 104.6495017  65.1549987  38.6315006 110.2265017
  66.1119987  38.6315006 110.2265017  64.9149987  39.5585006 110.2265017
  67.3999987  47.4855006 104.7935017  68.3569987  47.4855006 104.7935017
  67.1599987  48.4125006 104.7935017  62.4809987  48.2865006 107.6055017
  63.4379987  48.2865006 107.6055017  62.2409987  49.2135006 107.6055017
  63.8209987  51.6865006 110.2925017  64.7779987  51.6865006 110.2925017
  63.5809987  52.6135006 110.2925017  62.8409987  47.0585006 111.2595017
  63.7979987  47.0585006 111.2595017  62.6009987  47.9855006 111.2595017
  63.7619987  51.4235006 115.9465017  64.7189987  51.4235006 115.9465017
  63.5219987  52.3505006 115.9465017  69.6899987  46.7765006 103.4645017
  70.6469987  46.7765006 103.4645017  69.4499987  47.7035006 103.4645017
  60.7369987  47.6505006 115.1255017  61.6939987  47.6505006 115.1255017
  60.4969987  48.5775006 115.1255017  67.4499987  53.5665006 106.8275017
  68.4069987  53.5665006 106.8275017  67.2099987  54.4935006 106.8275017
  62.0119987  53.5215006 116.6965017  62.9689987  53.5215006 116.6965017
  61.7719987  54.4485006 116.6965017  57.5589987  49.7495006 114.0715017
  58.5159987  49.7495006 114.0715017  57.3189987  50.6765006 114.0715017
  57.3239987  52.4955006 110.8685017  58.2809987  52.4955006 110.8685017
  57.0839987  53.4225006 110.8685017  75.5659987  53.1955006 116.5785017
  76.5229987  53.1955006 116.5785017  75.3259987  54.1225006 116.5785017
  66.4749987  52.7465006 115.3845017  67.4319987  52.7465006 115.3845017
  66.2349987  53.6735006 115.3845017  66.9539987  56.4965006 105.2245017
  67.9109987  56.4965006 105.2245017  66.7139987  57.4235006 105.2245017
  60.5839987  55.3615006 107.0485017  61.5409987  55.3615006 107.0485017
  60.3439987  56.2885006 107.0485017  72.6999987  44.6745006 117.0535017
  73.6569987  44.6745006 117.0535017  72.4599987  45.6015006 117.0535017
  59.8539987  51.0455006 115.0345017  60.8109987  51.0455006 115.0345017
  59.6139987  51.9725006 115.0345017  62.4989987  39.5305006 111.0055017
  63.4559987  39.5305006 111.0055017  62.2589987  40.4575006 111.0055017
  67.1129987  39.2235006 114.3865017  68.0699987  39.2235006 114.3865017
  66.8729987  40.1505006 114.3865017  62.5919987  44.4995006 112.2265017
  63.5489987  44.4995006 112.2265017  62.3519987  45.4265006 112.2265017
  62.5609987  44.6495006 107.0885017  63.5179987  44.6495006 107.0885017
  62.3209987  45.5765006 107.0885017  67.1889987  45.3355006 117.3095017
  68.1459987  45.3355006 117.3095017  66.9489987  46.2625006 117.3095017
  60.2889987  44.7895006 113.9585017  61.2459987  44.7895006 113.9585017
  60.0489987  45.7165006 113.9585017  56.9279987  41.9455006 107.8615017
  57.8849987  41.9455006 107.8615017  56.6879987  42.8725006 107.8615017
  58.1579987  42.6555006 103.3105017  59.1149987  42.6555006 103.3105017
  57.9179987  43.5825006 103.3105017  59.9439987  43.7565006 106.9515017
  60.9009987  43.7565006 106.9515017  59.7039987  44.6835006 106.9515017
  72.7609987  57.0585006 117.6725017  73.7179987  57.0585006 117.6725017
  72.5209987  57.9855006 117.6725017  60.4419987  49.5105006 117.2505017
  61.3989987  49.5105006 117.2505017  60.2019987  50.4375006 117.2505017
  65.0569987  43.2615006 112.4455017  66.0139987  43.2615006 112.4455017
  64.8169987  44.1885006 112.4455017  60.7729987  48.8815006 109.9235017
  61.7299987  48.8815006 109.9235017  60.5329987  49.8085006 109.9235017
  57.7439987  47.2945006 115.1815017  58.7009987  47.2945006 115.1815017
  57.5039987  48.2215006 115.1815017  64.8489987  46.5045006 117.6245017
  65.8059987  46.5045006 117.6245017  64.6089987  47.4315006 117.6245017
  75.0849987  50.2475006 116.4975017  76.0419987  50.2475006 116.4975017
  74.8449987  51.1745006 116.4975017  63.1049987  52.3435006 107.3325017
  64.0619987  52.3435006 107.3325017  62.8649987  53.2705006 107.3325017
  64.5619987  50.0125006 106.8935017  65.5189987  50.0125006 106.8935017
  64.3219987  50.9395006 106.8935017  65.0089987  54.1685006 113.2055017
  65.9659987  54.1685006 113.2055017  64.7689987  55.0955006 113.2055017
  63.2259987  55.0055006 106.3915017  64.1829987  55.0055006 106.3915017
  62.9859987  55.9325006 106.3915017  71.3129987  54.7685006 115.3495017
  72.2699987  54.7685006 115.3495017  71.0729987  55.6955006 115.3495017
  59.3919987  42.0325006 114.7325017  60.3489987  42.0325006 114.7325017
  59.1519987  42.9595006 114.7325017  59.0209987  53.8235006 113.1635017
  59.9779987  53.8235006 113.1635017  58.7809987  54.7505006 113.1635017
  66.6169987  53.5795006 103.6345017  67.5739987  53.5795006 103.6345017
  66.3769987  54.5065006 103.6345017  66.6109987  44.1085006 114.8085017
  67.5679987  44.1085006 114.8085017  66.3709987  45.0355006 114.8085017
  63.9309987  54.6025006 103.5895017  64.8879987  54.6025006 103.5895017
  63.6909987  55.5295006 103.5895017  72.8309987  42.0705006 115.6025017
  73.7879987  42.0705006 115.6025017  72.5909987  42.9975006 115.6025017
  60.8829987  51.7305006 102.2655017  61.8399987  51.7305006 102.2655017
  60.6429987  52.6575006 102.2655017  60.0059987  39.1795006 110.1055017
  60.9629987  39.1795006 110.1055017  59.7659987  40.1065006 110.1055017
  58.9519987  53.1145006 106.2575017  59.9089987  53.1145006 106.2575017
  58.7119987  54.0415006 106.2575017  58.1839987  55.7525006 117.5475017
  59.1409987  55.7525006 117.5475017  57.9439987  56.6795006 117.5475017
  62.8379987  54.6665006 119.1635017  63.7949987  54.6665006 119.1635017
  62.5979987  55.5935006 119.1635017  69.3889987  53.0565006 117.8905017
  70.3459987  53.0565006 117.8905017  69.1489987  53.9835006 117.8905017
  58.1079987  49.5355006 118.5275017  59.0649987  49.5355006 118.5275017
  57.8679987  50.4625006 118.5275017  64.7539987  49.5155006 117.9505017
  65.7109987  49.5155006 117.9505017  64.5139987  50.4425006 117.9505017
  59.0239987  46.7625006 117.9185017  59.9809987  46.7625006 117.9185017
  58.7839987  47.6895006 117.9185017  62.9649987  45.7775006 115.3305017
  63.9219987  45.7775006 115.3305017  62.7249987  46.7045006 115.3305017
  67.9589987  48.2285006 118.5785017  68.9159987  48.2285006 118.5785017
  67.7189987  49.1555006 118.5785017  63.3029987  43.0995006 116.3385017
  64.2599987  43.0995006 116.3385017  63.0629987  44.0265006 116.3385017
  63.6819987  41.4645006 113.8795017  64.6389987  41.4645006 113.8795017
  63.4419987  42.3915006 113.8795017  65.2769987  46.9245006 114.0835017
  66.2339987  46.9245006 114.0835017  65.0369987  47.8515006 114.0835017
  69.6399987  44.7115006 119.1355017  70.5969987  44.7115006 119.1355017
  69.3999987  45.6385006 119.1355017  70.9899987  47.5225006 117.2535017
  71.9469987  47.5225006 117.2535017  70.7499987  48.4495006 117.2535017
  61.7439987  44.3375006 118.2515017  62.7009987  44.3375006 118.2515017
  61.5039987  45.2645006 118.2515017  64.4669987  38.8885006 114.3095017
  65.4239987  38.8885006 114.3095017  64.2269987  39.8155006 114.3095017
  65.7509987  43.2535006 117.8935017  66.7079987  43.2535006 117.8935017
  65.5109987  44.1805006 117.8935017  68.4839987  42.4045006 116.9635017
  69.4409987  42.4045006 116.9635017  68.2439987  43.3315006 116.9635017
  70.0869987  40.9935006 118.9095017  71.0439987  40.9935006 118.9095017
  69.8469987  41.9205006 118.9095017  59.8549987  42.2505006 118.0055017
  60.8119987  42.2505006 118.0055017  59.6149987  43.1775006 118.0055017
  64.7059987  38.2765006 116.9835017  65.6629987  38.2765006 116.9835017
  64.4659987  39.2035006 116.9835017  65.0639987  39.9025006 119.0785017
  66.0209987  39.9025006 119.0785017  64.8239987  40.8295006 119.0785017
  58.1419987  51.4465006 101.7365017  59.0989987  51.4465006 101.7365017
  57.9019987  52.3735006 101.7365017  56.8679987  56.7985006 106.7135017
  57.8249987  56.7985006 106.7135017  56.6279987  57.7255006 106.7135017
  57.6949987  54.9065006 108.5655017  58.6519987  54.9065006 108.5655017
  57.4549987  55.8335006 108.5655017  75.2659987  55.6975006 111.5235017
  76.2229987  55.6975006 111.5235017  75.0259987  56.6245006 111.5235017
  74.8089987  55.2865006 114.4495017  75.7659987  55.2865006 114.4495017
  74.5689987  56.2135006 114.4495017  73.2399987  51.0385006 119.0925017
  74.1969987  51.0385006 119.0925017  72.9999987  51.9655006 119.0925017
  57.7569987  47.9775006 111.0505017  58.7139987  47.9775006 111.0505017
  57.5169987  48.9045006 111.0505017  73.5949987  47.9075006 116.7185017
  74.5519987  47.9075006 116.7185017  73.3549987  48.8345006 116.7185017
  75.0989987  45.7635006 117.3435017  76.0559987  45.7635006 117.3435017
  74.8589987  46.6905006 117.3435017  57.3649987  43.2805006 117.2025017
  58.3219987  43.2805006 117.2025017  57.1249987  44.2075006 117.2025017
  75.3809987  38.7975006 119.0425017  76.3379987  38.7975006 119.0425017
  75.1409987  39.7245006 119.0425017  58.5759987  41.5715006 110.0435017
  59.5329987  41.5715006 110.0435017  58.3359987  42.4985006 110.0435017
  56.8639987  44.5695006 111.1195017  57.8209987  44.5695006 111.1195017
  56.6239987  45.4965006 111.1195017  74.9109987  40.9095006 117.3845017
  75.8679987  40.9095006 117.3845017  74.6709987  41.8365006 117.3845017
  57.2059987  40.8375006 105.1725017  58.1629987  40.8375006 105.1725017
  56.9659987  41.7645006 105.1725017  57.1569987  39.4985006 113.4745017
  58.1139987  39.4985006 113.4745017  56.9169987  40.4255006 113.4745017
  59.3939987  52.6945006 117.6475017  60.3509987  52.6945006 117.6475017
  59.1539987  53.6215006 117.6475017  62.3049987  53.6795006 113.9085017
  63.2619987  53.6795006 113.9085017  62.0649987  54.6065006 113.9085017
  66.6209987  55.1155006 116.8465017  67.5779987  55.1155006 116.8465017
  66.3809987  56.0425006 116.8465017  68.9339987  56.3805006 116.1125017
  69.8909987  56.3805006 116.1125017  68.6939987  57.3075006 116.1125017
  73.9099987  38.9905006 115.2325017  74.8669987  38.9905006 115.2325017
  73.6699987  39.9175006 115.2325017  59.7349987  56.9355006 113.9295017
  60.6919987  56.9355006 113.9295017  59.4949987  57.8625006 113.9295017
  62.2009987  56.5185006 112.9935017  63.1579987  56.5185006 112.9935017
  61.9609987  57.4455006 112.9935017  66.9289987  56.4315006 112.1495017
  67.8859987  56.4315006 112.1495017  66.6889987  57.3585006 112.1495017
  69.2249987  55.2895006 113.1305017  70.1819987  55.2895006 113.1305017
  68.9849987  56.2165006 113.1305017  71.7959987  56.8215006 113.4135017
  72.7529987  56.8215006 113.4135017  71.5559987  57.7485006 113.4135017
  59.1669987  55.5855006 110.8605017  60.1239987  55.5855006 110.8605017
  58.9269987  56.5125006 110.8605017  61.2599987  54.2975006 109.5145017
  62.2169987  54.2975006 109.5145017  61.0199987  55.2245006 109.5145017
  63.8469987  54.7705006 110.3845017  64.8039987  54.7705006 110.3845017
  63.6069987  55.6975006 110.3845017  67.2749987  40.4275006 109.4385017
  68.2319987  40.4275006 109.4385017  67.0349987  41.3545006 109.4385017
  72.4599987  38.4615006 109.5705017  73.4169987  38.4615006 109.5705017
  72.2199987  39.3885006 109.5705017  59.6619987  39.0595006 107.3925017
  60.6189987  39.0595006 107.3925017  59.4219987  39.9865006 107.3925017
  58.4559987  38.8165006 103.1355017  59.4129987  38.8165006 103.1355017
  58.2159987  39.7435006 103.1355017  64.2109987  38.9595006 107.1385017
  65.1679987  38.9595006 107.1385017  63.9709987  39.8865006 107.1385017
  69.8059987  39.0315006 108.7965017  70.7629987  39.0315006 108.7965017
  69.5659987  39.9585006 108.7965017  58.3839987  54.7815006 104.0875017
  59.3409987  54.7815006 104.0875017  58.1439987  55.7085006 104.0875017
  59.5789987  39.5945006 116.8325017  60.5359987  39.5945006 116.8325017
  59.3389987  40.5215006 116.8325017  61.5859987  38.9695006 118.4455017
  62.5429987  38.9695006 118.4455017  61.3459987  39.8965006 118.4455017
  69.9879987  38.2605006 118.6155017  70.9449987  38.2605006 118.6155017
  69.7479987  39.1875006 118.6155017  73.1989987  54.3135006 117.2725017
  74.1559987  54.3135006 117.2725017  72.9589987  55.2405006 117.2725017
  87.6209987  48.1975006 107.2725017  88.5779987  48.1975006 107.2725017
  87.3809987  49.1245006 107.2725017  86.4969987  47.4605006 110.7355017
  87.4539987  47.4605006 110.7355017  86.2569987  48.3875006 110.7355017
  78.8669987  47.1255006 112.2995017  79.8239987  47.1255006 112.2995017
  78.6269987  48.0525006 112.2995017  90.1959987  50.3995006 109.0135017
  91.1529987  50.3995006 109.0135017  89.9559987  51.3265006 109.0135017
  79.7709987  51.5625006 110.8045017  80.7279987  51.5625006 110.8045017
  79.5309987  52.4895006 110.8045017  87.3069987  55.5495006 109.2505017
  88.2639987  55.5495006 109.2505017  87.0669987  56.4765006 109.2505017
  84.8719987  49.8665006 111.1785017  85.8289987  49.8665006 111.1785017
  84.6319987  50.7935006 111.1785017  93.4919987  41.5005006 111.9475017
  94.4489987  41.5005006 111.9475017  93.2519987  42.4275006 111.9475017
  88.0369987  44.3205006 111.5045017  88.9939987  44.3205006 111.5045017
  87.7969987  45.2475006 111.5045017  81.1929987  42.3935006 108.7315017
  82.1499987  42.3935006 108.7315017  80.9529987  43.3205006 108.7315017
  88.8929987  42.4955006 107.1185017  89.8499987  42.4955006 107.1185017
  88.6529987  43.4225006 107.1185017  82.9439987  46.3695006 108.7635017
  83.9009987  46.3695006 108.7635017  82.7039987  47.2965006 108.7635017
  93.9259987  42.9335006 114.2075017  94.8829987  42.9335006 114.2075017
  93.6859987  43.8605006 114.2075017  80.0519987  41.3035006 112.7935017
  81.0089987  41.3035006 112.7935017  79.8119987  42.2305006 112.7935017
  87.3609987  50.7965006 106.3255017  88.3179987  50.7965006 106.3255017
  87.1209987  51.7235006 106.3255017  82.5769987  48.9545006 113.0375017
  83.5339987  48.9545006 113.0375017  82.3369987  49.8815006 113.0375017
  90.6819987  41.8355006 109.1035017  91.6389987  41.8355006 109.1035017
  90.4419987  42.7625006 109.1035017  79.6339987  43.1185006 110.8145017
  80.5909987  43.1185006 110.8145017  79.3939987  44.0455006 110.8145017
  81.0119987  50.9445006 113.8505017  81.9689987  50.9445006 113.8505017
  80.7719987  51.8715006 113.8505017  90.7179987  52.2345006 111.3825017
  91.6749987  52.2345006 111.3825017  90.4779987  53.1615006 111.3825017
  91.0339987  40.5235006 112.7805017  91.9909987  40.5235006 112.7805017
  90.7939987  41.4505006 112.7805017  84.0229987  38.6355006 110.2495017
  84.9799987  38.6355006 110.2495017  83.7829987  39.5625006 110.2495017
  88.9589987  54.0175006 107.9755017  89.9159987  54.0175006 107.9755017
  88.7189987  54.9445006 107.9755017  90.1599987  51.9455006 106.4995017
  91.1169987  51.9455006 106.4995017  89.9199987  52.8725006 106.4995017
  91.8079987  50.5275006 114.9885017  92.7649987  50.5275006 114.9885017
  91.5679987  51.4545006 114.9885017  86.3059987  47.4205006 104.7455017
  87.2629987  47.4205006 104.7455017  86.0659987  48.3475006 104.7455017
  93.6829987  46.8415006 113.0415017  94.6399987  46.8415006 113.0415017
  93.4429987  47.7685006 113.0415017  89.7339987  47.6385006 105.6735017
  90.6909987  47.6385006 105.6735017  89.4939987  48.5655006 105.6735017
  89.6599987  45.8095006 114.7875017  90.6169987  45.8095006 114.7875017
  89.4199987  46.7365006 114.7875017  81.3639987  48.3205006 107.5805017
  82.3209987  48.3205006 107.5805017  81.1239987  49.2475006 107.5805017
  82.6799987  51.7055006 110.2725017  83.6369987  51.7055006 110.2725017
  82.4399987  52.6325006 110.2725017  81.7039987  47.0505006 111.2425017
  82.6609987  47.0505006 111.2425017  81.4639987  47.9775006 111.2425017
  88.0779987  52.6115006 111.9475017  89.0349987  52.6115006 111.9475017
  87.8379987  53.5385006 111.9475017  82.6299987  51.4725006 115.9435017
  83.5869987  51.4725006 115.9435017  82.3899987  52.3995006 115.9435017
  88.6029987  46.8095006 103.3535017  89.5599987  46.8095006 103.3535017
  88.3629987  47.7365006 103.3535017  79.5579987  47.6415006 115.1245017
  80.5149987  47.6415006 115.1245017  79.3179987  48.5685006 115.1245017
  86.3149987  53.5515006 106.8295017  87.2719987  53.5515006 106.8295017
  86.0749987  54.4785006 106.8295017  80.8699987  53.5235006 116.6975017
  81.8269987  53.5235006 116.6975017  80.6299987  54.4505006 116.6975017
  92.3229987  38.5675006 103.2565017  93.2799987  38.5675006 103.2565017
  92.0829987  39.4945006 103.2565017  80.3629987  47.3255006 105.1725017
  81.3199987  47.3255006 105.1725017  80.1229987  48.2525006 105.1725017
  93.4599987  52.9185006 101.6225017  94.4169987  52.9185006 101.6225017
  93.2199987  53.8455006 101.6225017  76.3989987  49.7765006 114.0785017
  77.3559987  49.7765006 114.0785017  76.1589987  50.7035006 114.0785017
  76.1849987  52.4955006 110.8425017  77.1419987  52.4955006 110.8425017
  75.9449987  53.4225006 110.8425017  94.4129987  53.1915006 116.5615017
  95.3699987  53.1915006 116.5615017  94.1729987  54.1185006 116.5615017
  85.3739987  52.7375006 115.4245017  86.3309987  52.7375006 115.4245017
  85.1339987  53.6645006 115.4245017  85.7889987  56.4825006 105.2345017
  86.7459987  56.4825006 105.2345017  85.5489987  57.4095006 105.2345017
  79.4249987  55.3385006 107.0315017  80.3819987  55.3385006 107.0315017
  79.1849987  56.2655006 107.0315017  88.9379987  55.6855006 102.1855017
  89.8949987  55.6855006 102.1855017  88.6979987  56.6125006 102.1855017
  88.5619987  55.6225006 104.9935017  89.5189987  55.6225006 104.9935017
  88.3219987  56.5495006 104.9935017  91.5529987  44.6655006 117.0425017
  92.5099987  44.6655006 117.0425017  91.3129987  45.5925006 117.0425017
  78.6669987  51.0905006 115.0405017  79.6239987  51.0905006 115.0405017
  78.4269987  52.0175006 115.0405017  81.3659987  39.5235006 111.0065017
  82.3229987  39.5235006 111.0065017  81.1259987  40.4505006 111.0065017
  86.0069987  39.2225006 114.3665017  86.9639987  39.2225006 114.3665017
  85.7669987  40.1495006 114.3665017  89.3089987  43.0395006 115.2545017
  90.2659987  43.0395006 115.2545017  89.0689987  43.9665006 115.2545017
  90.1169987  47.7845006 101.0935017  91.0739987  47.7845006 101.0935017
  89.8769987  48.7115006 101.0935017  81.4739987  44.5025006 112.2155017
  82.4309987  44.5025006 112.2155017  81.2339987  45.4295006 112.2155017
  81.4089987  44.6865006 107.0765017  82.3659987  44.6865006 107.0765017
  81.1689987  45.6135006 107.0765017  86.9399987  45.1105006 105.8495017
  87.8969987  45.1105006 105.8495017  86.6999987  46.0375006 105.8495017
  86.0229987  45.3365006 117.3225017  86.9799987  45.3365006 117.3225017
  85.7829987  46.2635006 117.3225017  87.9759987  44.6135006 108.7095017
  88.9329987  44.6135006 108.7095017  87.7359987  45.5405006 108.7095017
  79.1429987  44.7725006 113.9625017  80.0999987  44.7725006 113.9625017
  78.9029987  45.6995006 113.9625017  87.1929987  46.2155006 113.2985017
  88.1499987  46.2155006 113.2985017  86.9529987  47.1425006 113.2985017
  83.9799987  42.1795006 108.1175017  84.9369987  42.1795006 108.1175017
  83.7399987  43.1065006 108.1175017  82.4149987  43.8215006 104.6425017
  83.3719987  43.8215006 104.6425017  82.1749987  44.7485006 104.6425017
  88.3949987  41.4095006 111.3625017  89.3519987  41.4095006 111.3625017
  88.1549987  42.3365006 111.3625017  91.6069987  57.0635006 117.6875017
  92.5639987  57.0635006 117.6875017  91.3669987  57.9905006 117.6875017
  79.2809987  49.5245006 117.2485017  80.2379987  49.5245006 117.2485017
  79.0409987  50.4515006 117.2485017  85.2799987  44.9385006 110.0085017
  86.2369987  44.9385006 110.0085017  85.0399987  45.8655006 110.0085017
  80.3389987  41.0735006 106.4925017  81.2959987  41.0735006 106.4925017
  80.0989987  42.0005006 106.4925017  83.9169987  43.2765006 112.4195017
  84.8739987  43.2765006 112.4195017  83.6769987  44.2035006 112.4195017
  84.4789987  49.4845006 104.0955017  85.4359987  49.4845006 104.0955017
  84.2389987  50.4115006 104.0955017  91.6669987  48.6785006 112.9195017
  92.6239987  48.6785006 112.9195017  91.4269987  49.6055006 112.9195017
  88.3399987  42.3225006 102.2735017  89.2969987  42.3225006 102.2735017
  88.0999987  43.2495006 102.2735017  85.9909987  49.7415006 115.3545017
  86.9479987  49.7415006 115.3545017  85.7509987  50.6685006 115.3545017
  89.0849987  44.2065006 103.9625017  90.0419987  44.2065006 103.9625017
  88.8449987  45.1335006 103.9625017  79.6179987  48.8765006 109.9235017
  80.5749987  48.8765006 109.9235017  79.3779987  49.8035006 109.9235017
  86.6339987  50.9605006 103.2285017  87.5909987  50.9605006 103.2285017
  86.3939987  51.8875006 103.2285017  76.6199987  47.2905006 115.1875017
  77.5769987  47.2905006 115.1875017  76.3799987  48.2175006 115.1875017
  83.6199987  46.8505006 117.3795017  84.5769987  46.8505006 117.3795017
  83.3799987  47.7775006 117.3795017  88.2839987  52.1775006 115.2975017
  89.2409987  52.1775006 115.2975017  88.0439987  53.1045006 115.2975017
  93.9529987  50.2285006 116.5145017  94.9099987  50.2285006 116.5145017
  93.7129987  51.1555006 116.5145017  92.2489987  53.1965006 104.1045017
  93.2059987  53.1965006 104.1045017  92.0089987  54.1235006 104.1045017
  89.4579987  48.0135006 111.1925017  90.4149987  48.0135006 111.1925017
  89.2179987  48.9405006 111.1925017  81.9809987  52.3275006 107.2945017
  82.9379987  52.3275006 107.2945017  81.7409987  53.2545006 107.2945017
  83.3989987  50.0165006 106.8035017  84.3559987  50.0165006 106.8035017
  83.1589987  50.9435006 106.8035017  83.8599987  54.1785006 113.2135017
  84.8169987  54.1785006 113.2135017  83.6199987  55.1055006 113.2135017
  82.0669987  54.9805006 106.4165017  83.0239987  54.9805006 106.4165017
  81.8269987  55.9075006 106.4165017  87.4019987  50.2105006 112.8575017
  88.3589987  50.2105006 112.8575017  87.1619987  51.1375006 112.8575017
  90.1689987  54.7795006 115.3495017  91.1259987  54.7795006 115.3495017
  89.9289987  55.7065006 115.3495017  94.1709987  55.6615006 102.1665017
  95.1279987  55.6615006 102.1665017  93.9309987  56.5885006 102.1665017
  78.2419987  42.0295006 114.7205017  79.1989987  42.0295006 114.7205017
  78.0019987  42.9565006 114.7205017  90.5039987  49.8915006 104.1825017
  91.4609987  49.8915006 104.1825017  90.2639987  50.8185006 104.1825017
  77.8699987  53.8285006 113.1605017  78.8269987  53.8285006 113.1605017
  77.6299987  54.7555006 113.1605017  83.7019987  52.2895006 100.3585017
  84.6589987  52.2895006 100.3585017  83.4619987  53.2165006 100.3585017
  82.6069987  51.8535006 102.8775017  83.5639987  51.8535006 102.8775017
  82.3669987  52.7805006 102.8775017  86.9769987  41.7955006 113.6705017
  87.9339987  41.7955006 113.6705017  86.7369987  42.7225006 113.6705017
  87.7469987  41.4085006 104.7895017  88.7039987  41.4085006 104.7895017
  87.5069987  42.3355006 104.7895017  84.9359987  43.1705006 105.5845017
  85.8929987  43.1705006 105.5845017  84.6959987  44.0975006 105.5845017
  85.5059987  44.1435006 114.7755017  86.4629987  44.1435006 114.7755017
  85.2659987  45.0705006 114.7755017  85.8259987  40.1905006 106.5105017
  86.7829987  40.1905006 106.5105017  85.5859987  41.1175006 106.5105017
  81.4869987  41.2935006 103.2285017  82.4439987  41.2935006 103.2285017
  81.2469987  42.2205006 103.2285017  91.6999987  42.0205006 115.6245017
  92.6569987  42.0205006 115.6245017  91.4599987  42.9475006 115.6245017
  90.3009987  45.8045006 109.6545017  91.2579987  45.8045006 109.6545017
  90.0609987  46.7315006 109.6545017  79.7049987  51.7385006 102.2405017
  80.6619987  51.7385006 102.2405017  79.4649987  52.6655006 102.2405017
  91.3659987  55.0525006 111.3165017  92.3229987  55.0525006 111.3165017
  91.1259987  55.9795006 111.3165017  78.8819987  39.1735006 110.0665017
  79.8389987  39.1735006 110.0665017  78.6419987  40.1005006 110.0665017
  77.8029987  53.1125006 106.2015017  78.7599987  53.1125006 106.2015017
  77.5629987  54.0395006 106.2015017  77.0399987  55.7525006 117.5485017
  77.9969987  55.7525006 117.5485017  76.7999987  56.6795006 117.5485017
  81.6949987  54.6675006 119.1625017  82.6519987  54.6675006 119.1625017
  81.4549987  55.5945006 119.1625017  88.2269987  53.0505006 117.8945017
  89.1839987  53.0505006 117.8945017  87.9869987  53.9775006 117.8945017
  76.9589987  49.5375006 118.5365017  77.9159987  49.5375006 118.5365017
  76.7189987  50.4645006 118.5365017  83.6549987  49.5145006 117.9305017
  84.6119987  49.5145006 117.9305017  83.4149987  50.4415006 117.9305017
  89.3589987  49.3845006 115.3165017  90.3159987  49.3845006 115.3165017
  89.1189987  50.3115006 115.3165017  77.8139987  46.7445006 117.9035017
  78.7709987  46.7445006 117.9035017  77.5739987  47.6715006 117.9035017
  81.7639987  45.7115006 115.2875017  82.7209987  45.7115006 115.2875017
  81.5239987  46.6385006 115.2875017  86.8189987  48.2545006 118.5995017
  87.7759987  48.2545006 118.5995017  86.5789987  49.1815006 118.5995017
  92.9109987  48.4485006 100.6365017  93.8679987  48.4485006 100.6365017
  92.6709987  49.3755006 100.6365017  82.1579987  43.0845006 116.3535017
  83.1149987  43.0845006 116.3535017  81.9179987  44.0115006 116.3535017
  82.5529987  41.4615006 113.8845017  83.5099987  41.4615006 113.8845017
  82.3129987  42.3885006 113.8845017  84.1049987  46.9305006 114.1325017
  85.0619987  46.9305006 114.1325017  83.8649987  47.8575006 114.1325017
  88.5039987  44.7095006 119.1085017  89.4609987  44.7095006 119.1085017
  88.2639987  45.6365006 119.1085017  89.8309987  47.4895006 117.2435017
  90.7879987  47.4895006 117.2435017  89.5909987  48.4165006 117.2435017
  80.6139987  44.3265006 118.2675017  81.5709987  44.3265006 118.2675017
  80.3739987  45.2535006 118.2675017  83.3439987  38.9045006 114.2925017
  84.3009987  38.9045006 114.2925017  83.1039987  39.8315006 114.2925017
  84.6209987  43.2305006 117.8925017  85.5779987  43.2305006 117.8925017
  84.3809987  44.1575006 117.8925017  87.3379987  42.3645006 116.9675017
  88.2949987  42.3645006 116.9675017  87.0979987  43.2915006 116.9675017
  88.9339987  40.9955006 118.9075017  89.8909987  40.9955006 118.9075017
  88.6939987  41.9225006 118.9075017  78.7109987  42.2515006 118.0005017
  79.6679987  42.2515006 118.0005017  78.4709987  43.1785006 118.0005017
  83.5599987  38.2685006 116.9835017  84.5169987  38.2685006 116.9835017
  83.3199987  39.1955006 116.9835017  83.9269987  39.9025006 119.0725017
  84.8839987  39.9025006 119.0725017  83.6869987  40.8295006 119.0725017
  75.7329987  56.7875006 106.6795017  76.6899987  56.7875006 106.6795017
  75.4929987  57.7145006 106.6795017  76.5479987  54.8805006 108.5265017
  77.5049987  54.8805006 108.5265017  76.3079987  55.8075006 108.5265017
  94.0889987  55.7085006 111.5135017  95.0459987  55.7085006 111.5135017
  93.8489987  56.6355006 111.5135017  93.6619987  55.3005006 114.4595017
  94.6189987  55.3005006 114.4595017  93.4219987  56.2275006 114.4595017
  92.1129987  51.0215006 119.1155017  93.0699987  51.0215006 119.1155017
  91.8729987  51.9485006 119.1155017  93.4289987  49.3235006 104.5675017
  94.3859987  49.3235006 104.5675017  93.1889987  50.2505006 104.5675017
  93.7909987  47.3915006 106.4275017  94.7479987  47.3915006 106.4275017
  93.5509987  48.3185006 106.4275017  93.5439987  50.1305006 111.4205017
  94.5009987  50.1305006 111.4205017  93.3039987  51.0575006 111.4205017
  92.0899987  53.0275006 113.7025017  93.0469987  53.0275006 113.7025017
  91.8499987  53.9545006 113.7025017  94.0689987  47.2455006 102.8335017
  95.0259987  47.2455006 102.8335017  93.8289987  48.1725006 102.8335017
  91.5999987  45.8905006 106.9825017  92.5569987  45.8905006 106.9825017
  91.3599987  46.8175006 106.9825017  76.6129987  48.0135006 111.0355017
  77.5699987  48.0135006 111.0355017  76.3729987  48.9405006 111.0355017
  92.4529987  47.8675006 116.6815017  93.4099987  47.8675006 116.6815017
  92.2129987  48.7945006 116.6815017  93.9609987  45.7605006 117.3465017
  94.9179987  45.7605006 117.3465017  93.7209987  46.6875006 117.3465017
  91.2709987  43.4785006 105.4585017  92.2279987  43.4785006 105.4585017
  91.0309987  44.4055006 105.4585017  91.9059987  44.0275006 110.9075017
  92.8629987  44.0275006 110.9075017  91.6659987  44.9545006 110.9075017
  91.9749987  44.7555006 113.6955017  92.9319987  44.7555006 113.6955017
  91.7349987  45.6825006 113.6955017  76.2299987  43.2765006 117.2055017
  77.1869987  43.2765006 117.2055017  75.9899987  44.2035006 117.2055017
  94.2369987  38.7965006 119.0425017  95.1939987  38.7965006 119.0425017
  93.9969987  39.7235006 119.0425017  91.9339987  40.7635006 105.5045017
  92.8909987  40.7635006 105.5045017  91.6939987  41.6905006 105.5045017
  77.4299987  41.5565006 110.0825017  78.3869987  41.5565006 110.0825017
  77.1899987  42.4835006 110.0825017  93.7669987  40.9025006 117.3945017
  94.7239987  40.9025006 117.3945017  93.5269987  41.8295006 117.3945017
  93.8079987  40.7785006 102.1105017  94.7649987  40.7785006 102.1105017
  93.5679987  41.7055006 102.1105017  90.8119987  55.7765006 107.1365017
  91.7689987  55.7765006 107.1365017  90.5719987  56.7035006 107.1365017
  76.0389987  39.4985006 113.4945017  76.9959987  39.4985006 113.4945017
  75.7989987  40.4255006 113.4945017  78.2569987  52.6945006 117.6525017
  79.2139987  52.6945006 117.6525017  78.0169987  53.6215006 117.6525017
  81.1599987  53.6905006 113.9225017  82.1169987  53.6905006 113.9225017
  80.9199987  54.6175006 113.9225017  85.4799987  55.1155006 116.8375017
  86.4369987  55.1155006 116.8375017  85.2399987  56.0425006 116.8375017
  87.7789987  56.3855006 116.1265017  88.7359987  56.3855006 116.1265017
  87.5389987  57.3125006 116.1265017  92.7799987  38.9985006 115.2305017
  93.7369987  38.9985006 115.2305017  92.5399987  39.9255006 115.2305017
  78.5929987  56.9455006 113.9355017  79.5499987  56.9455006 113.9355017
  78.3529987  57.8725006 113.9355017  81.0579987  56.5185006 112.9935017
  82.0149987  56.5185006 112.9935017  80.8179987  57.4455006 112.9935017
  85.7589987  56.4275006 112.1615017  86.7159987  56.4275006 112.1615017
  85.5189987  57.3545006 112.1615017  88.0659987  55.2585006 113.1595017
  89.0229987  55.2585006 113.1595017  87.8259987  56.1855006 113.1595017
  90.6469987  56.8255006 113.4175017  91.6039987  56.8255006 113.4175017
  90.4069987  57.7525006 113.4175017  78.0309987  55.5955006 110.8595017
  78.9879987  55.5955006 110.8595017  77.7909987  56.5225006 110.8595017
  80.1079987  54.2965006 109.5245017  81.0649987  54.2965006 109.5245017
  79.8679987  55.2235006 109.5245017  82.7059987  54.7765006 110.3875017
  83.6629987  54.7765006 110.3875017  82.4659987  55.7035006 110.3875017
  86.1769987  40.4295006 109.5265017  87.1339987  40.4295006 109.5265017
  85.9369987  41.3565006 109.5265017  91.3129987  38.4905006 109.6135017
  92.2699987  38.4905006 109.6135017  91.0729987  39.4175006 109.6135017
  92.9919987  39.7045006 107.9015017  93.9489987  39.7045006 107.9015017
  92.7519987  40.6315006 107.9015017  83.0779987  38.9385006 107.1535017
  84.0349987  38.9385006 107.1535017  82.8379987  39.8655006 107.1535017
  88.7049987  39.0055006 108.7965017  89.6619987  39.0055006 108.7965017
  88.4649987  39.9325006 108.7965017  89.9919987  39.0545006 104.4825017
  90.9489987  39.0545006 104.4825017  89.7519987  39.9815006 104.4825017
  79.2019987  40.7805006 101.5365017  80.1589987  40.7805006 101.5365017
  78.9619987  41.7075006 101.5365017  84.1429987  41.0375006 104.0445017
  85.0999987  41.0375006 104.0445017  83.9029987  41.9645006 104.0445017
  92.8109987  55.5885006 105.1325017  93.7679987  55.5885006 105.1325017
  92.5709987  56.5155006 105.1325017  78.4359987  39.5935006 116.8315017
  79.3929987  39.5935006 116.8315017  78.1959987  40.5205006 116.8315017
  80.4399987  38.9675006 118.4445017  81.3969987  38.9675006 118.4445017
  80.1999987  39.8945006 118.4445017  79.0529987  55.7175006 101.0675017
  80.0099987  55.7175006 101.0675017  78.8129987  56.6445006 101.0675017
  88.8429987  38.2725006 118.6065017  89.7999987  38.2725006 118.6065017
  88.6029987  39.1995006 118.6065017  92.0499987  54.3125006 117.2615017
  93.0069987  54.3125006 117.2615017  91.8099987  55.2395006 117.2615017
 106.4329987  48.1685006 107.2745017 107.3899987  48.1685006 107.2745017
 106.1929987  49.0955006 107.2745017 105.2809987  47.4755006 110.7445017
 106.2379987  47.4755006 110.7445017 105.0409987  48.4025006 110.7445017
  97.7129987  47.1125006 112.2825017  98.6699987  47.1125006 112.2825017
  97.4729987  48.0395006 112.2825017  98.6339987  51.5625006 110.8145017
  99.5909987  51.5625006 110.8145017  98.3939987  52.4895006 110.8145017
  95.2859987  45.1405006 106.2175017  96.2429987  45.1405006 106.2175017
  95.0459987  46.0675006 106.2175017  95.9689987  47.3495006 108.3945017
  96.9259987  47.3495006 108.3945017  95.7289987  48.2765006 108.3945017
 106.1819987  55.5155006 109.2315017 107.1389987  55.5155006 109.2315017
 105.9419987  56.4425006 109.2315017 103.7009987  49.8545006 111.1715017
 104.6579987  49.8545006 111.1715017 103.4609987  50.7815006 111.1715017
 106.2239987  44.0815006 111.4645017 107.1809987  44.0815006 111.4645017
 105.9839987  45.0085006 111.4645017 100.0449987  42.3905006 108.7265017
 101.0019987  42.3905006 108.7265017  99.8049987  43.3175006 108.7265017
 107.7139987  42.9795006 106.7035017 108.6709987  42.9795006 106.7035017
 107.4739987  43.9065006 106.7035017  96.6399987  44.8145006 109.4795017
  97.5969987  44.8145006 109.4795017  96.3999987  45.7415006 109.4795017
 101.7979987  46.3745006 108.7365017 102.7549987  46.3745006 108.7365017
 101.5579987  47.3015006 108.7365017  98.9039987  41.3035006 112.7795017
  99.8609987  41.3035006 112.7795017  98.6639987  42.2305006 112.7795017
 106.2379987  50.7975006 106.3015017 107.1949987  50.7975006 106.3015017
 105.9979987  51.7245006 106.3015017 101.4369987  48.9545006 113.0375017
 102.3939987  48.9545006 113.0375017 101.1969987  49.8815006 113.0375017
  98.4659987  43.1725006 110.7835017  99.4229987  43.1725006 110.7835017
  98.2259987  44.0995006 110.7835017  99.8709987  50.9435006 113.8475017
 100.8279987  50.9435006 113.8475017  99.6309987  51.8705006 113.8475017
  95.9489987  50.5925006 104.6325017  96.9059987  50.5925006 104.6325017
  95.7089987  51.5195006 104.6325017 102.8689987  38.6375006 110.2265017
 103.8259987  38.6375006 110.2265017 102.6289987  39.5645006 110.2265017
 107.5049987  53.8425006 107.5815017 108.4619987  53.8425006 107.5815017
 107.2649987  54.7695006 107.5815017 105.1299987  47.4075006 104.7305017
 106.0869987  47.4075006 104.7305017 104.8899987  48.3345006 104.7305017
 105.0769987  45.7945006 101.9235017 106.0339987  45.7945006 101.9235017
 104.8369987  46.7215006 101.9235017 100.1989987  48.2985006 107.5905017
 101.1559987  48.2985006 107.5905017  99.9589987  49.2255006 107.5905017
 101.5359987  51.7015006 110.2715017 102.4929987  51.7015006 110.2715017
 101.2959987  52.6285006 110.2715017 100.5479987  47.0495006 111.2385017
 101.5049987  47.0495006 111.2385017 100.3079987  47.9765006 111.2385017
 106.5349987  52.6345006 111.9905017 107.4919987  52.6345006 111.9905017
 106.2949987  53.5615006 111.9905017 101.4859987  51.4735006 115.9425017
 102.4429987  51.4735006 115.9425017 101.2459987  52.4005006 115.9425017
 107.5669987  46.6575006 103.4475017 108.5239987  46.6575006 103.4475017
 107.3269987  47.5845006 103.4475017  98.4199987  47.6405006 115.1195017
  99.3769987  47.6405006 115.1195017  98.1799987  48.5675006 115.1195017
 105.0899987  53.5495006 106.8095017 106.0469987  53.5495006 106.8095017
 104.8499987  54.4765006 106.8095017  99.7269987  53.5235006 116.6975017
 100.6839987  53.5235006 116.6975017  99.4869987  54.4505006 116.6975017
  99.2529987  47.3105006 105.1075017 100.2099987  47.3105006 105.1075017
  99.0129987  48.2375006 105.1075017  95.2739987  49.7515006 114.0705017
  96.2309987  49.7515006 114.0705017  95.0339987  50.6785006 114.0705017
  95.0329987  52.4915006 110.8745017  95.9899987  52.4915006 110.8745017
  94.7929987  53.4185006 110.8745017 104.2419987  52.7345006 115.4465017
 105.1989987  52.7345006 115.4465017 104.0019987  53.6615006 115.4465017
 104.6569987  56.4815006 105.2175017 105.6139987  56.4815006 105.2175017
 104.4169987  57.4085006 105.2175017  98.3419987  55.2555006 107.0345017
  99.2989987  55.2555006 107.0345017  98.1019987  56.1825006 107.0345017
 107.7819987  55.6535006 102.3535017 108.7389987  55.6535006 102.3535017
 107.5419987  56.5805006 102.3535017 107.2449987  55.4315006 104.8575017
 108.2019987  55.4315006 104.8575017 107.0049987  56.3585006 104.8575017
  97.5479987  51.0705006 115.0365017  98.5049987  51.0705006 115.0365017
  97.3079987  51.9975006 115.0365017 100.2189987  39.5315006 111.0035017
 101.1759987  39.5315006 111.0035017  99.9789987  40.4585006 111.0035017
 104.8999987  39.2075006 114.3775017 105.8569987  39.2075006 114.3775017
 104.6599987  40.1345006 114.3775017 104.5429987  41.7925006 101.6725017
 105.4999987  41.7925006 101.6725017 104.3029987  42.7195006 101.6725017
 100.3049987  44.4985006 112.2095017 101.2619987  44.4985006 112.2095017
 100.0649987  45.4255006 112.2095017 100.2869987  44.6485006 107.0795017
 101.2439987  44.6485006 107.0795017 100.0469987  45.5755006 107.0795017
 105.7569987  45.1135006 105.8475017 106.7139987  45.1135006 105.8475017
 105.5169987  46.0405006 105.8475017 104.8979987  45.3635006 117.3555017
 105.8549987  45.3635006 117.3555017 104.6579987  46.2905006 117.3555017
 106.7759987  44.5915006 108.7025017 107.7329987  44.5915006 108.7025017
 106.5359987  45.5185006 108.7025017  97.9659987  44.7855006 113.9425017
  98.9229987  44.7855006 113.9425017  97.7259987  45.7125006 113.9425017
 101.3359987  42.2545006 100.8495017 102.2929987  42.2545006 100.8495017
 101.0959987  43.1815006 100.8495017  94.6139987  41.9015006 107.8885017
  95.5709987  41.9015006 107.8885017  94.3739987  42.8285006 107.8885017
  95.8559987  42.6345006 103.2625017  96.8129987  42.6345006 103.2625017
  95.6159987  43.5615006 103.2625017 106.0439987  46.2125006 113.3175017
 107.0009987  46.2125006 113.3175017 105.8039987  47.1395006 113.3175017
 102.8359987  42.1035006 108.0935017 103.7929987  42.1035006 108.0935017
 102.5959987  43.0305006 108.0935017  97.6749987  43.7585006 106.9595017
  98.6319987  43.7585006 106.9595017  97.4349987  44.6855006 106.9595017
 101.3329987  43.6265006 104.7235017 102.2899987  43.6265006 104.7235017
 101.0929987  44.5535006 104.7235017 107.2389987  41.3605006 111.4135017
 108.1959987  41.3605006 111.4135017 106.9989987  42.2875006 111.4135017
  99.5579987  44.9975006 101.8225017 100.5149987  44.9975006 101.8225017
  99.3179987  45.9245006 101.8225017  98.1359987  49.5255006 117.2485017
  99.0929987  49.5255006 117.2485017  97.8959987  50.4525006 117.2485017
 104.0909987  44.9295006 109.9655017 105.0479987  44.9295006 109.9655017
 103.8509987  45.8565006 109.9655017  99.1579987  41.0955006 106.4275017
 100.1149987  41.0955006 106.4275017  98.9179987  42.0225006 106.4275017
 102.7599987  43.2765006 112.4145017 103.7169987  43.2765006 112.4145017
 102.5199987  44.2035006 112.4145017 103.3769987  49.4255006 104.1195017
 104.3339987  49.4255006 104.1195017 103.1369987  50.3525006 104.1195017
 107.1579987  42.3125006 102.3395017 108.1149987  42.3125006 102.3395017
 106.9179987  43.2395006 102.3395017 104.8409987  49.7225006 115.3485017
 105.7979987  49.7225006 115.3485017 104.6009987  50.6495006 115.3485017
   0.1239987  44.2865006 104.0375017   1.0809987  44.2865006 104.0375017
  -0.1160013  45.2135006 104.0375017  98.4579987  48.8695006 109.9095017
  99.4149987  48.8695006 109.9095017  98.2179987  49.7965006 109.9095017
 105.4449987  51.0015006 103.1195017 106.4019987  51.0015006 103.1195017
 105.2049987  51.9285006 103.1195017  95.4559987  47.2935006 115.1825017
  96.4129987  47.2935006 115.1825017  95.2159987  48.2205006 115.1825017
 102.4719987  46.8445006 117.3735017 103.4289987  46.8445006 117.3735017
 102.2319987  47.7715006 117.3735017 107.1539987  52.2185006 115.2835017
 108.1109987  52.2185006 115.2835017 106.9139987  53.1455006 115.2835017
 100.8429987  52.3345006 107.2895017 101.7999987  52.3345006 107.2895017
 100.6029987  53.2615006 107.2895017  96.6059987  47.1745006 101.8665017
  97.5629987  47.1745006 101.8665017  96.3659987  48.1015006 101.8665017
 102.2539987  50.0055006 106.8135017 103.2109987  50.0055006 106.8135017
 102.0139987  50.9325006 106.8135017 102.7059987  54.1765006 113.2145017
 103.6629987  54.1765006 113.2145017 102.4659987  55.1035006 113.2145017
 100.9499987  54.9785006 106.4615017 101.9069987  54.9785006 106.4615017
 100.7099987  55.9055006 106.4615017 106.2749987  50.1875006 112.8725017
 107.2319987  50.1875006 112.8725017 106.0349987  51.1145006 112.8725017
  97.1129987  42.0255006 114.7305017  98.0699987  42.0255006 114.7305017
  96.8729987  42.9525006 114.7305017  96.7279987  53.8275006 113.1625017
  97.6849987  53.8275006 113.1625017  96.4879987  54.7545006 113.1625017
  98.0119987  49.1175006 103.3635017  98.9689987  49.1175006 103.3635017
  97.7719987  50.0445006 103.3635017 105.8509987  41.7815006 113.6805017
 106.8079987  41.7815006 113.6805017 105.6109987  42.7085006 113.6805017
 106.3049987  41.6095006 104.7625017 107.2619987  41.6095006 104.7625017
 106.0649987  42.5365006 104.7625017 103.7839987  43.1395006 105.5985017
 104.7409987  43.1395006 105.5985017 103.5439987  44.0665006 105.5985017
 104.3359987  44.1025006 114.7885017 105.2929987  44.1025006 114.7885017
 104.0959987  45.0295006 114.7885017 104.7869987  40.2165006 106.5465017
 105.7439987  40.2165006 106.5465017 104.5469987  41.1435006 106.5465017
 100.3169987  41.2675006 103.1965017 101.2739987  41.2675006 103.1965017
 100.0769987  42.1945006 103.1965017  98.5919987  51.6855006 102.2595017
  99.5489987  51.6855006 102.2595017  98.3519987  52.6125006 102.2595017
  96.8959987  44.3535006 101.3815017  97.8529987  44.3535006 101.3815017
  96.6559987  45.2805006 101.3815017  97.7229987  39.1855006 110.0995017
  98.6799987  39.1855006 110.0995017  97.4829987  40.1125006 110.0995017
  96.6619987  53.1015006 106.2485017  97.6189987  53.1015006 106.2485017
  96.4219987  54.0285006 106.2485017  95.8949987  55.7525006 117.5485017
  96.8519987  55.7525006 117.5485017  95.6549987  56.6795006 117.5485017
 100.5559987  54.6735006 119.1585017 101.5129987  54.6735006 119.1585017
 100.3159987  55.6005006 119.1585017 107.1349987  53.0545006 117.8925017
 108.0919987  53.0545006 117.8925017 106.8949987  53.9815006 117.8925017
  95.8149987  49.5355006 118.5325017  96.7719987  49.5355006 118.5325017
  95.5749987  50.4625006 118.5325017 100.1379987  49.8445006 100.6035017
 101.0949987  49.8445006 100.6035017  99.8979987  50.7715006 100.6035017
 102.4999987  49.5145006 117.9355017 103.4569987  49.5145006 117.9355017
 102.2599987  50.4415006 117.9355017 105.2889987  51.0195006 100.3005017
 106.2459987  51.0195006 100.3005017 105.0489987  51.9465006 100.3005017
  96.7059987  46.7535006 117.9185017  97.6629987  46.7535006 117.9185017
  96.4659987  47.6805006 117.9185017 101.3289987  47.9395006 102.9545017
 102.2859987  47.9395006 102.9545017 101.0889987  48.8665006 102.9545017
 100.6179987  45.7105006 115.2845017 101.5749987  45.7105006 115.2845017
 100.3779987  46.6375006 115.2845017 102.4489987  46.1675006 101.1085017
 103.4059987  46.1675006 101.1085017 102.2089987  47.0945006 101.1085017
 105.6769987  48.2515006 118.6315017 106.6339987  48.2515006 118.6315017
 105.4369987  49.1785006 118.6315017 101.0099987  43.0845006 116.3535017
 101.9669987  43.0845006 116.3535017 100.7699987  44.0115006 116.3535017
 101.4089987  41.4585006 113.8835017 102.3659987  41.4585006 113.8835017
 101.1689987  42.3855006 113.8835017 102.9779987  46.9305006 114.1325017
 103.9349987  46.9305006 114.1325017 102.7379987  47.8575006 114.1325017
 107.3909987  44.7275006 119.2115017 108.3479987  44.7275006 119.2115017
 107.1509987  45.6545006 119.2115017  99.4639987  44.3265006 118.2715017
 100.4209987  44.3265006 118.2715017  99.2239987  45.2535006 118.2715017
 102.2169987  38.9075006 114.2895017 103.1739987  38.9075006 114.2895017
 101.9769987  39.8345006 114.2895017 103.4749987  43.2365006 117.8915017
 104.4319987  43.2365006 117.8915017 103.2349987  44.1635006 117.8915017
 106.1369987  42.3375006 116.9465017 107.0939987  42.3375006 116.9465017
 105.8969987  43.2645006 116.9465017 107.7729987  41.0355006 118.8865017
 108.7299987  41.0355006 118.8865017 107.5329987  41.9625006 118.8865017
  97.5659987  42.2525006 118.0005017  98.5229987  42.2525006 118.0005017
  97.3259987  43.1795006 118.0005017 102.4129987  38.2685006 116.9835017
 103.3699987  38.2685006 116.9835017 102.1729987  39.1955006 116.9835017
 102.7809987  39.8995006 119.0685017 103.7379987  39.8995006 119.0685017
 102.5409987  40.8265006 119.0685017  95.8599987  51.4205006 101.7215017
  96.8169987  51.4205006 101.7215017  95.6199987  52.3475006 101.7215017
  94.5669987  56.7865006 106.7105017  95.5239987  56.7865006 106.7105017
  94.3269987  57.7135006 106.7105017  95.3979987  54.9115006 108.5695017
  96.3549987  54.9115006 108.5695017  95.1579987  55.8385006 108.5695017
  95.4629987  47.9825006 111.0575017  96.4199987  47.9825006 111.0575017
  95.2229987  48.9095006 111.0575017  95.0739987  43.2815006 117.2035017
  96.0309987  43.2815006 117.2035017  94.8339987  44.2085006 117.2035017
  96.2799987  41.5705006 110.0635017  97.2369987  41.5705006 110.0635017
  96.0399987  42.4975006 110.0635017  94.5679987  44.5645006 111.1145017
  95.5249987  44.5645006 111.1145017  94.3279987  45.4915006 111.1145017
  94.9149987  40.8545006 105.1765017  95.8719987  40.8545006 105.1765017
  94.6749987  41.7815006 105.1765017  94.8849987  39.5105006 113.4905017
  95.8419987  39.5105006 113.4905017  94.6449987  40.4375006 113.4905017
  97.1059987  52.6955006 117.6475017  98.0629987  52.6955006 117.6475017
  96.8659987  53.6225006 117.6475017 100.0159987  53.6905006 113.9205017
 100.9729987  53.6905006 113.9205017  99.7759987  54.6175006 113.9205017
 104.3349987  55.1225006 116.8615017 105.2919987  55.1225006 116.8615017
 104.0949987  56.0495006 116.8615017 106.6889987  56.4245006 116.0875017
 107.6459987  56.4245006 116.0875017 106.4489987  57.3515006 116.0875017
  97.4409987  56.9385006 113.9235017  98.3979987  56.9385006 113.9235017
  97.2009987  57.8655006 113.9235017  99.9179987  56.5145006 112.9955017
 100.8749987  56.5145006 112.9955017  99.6779987  57.4415006 112.9955017
 104.5969987  56.4285006 112.1665017 105.5539987  56.4285006 112.1665017
 104.3569987  57.3555006 112.1665017 106.9369987  55.2945006 113.1775017
 107.8939987  55.2945006 113.1775017 106.6969987  56.2215006 113.1775017
  96.8559987  55.5515006 110.8615017  97.8129987  55.5515006 110.8615017
  96.6159987  56.4785006 110.8615017  98.9639987  54.2995006 109.5305017
  99.9209987  54.2995006 109.5305017  98.7239987  55.2265006 109.5305017
 101.5569987  54.7715006 110.3925017 102.5139987  54.7715006 110.3925017
 101.3169987  55.6985006 110.3925017 104.9759987  40.4195006 109.4565017
 105.9329987  40.4195006 109.4565017 104.7359987  41.3465006 109.4565017
  97.4099987  39.0665006 107.3685017  98.3669987  39.0665006 107.3685017
  97.1699987  39.9935006 107.3685017  96.2259987  38.8255006 103.1415017
  97.1829987  38.8255006 103.1415017  95.9859987  39.7525006 103.1415017
 101.8449987  38.8125006 107.3605017 102.8019987  38.8125006 107.3605017
 101.6049987  39.7395006 107.3605017 107.4469987  38.9315006 108.9475017
 108.4039987  38.9315006 108.9475017 107.2069987  39.8585006 108.9475017
  96.0669987  54.7685006 104.0955017  97.0239987  54.7685006 104.0955017
  95.8269987  55.6955006 104.0955017  98.0089987  40.6985006 101.6415017
  98.9659987  40.6985006 101.6415017  97.7689987  41.6255006 101.6415017
 103.0789987  41.3435006 103.7485017 104.0359987  41.3435006 103.7485017
 102.8389987  42.2705006 103.7485017  97.2919987  39.5935006 116.8315017
  98.2489987  39.5935006 116.8315017  97.0519987  40.5205006 116.8315017
  99.2959987  38.9675006 118.4435017 100.2529987  38.9675006 118.4435017
  99.0559987  39.8945006 118.4435017  -0.0900013  38.3315006 118.6345017
   0.8669987  38.3315006 118.6345017  -0.3300013  39.2585006 118.6345017
  12.2049987  67.0555006 107.2595017  13.1619987  67.0555006 107.2595017
  11.9649987  67.9825006 107.2595017  11.0759987  66.3095006 110.7385017
  12.0329987  66.3095006 110.7385017  10.8359987  67.2365006 110.7385017
   3.4639987  65.9605006 112.2735017   4.4209987  65.9605006 112.2735017
   3.2239987  66.8875006 112.2735017  14.7719987  69.2565006 109.0115017
  15.7289987  69.2565006 109.0115017  14.5319987  70.1835006 109.0115017
   4.3399987  70.4175006 110.8175017   5.2969987  70.4175006 110.8175017
   4.0999987  71.3445006 110.8175017   1.0679987  64.1035006 106.2265017
   2.0249987  64.1035006 106.2265017   0.8279987  65.0305006 106.2265017
   1.6879987  66.1855006 108.4005017   2.6449987  66.1855006 108.4005017
   1.4479987  67.1125006 108.4005017  11.8829987  74.4055006 109.2495017
  12.8399987  74.4055006 109.2495017  11.6429987  75.3325006 109.2495017
   9.4479987  68.7205006 111.1795017  10.4049987  68.7205006 111.1795017
   9.2079987  69.6475006 111.1795017  18.0679987  60.3565006 111.9475017
  19.0249987  60.3565006 111.9475017  17.8279987  61.2835006 111.9475017
  12.6529987  63.1875006 111.4985017  13.6099987  63.1875006 111.4985017
  12.4129987  64.1145006 111.4985017   5.7189987  61.2555006 108.7225017
   6.6759987  61.2555006 108.7225017   5.4789987  62.1825006 108.7225017
  13.4639987  61.3625006 107.1275017  14.4209987  61.3625006 107.1275017
  13.2239987  62.2895006 107.1275017   2.5429987  63.7145006 109.3795017
   3.4999987  63.7145006 109.3795017   2.3029987  64.6415006 109.3795017
   7.5219987  65.2175006 108.7775017   8.4789987  65.2175006 108.7775017
   7.2819987  66.1445006 108.7775017  18.5019987  61.7885006 114.2055017
  19.4589987  61.7885006 114.2055017  18.2619987  62.7155006 114.2055017
   4.6079987  60.1535006 112.7875017   5.5649987  60.1535006 112.7875017
   4.3679987  61.0805006 112.7875017  11.9329987  69.6565006 106.3345017
  12.8899987  69.6565006 106.3345017  11.6929987  70.5835006 106.3345017
   7.1519987  67.8085006 113.0405017   8.1089987  67.8085006 113.0405017
   6.9119987  68.7355006 113.0405017  15.2589987  60.6875006 109.1015017
  16.2159987  60.6875006 109.1015017  15.0189987  61.6145006 109.1015017
   4.1959987  62.0055006 110.7985017   5.1529987  62.0055006 110.7985017
   3.9559987  62.9325006 110.7985017   5.5919987  69.7975006 113.8415017
   6.5489987  69.7975006 113.8415017   5.3519987  70.7245006 113.8415017
   1.6789987  69.4335006 104.6485017   2.6359987  69.4335006 104.6485017
   1.4389987  70.3605006 104.6485017  15.2939987  71.0905006 111.3835017
  16.2509987  71.0905006 111.3835017  15.0539987  72.0175006 111.3835017
  15.6109987  59.3825006 112.7835017  16.5679987  59.3825006 112.7835017
  15.3709987  60.3095006 112.7835017   8.5789987  57.4725006 110.1965017
   9.5359987  57.4725006 110.1965017   8.3389987  58.3995006 110.1965017
  13.5469987  72.8735006 107.9905017  14.5039987  72.8735006 107.9905017
  13.3069987  73.8005006 107.9905017  14.7619987  70.8025006 106.4815017
  15.7189987  70.8025006 106.4815017  14.5219987  71.7295006 106.4815017
  16.3639987  69.4025006 115.0025017  17.3209987  69.4025006 115.0025017
  16.1239987  70.3295006 115.0025017  10.8749987  66.2785006 104.7425017
  11.8319987  66.2785006 104.7425017  10.6349987  67.2055006 104.7425017
  18.2589987  65.6975006 113.0425017  19.2159987  65.6975006 113.0425017
  18.0189987  66.6245006 113.0425017  14.3099987  66.4915006 105.6685017
  15.2669987  66.4915006 105.6685017  14.0699987  67.4185006 105.6685017
  14.2349987  64.6635006 114.7805017  15.1919987  64.6635006 114.7805017
  13.9949987  65.5905006 114.7805017   5.9529987  67.1775006 107.5895017
   6.9099987  67.1775006 107.5895017   5.7129987  68.1045006 107.5895017
   7.2599987  70.5615006 110.2685017   8.2169987  70.5615006 110.2685017
   7.0199987  71.4885006 110.2685017   6.2789987  65.9145006 111.2405017
   7.2359987  65.9145006 111.2405017   6.0389987  66.8415006 111.2405017
  12.6459987  71.4705006 111.9435017  13.6029987  71.4705006 111.9435017
  12.4059987  72.3975006 111.9435017   7.2049987  70.3285006 115.9435017
   8.1619987  70.3285006 115.9435017   6.9649987  71.2555006 115.9435017
  13.1709987  65.6835006 103.3445017  14.1279987  65.6835006 103.3445017
  12.9309987  66.6105006 103.3445017   4.1249987  66.4985006 115.1345017
   5.0819987  66.4985006 115.1345017   3.8849987  67.4255006 115.1345017
  10.8959987  72.4235006 106.8035017  11.8529987  72.4235006 106.8035017
  10.6559987  73.3505006 106.8035017   5.4409987  72.3775006 116.6995017
   6.3979987  72.3775006 116.6995017   5.2009987  73.3045006 116.6995017
   4.9209987  66.2045006 105.1905017   5.8779987  66.2045006 105.1905017
   4.6809987  67.1315006 105.1905017   1.1249987  68.5855006 114.0215017
   2.0819987  68.5855006 114.0215017   0.8849987  69.5125006 114.0215017
   1.0119987  71.4815006 110.5985017   1.9689987  71.4815006 110.5985017
   0.7719987  72.4085006 110.5985017  18.9779987  72.0435006 116.5595017
  19.9349987  72.0435006 116.5595017  18.7379987  72.9705006 116.5595017
   9.9659987  71.5835006 115.4435017  10.9229987  71.5835006 115.4435017
   9.7259987  72.5105006 115.4435017  10.3699987  75.3445006 105.2255017
  11.3269987  75.3445006 105.2255017  10.1299987  76.2715006 105.2255017
   4.0219987  74.2055006 107.0315017   4.9789987  74.2055006 107.0315017
   3.7819987  75.1325006 107.0315017  13.3899987  74.4995006 102.2165017
  14.3469987  74.4995006 102.2165017  13.1499987  75.4265006 102.2165017
  13.1289987  74.4665006 104.9775017  14.0859987  74.4665006 104.9775017
  12.8889987  75.3935006 104.9775017  16.1299987  63.5215006 117.0425017
  17.0869987  63.5215006 117.0425017  15.8899987  64.4485006 117.0425017
   3.2619987  69.9575006 115.0515017   4.2189987  69.9575006 115.0515017
   3.0219987  70.8845006 115.0515017   5.9259987  58.3835006 110.9995017
   6.8829987  58.3835006 110.9995017   5.6859987  59.3105006 110.9995017
  10.5979987  58.0195006 114.3855017  11.5549987  58.0195006 114.3855017
  10.3579987  58.9465006 114.3855017  13.9259987  61.9155006 115.2885017
  14.8829987  61.9155006 115.2885017  13.6859987  62.8425006 115.2885017
   5.9559987  63.3625006 112.1845017   6.9129987  63.3625006 112.1845017
   5.7159987  64.2895006 112.1845017   5.9799987  63.5315006 107.0755017
   6.9369987  63.5315006 107.0755017   5.7399987  64.4585006 107.0755017
  11.5039987  63.9705006 105.8445017  12.4609987  63.9705006 105.8445017
  11.2639987  64.8975006 105.8445017  10.5979987  64.1935006 117.3245017
  11.5549987  64.1935006 117.3245017  10.3579987  65.1205006 117.3245017
  12.5709987  63.4795006 108.6965017  13.5279987  63.4795006 108.6965017
  12.3309987  64.4065006 108.6965017   3.7039987  63.6345006 113.9545017
   4.6609987  63.6345006 113.9545017   3.4639987  64.5615006 113.9545017
   0.4279987  60.0595006 108.2365017   1.3849987  60.0595006 108.2365017
   0.1879987  60.9865006 108.2365017   1.8449987  61.5165006 103.4155017
   2.8019987  61.5165006 103.4155017   1.6049987  62.4435006 103.4155017
  11.7899987  65.0755006 113.3095017  12.7469987  65.0755006 113.3095017
  11.5499987  66.0025006 113.3095017   8.5649987  61.0325006 108.1185017
   9.5219987  61.0325006 108.1185017   8.3249987  61.9595006 108.1185017
   3.3909987  62.5745006 106.9605017   4.3479987  62.5745006 106.9605017
   3.1509987  63.5015006 106.9605017   7.0179987  62.6545006 104.6155017
   7.9749987  62.6545006 104.6155017   6.7779987  63.5815006 104.6155017
  12.9869987  60.2625006 111.3595017  13.9439987  60.2625006 111.3595017
  12.7469987  61.1895006 111.3595017   5.7139987  63.8235006 102.1975017
   6.6709987  63.8235006 102.1975017   5.4739987  64.7505006 102.1975017
  16.2079987  75.8595006 117.6625017  17.1649987  75.8595006 117.6625017
  15.9679987  76.7865006 117.6625017   3.8569987  68.3615006 117.2615017
   4.8139987  68.3615006 117.2615017   3.6169987  69.2885006 117.2615017
   9.8619987  63.8065006 109.9995017  10.8189987  63.8065006 109.9995017
   9.6219987  64.7335006 109.9995017   4.8559987  59.9435006 106.4375017
   5.8129987  59.9435006 106.4375017   4.6159987  60.8705006 106.4375017
   8.4229987  62.7095006 112.3475017   9.3799987  62.7095006 112.3475017
   8.1829987  63.6365006 112.3475017   9.0829987  68.3495006 104.1185017
  10.0399987  68.3495006 104.1185017   8.8429987  69.2765006 104.1185017
  16.2409987  67.5415006 112.9275017  17.1979987  67.5415006 112.9275017
  16.0009987  68.4685006 112.9275017  12.9329987  61.1755006 102.2785017
  13.8899987  61.1755006 102.2785017  12.6929987  62.1025006 102.2785017
  10.5999987  68.6055006 115.3715017  11.5569987  68.6055006 115.3715017
  10.3599987  69.5325006 115.3715017  13.6709987  63.0755006 103.9795017
  14.6279987  63.0755006 103.9795017  13.4309987  64.0025006 103.9795017
   4.1849987  67.7325006 109.9115017   5.1419987  67.7325006 109.9115017
   3.9449987  68.6595006 109.9115017  11.2089987  69.8295006 103.1735017
  12.1659987  69.8295006 103.1735017  10.9689987  70.7565006 103.1735017
   1.1629987  66.1505006 115.1925017   2.1199987  66.1505006 115.1925017
   0.9229987  67.0775006 115.1925017   8.1889987  65.7105006 117.3855017
   9.1459987  65.7105006 117.3855017   7.9489987  66.6375006 117.3855017
  12.8729987  71.0255006 115.3195017  13.8299987  71.0255006 115.3195017
  12.6329987  71.9525006 115.3195017  18.5229987  69.0905006 116.5125017
  19.4799987  69.0905006 116.5125017  18.2829987  70.0175006 116.5125017
  16.8349987  72.0695006 104.0885017  17.7919987  72.0695006 104.0885017
  16.5949987  72.9965006 104.0885017  14.0349987  66.8695006 111.1925017
  14.9919987  66.8695006 111.1925017  13.7949987  67.7965006 111.1925017
   6.5679987  71.1845006 107.2975017   7.5249987  71.1845006 107.2975017
   6.3279987  72.1115006 107.2975017   7.9859987  68.8565006 106.8345017
   8.9429987  68.8565006 106.8345017   7.7459987  69.7835006 106.8345017
   8.4319987  73.0365006 113.2155017   9.3889987  73.0365006 113.2155017
   8.1919987  73.9635006 113.2155017   6.6729987  73.8575006 106.3785017
   7.6299987  73.8575006 106.3785017   6.4329987  74.7845006 106.3785017
  11.9749987  69.0665006 112.8475017  12.9319987  69.0665006 112.8475017
  11.7349987  69.9935006 112.8475017  14.2399987  70.1185006 101.9915017
  15.1969987  70.1185006 101.9915017  13.9999987  71.0455006 101.9915017
  14.7509987  73.6095006 115.3535017  15.7079987  73.6095006 115.3535017
  14.5109987  74.5365006 115.3535017   2.8029987  60.8895006 114.7405017
   3.7599987  60.8895006 114.7405017   2.5629987  61.8165006 114.7405017
  15.0649987  68.7665006 104.2305017  16.0219987  68.7665006 104.2305017
  14.8249987  69.6935006 104.2305017   2.4719987  72.6875006 113.1385017
   3.4289987  72.6875006 113.1385017   2.2319987  73.6145006 113.1385017
   7.2019987  70.7535006 102.8815017   8.1589987  70.7535006 102.8815017
   6.9619987  71.6805006 102.8815017   3.7079987  67.9365006 103.4015017
   4.6649987  67.9365006 103.4015017   3.4679987  68.8635006 103.4015017
  11.8259987  60.6865006 113.8395017  12.7829987  60.6865006 113.8395017
  11.5859987  61.6135006 113.8395017  12.2619987  60.3075006 104.7965017
  13.2189987  60.3075006 104.7965017  12.0219987  61.2345006 104.7965017
  10.0129987  72.4035006 103.6075017  10.9699987  72.4035006 103.6075017
   9.7729987  73.3305006 103.6075017   9.5019987  62.0155006 105.5885017
  10.4589987  62.0155006 105.5885017   9.2619987  62.9425006 105.5885017
  10.0849987  63.0085006 114.7915017  11.0419987  63.0085006 114.7915017
   9.8449987  63.9355006 114.7915017  10.3909987  59.0555006 106.4755017
  11.3479987  59.0555006 106.4755017  10.1509987  59.9825006 106.4755017
   7.3799987  73.4635006 103.6335017   8.3369987  73.4635006 103.6335017
   7.1399987  74.3905006 103.6335017   6.0439987  60.1375006 103.2295017
   7.0009987  60.1375006 103.2295017   5.8039987  61.0645006 103.2295017
  16.2819987  60.8775006 115.6255017  17.2389987  60.8775006 115.6255017
  16.0419987  61.8045006 115.6255017  14.8789987  64.6605006 109.6525017
  15.8359987  64.6605006 109.6525017  14.6389987  65.5875006 109.6525017
   4.3339987  70.5625006 102.3055017   5.2909987  70.5625006 102.3055017
   4.0939987  71.4895006 102.3055017   2.5629987  63.2905006 101.5115017
   3.5199987  63.2905006 101.5115017   2.3229987  64.2175006 101.5115017
  15.9429987  73.9085006 111.3175017  16.8999987  73.9085006 111.3175017
  15.7029987  74.8355006 111.3175017   3.4609987  58.0395006 110.0845017
   4.4179987  58.0395006 110.0845017   3.2209987  58.9665006 110.0845017
   2.3849987  71.9945006 106.2745017   3.3419987  71.9945006 106.2745017
   2.1449987  72.9215006 106.2745017   1.7139987  74.5545006 117.4795017
   2.6709987  74.5545006 117.4795017   1.4739987  75.4815006 117.4795017
   6.2709987  73.5165006 119.1615017   7.2279987  73.5165006 119.1615017
   6.0309987  74.4435006 119.1615017  12.7809987  71.9045006 117.8835017
  13.7379987  71.9045006 117.8835017  12.5409987  72.8315006 117.8835017
   1.5089987  68.3945006 118.5345017   2.4659987  68.3945006 118.5345017
   1.2689987  69.3215006 118.5345017   8.2309987  68.3715006 117.9295017
   9.1879987  68.3715006 117.9295017   7.9909987  69.2985006 117.9295017
  13.9419987  68.2575006 115.3735017  14.8989987  68.2575006 115.3735017
  13.7019987  69.1845006 115.3735017   2.3629987  65.5895006 117.9125017
   3.3199987  65.5895006 117.9125017   2.1229987  66.5165006 117.9125017
   7.1279987  66.7055006 103.0155017   8.0849987  66.7055006 103.0155017
   6.8879987  67.6325006 103.0155017   6.3379987  64.5645006 115.2845017
   7.2949987  64.5645006 115.2845017   6.0979987  65.4915006 115.2845017
  11.4079987  67.1245006 118.6055017  12.3649987  67.1245006 118.6055017
  11.1679987  68.0515006 118.6055017   6.7199987  61.9405006 116.3565017
   7.6769987  61.9405006 116.3565017   6.4799987  62.8675006 116.3565017
   7.0999987  60.3745006 113.9035017   8.0569987  60.3745006 113.9035017
   6.8599987  61.3015006 113.9035017   8.6899987  65.7925006 114.1385017
   9.6469987  65.7925006 114.1385017   8.4499987  66.7195006 114.1385017
  13.0809987  63.5665006 119.1085017  14.0379987  63.5665006 119.1085017
  12.8409987  64.4935006 119.1085017  14.4169987  66.3695006 117.2605017
  15.3739987  66.3695006 117.2605017  14.1769987  67.2965006 117.2605017
   5.1799987  63.1905006 118.2635017   6.1369987  63.1905006 118.2635017
   4.9399987  64.1175006 118.2635017   7.8949987  57.7515006 114.3265017
   8.8519987  57.7515006 114.3265017   7.6549987  58.6785006 114.3265017
   9.1949987  62.0875006 117.8915017  10.1519987  62.0875006 117.8915017
   8.9549987  63.0145006 117.8915017  11.9239987  61.2415006 116.9955017
  12.8809987  61.2415006 116.9955017  11.6839987  62.1685006 116.9955017
  13.5099987  59.8505006 118.9095017  14.4669987  59.8505006 118.9095017
  13.2699987  60.7775006 118.9095017   3.3269987  61.1145006 118.0095017
   4.2839987  61.1145006 118.0095017   3.0869987  62.0415006 118.0095017
   8.1349987  57.1275006 116.9855017   9.0919987  57.1275006 116.9855017
   7.8949987  58.0545006 116.9855017   8.5019987  58.7585006 119.0745017
   9.4589987  58.7585006 119.0745017   8.2619987  59.6855006 119.0745017
   8.0069987  75.6515006 102.2115017   8.9639987  75.6515006 102.2115017
   7.7669987  76.5785006 102.2115017 108.1329987  75.7115006 106.7575017
 109.0899987  75.7115006 106.7575017 107.8929987  76.6385006 106.7575017
   1.4759987  73.9345006 108.6735017   2.4329987  73.9345006 108.6735017
   1.2359987  74.8615006 108.6735017  18.6619987  74.5585006 111.5175017
  19.6189987  74.5585006 111.5175017  18.4219987  75.4855006 111.5175017
  18.2199987  74.1525006 114.4755017  19.1769987  74.1525006 114.4755017
  17.9799987  75.0795006 114.4755017  16.7469987  69.8455006 119.1945017
  17.7039987  69.8455006 119.1945017  16.5069987  70.7725006 119.1945017
  17.9899987  68.1885006 104.5685017  18.9469987  68.1885006 104.5685017
  17.7499987  69.1155006 104.5685017  18.3709987  66.2405006 106.4105017
  19.3279987  66.2405006 106.4105017  18.1309987  67.1675006 106.4105017
  18.1199987  68.9875006 111.4235017  19.0769987  68.9875006 111.4235017
  17.8799987  69.9145006 111.4235017  16.6589987  71.8725006 113.7105017
  17.6159987  71.8725006 113.7105017  16.4189987  72.7995006 113.7105017
  16.1799987  64.7455006 106.9835017  17.1369987  64.7455006 106.9835017
  15.9399987  65.6725006 106.9835017   1.1829987  66.8265006 111.0655017
   2.1399987  66.8265006 111.0655017   0.9429987  67.7535006 111.0655017
  17.0229987  66.7395006 116.6945017  17.9799987  66.7395006 116.6945017
  16.7829987  67.6665006 116.6945017  18.5359987  64.6175006 117.3445017
  19.4929987  64.6175006 117.3445017  18.2959987  65.5445006 117.3445017
  16.2479987  60.8355006 100.5225017  17.2049987  60.8355006 100.5225017
  16.0079987  61.7625006 100.5225017  15.8529987  62.3225006 105.4755017
  16.8099987  62.3225006 105.4755017  15.6129987  63.2495006 105.4755017
  16.4929987  62.8905006 110.9005017  17.4499987  62.8905006 110.9005017
  16.2529987  63.8175006 110.9005017  16.5509987  63.6115006 113.6955017
  17.5079987  63.6115006 113.6955017  16.3109987  64.5385006 113.6955017
   0.8809987  62.0985006 117.1245017   1.8379987  62.0985006 117.1245017
   0.6409987  63.0255006 117.1245017  18.8129987  57.6515006 119.0425017
  19.7699987  57.6515006 119.0425017  18.5729987  58.5785006 119.0425017
  16.4999987  59.6135006 105.5005017  17.4569987  59.6135006 105.5005017
  16.2599987  60.5405006 105.5005017   2.0869987  60.4555006 110.0575017
   3.0439987  60.4555006 110.0575017   1.8469987  61.3825006 110.0575017
   0.8899987  63.3885006 111.2685017   1.8469987  63.3885006 111.2685017
   0.6499987  64.3155006 111.2685017  18.3459987  59.7575006 117.3955017
  19.3029987  59.7575006 117.3955017  18.1059987  60.6845006 117.3955017
   0.8859987  59.6355006 105.2155017   1.8429987  59.6355006 105.2155017
   0.6459987  60.5625006 105.2155017  15.3899987  74.6405006 107.1265017
  16.3469987  74.6405006 107.1265017  15.1499987  75.5675006 107.1265017
 108.3279987  58.3465006 113.5155017 109.2849987  58.3465006 113.5155017
 108.0879987  59.2735006 113.5155017   2.8149987  71.5755006 117.6645017
   3.7719987  71.5755006 117.6645017   2.5749987  72.5025006 117.6645017
   5.7349987  72.5475006 113.9235017   6.6919987  72.5475006 113.9235017
   5.4949987  73.4745006 113.9235017  10.0619987  73.9585006 116.8335017
  11.0189987  73.9585006 116.8335017   9.8219987  74.8855006 116.8335017
  12.3539987  75.2255006 116.1375017  13.3109987  75.2255006 116.1375017
  12.1139987  76.1525006 116.1375017  17.3559987  57.8545006 115.2315017
  18.3129987  57.8545006 115.2315017  17.1159987  58.7815006 115.2315017
   3.1499987  75.8035006 113.9535017   4.1069987  75.8035006 113.9535017
   2.9099987  76.7305006 113.9535017   5.6469987  75.3855006 112.9965017
   6.6039987  75.3855006 112.9965017   5.4069987  76.3125006 112.9965017
  10.3349987  75.2835006 112.1615017  11.2919987  75.2835006 112.1615017
  10.0949987  76.2105006 112.1615017  12.6419987  74.1155006 113.1605017
  13.5989987  74.1155006 113.1605017  12.4019987  75.0425006 113.1605017
  15.2239987  75.6825006 113.4185017  16.1809987  75.6825006 113.4185017
  14.9839987  76.6095006 113.4185017   2.6209987  74.4555006 110.9045017
   3.5779987  74.4555006 110.9045017   2.3809987  75.3825006 110.9045017
   4.6809987  73.1515006 109.5145017   5.6379987  73.1515006 109.5145017
   4.4409987  74.0785006 109.5145017   7.2689987  73.6305006 110.3855017
   8.2259987  73.6305006 110.3855017   7.0289987  74.5575006 110.3855017
  10.7589987  59.2825006 109.4185017  11.7159987  59.2825006 109.4185017
  10.5189987  60.2095006 109.4185017  15.8879987  57.3455006 109.6125017
  16.8449987  57.3455006 109.6125017  15.6479987  58.2725006 109.6125017
  17.5749987  58.5675006 107.9105017  18.5319987  58.5675006 107.9105017
  17.3349987  59.4945006 107.9105017   3.1229987  57.9095006 107.3495017
   4.0799987  57.9095006 107.3495017   2.8829987  58.8365006 107.3495017
   1.9519987  57.6855006 103.1735017   2.9089987  57.6855006 103.1735017
   1.7119987  58.6125006 103.1735017   7.6189987  57.8215006 107.1525017
   8.5759987  57.8215006 107.1525017   7.3789987  58.7485006 107.1525017
  13.3059987  57.8525006 108.7855017  14.2629987  57.8525006 108.7855017
  13.0659987  58.7795006 108.7855017   1.8969987  73.6395006 104.1125017
   2.8539987  73.6395006 104.1125017   1.6569987  74.5665006 104.1125017
   3.7449987  59.5335006 101.6445017   4.7019987  59.5335006 101.6445017
   3.5049987  60.4605006 101.6445017   8.7199987  59.8725006 104.0495017
   9.6769987  59.8725006 104.0495017   8.4799987  60.7995006 104.0495017
  10.6549987  74.9105006 102.4085017  11.6119987  74.9105006 102.4085017
  10.4149987  75.8375006 102.4085017  17.3879987  74.4505006 105.1455017
  18.3449987  74.4505006 105.1455017  17.1479987  75.3775006 105.1455017
   2.9949987  58.4515006 116.8265017   3.9519987  58.4515006 116.8265017
   2.7549987  59.3785006 116.8265017   5.0099987  57.8325006 118.4435017
   5.9669987  57.8325006 118.4435017   4.7699987  58.7595006 118.4435017
  13.4199987  57.1295006 118.6055017  14.3769987  57.1295006 118.6055017
  13.1799987  58.0565006 118.6055017  16.5759987  73.1325006 117.2955017
  17.5329987  73.1325006 117.2955017  16.3359987  74.0595006 117.2955017
  29.8789987  66.3235006 110.7335017  30.8359987  66.3235006 110.7335017
  29.6389987  67.2505006 110.7335017  22.2839987  65.9705006 112.2905017
  23.2409987  65.9705006 112.2905017  22.0439987  66.8975006 112.2905017
  23.2109987  70.4195006 110.8135017  24.1679987  70.4195006 110.8135017
  22.9709987  71.3465006 110.8135017  19.8669987  64.0055006 106.2185017
  20.8239987  64.0055006 106.2185017  19.6269987  64.9325006 106.2185017
  20.5419987  66.2035006 108.3835017  21.4989987  66.2035006 108.3835017
  20.3019987  67.1305006 108.3835017  30.7389987  74.3865006 109.2395017
  31.6959987  74.3865006 109.2395017  30.4989987  75.3135006 109.2395017
  28.3069987  68.7185006 111.1715017  29.2639987  68.7185006 111.1715017
  28.0669987  69.6455006 111.1715017  24.5949987  61.2605006 108.7365017
  25.5519987  61.2605006 108.7365017  24.3549987  62.1875006 108.7365017
  21.2139987  63.6765006 109.4815017  22.1709987  63.6765006 109.4815017
  20.9739987  64.6035006 109.4815017  26.3879987  65.2175006 108.7525017
  27.3449987  65.2175006 108.7525017  26.1479987  66.1445006 108.7525017
  23.4779987  60.1625006 112.7825017  24.4349987  60.1625006 112.7825017
  23.2379987  61.0895006 112.7825017  26.0109987  67.8065006 113.0295017
  26.9679987  67.8065006 113.0295017  25.7709987  68.7335006 113.0295017
  23.0419987  62.0315006 110.7865017  23.9989987  62.0315006 110.7865017
  22.8019987  62.9585006 110.7865017  24.4479987  69.7985006 113.8475017
  25.4049987  69.7985006 113.8475017  24.2079987  70.7255006 113.8475017
  20.5509987  69.4495006 104.6215017  21.5079987  69.4495006 104.6215017
  20.3109987  70.3765006 104.6215017  34.1579987  71.0965006 111.3955017
  35.1149987  71.0965006 111.3955017  33.9179987  72.0235006 111.3955017
  27.4499987  57.4855006 110.2305017  28.4069987  57.4855006 110.2305017
  27.2099987  58.4125006 110.2305017  32.4309987  72.8805006 108.0115017
  33.3879987  72.8805006 108.0115017  32.1909987  73.8075006 108.0115017
  33.6479987  70.8175006 106.4835017  34.6049987  70.8175006 106.4835017
  33.4079987  71.7445006 106.4835017  35.2109987  69.3795006 114.9995017
  36.1679987  69.3795006 114.9995017  34.9709987  70.3065006 114.9995017
  32.9959987  64.6565006 114.8605017  33.9529987  64.6565006 114.8605017
  32.7559987  65.5835006 114.8605017  24.7829987  67.1555006 107.5975017
  25.7399987  67.1555006 107.5975017  24.5429987  68.0825006 107.5975017
  26.1079987  70.5545006 110.2755017  27.0649987  70.5545006 110.2755017
  25.8679987  71.4815006 110.2755017  25.1289987  65.9055006 111.2355017
  26.0859987  65.9055006 111.2355017  24.8889987  66.8325006 111.2355017
  31.4959987  71.4735006 111.9455017  32.4529987  71.4735006 111.9455017
  31.2559987  72.4005006 111.9455017  26.0619987  70.3285006 115.9435017
  27.0189987  70.3285006 115.9435017  25.8219987  71.2555006 115.9435017
  22.9959987  66.4965006 115.1195017  23.9529987  66.4965006 115.1195017
  22.7559987  67.4235006 115.1195017  29.7529987  72.4535006 106.8245017
  30.7099987  72.4535006 106.8245017  29.5129987  73.3805006 106.8245017
  24.3039987  72.3795006 116.6935017  25.2609987  72.3795006 116.6935017
  24.0639987  73.3065006 116.6935017  23.7609987  66.2315006 105.2275017
  24.7179987  66.2315006 105.2275017  23.5209987  67.1585006 105.2275017
  19.8489987  68.6075006 114.0715017  20.8059987  68.6075006 114.0715017
  19.6089987  69.5345006 114.0715017  19.6149987  71.3435006 110.8805017
  20.5719987  71.3435006 110.8805017  19.3749987  72.2705006 110.8805017
  37.8619987  72.0495006 116.6195017  38.8189987  72.0495006 116.6195017
  37.6219987  72.9765006 116.6195017  28.8019987  71.5915006 115.4255017
  29.7589987  71.5915006 115.4255017  28.5619987  72.5185006 115.4255017
  29.2309987  75.3345006 105.2195017  30.1879987  75.3345006 105.2195017
  28.9909987  76.2615006 105.2195017  22.8709987  74.2185006 107.0545017
  23.8279987  74.2185006 107.0545017  22.6309987  75.1455006 107.0545017
  31.9839987  74.5135006 105.0175017  32.9409987  74.5135006 105.0175017
  31.7439987  75.4405006 105.0175017  34.9399987  63.5185006 117.0845017
  35.8969987  63.5185006 117.0845017  34.6999987  64.4455006 117.0845017
  22.1229987  69.9285006 115.0345017  23.0799987  69.9285006 115.0345017
  21.8829987  70.8555006 115.0345017  24.7889987  58.3845006 111.0125017
  25.7459987  58.3845006 111.0125017  24.5489987  59.3115006 111.0125017
  29.4469987  58.0565006 114.3595017  30.4039987  58.0565006 114.3595017
  29.2069987  58.9835006 114.3595017  32.7239987  61.8585006 115.2605017
  33.6809987  61.8585006 115.2605017  32.4839987  62.7855006 115.2605017
  24.8869987  63.3565006 112.2105017  25.8439987  63.3565006 112.2105017
  24.6469987  64.2835006 112.2105017  24.8509987  63.5105006 107.0905017
  25.8079987  63.5105006 107.0905017  24.6109987  64.4375006 107.0905017
  29.4489987  64.2005006 117.3305017  30.4059987  64.2005006 117.3305017
  29.2089987  65.1275006 117.3305017  22.5429987  63.6415006 113.9425017
  23.4999987  63.6415006 113.9425017  22.3029987  64.5685006 113.9425017
  19.1869987  60.7555006 107.8815017  20.1439987  60.7555006 107.8815017
  18.9469987  61.6825006 107.8815017  20.4539987  61.5185006 103.3085017
  21.4109987  61.5185006 103.3085017  20.2139987  62.4455006 103.3085017
  30.5739987  65.0635006 113.2635017  31.5309987  65.0635006 113.2635017
  30.3339987  65.9905006 113.2635017  27.3989987  61.0305006 108.1185017
  28.3559987  61.0305006 108.1185017  27.1589987  61.9575006 108.1185017
  22.2259987  62.5895006 106.9935017  23.1829987  62.5895006 106.9935017
  21.9859987  63.5165006 106.9935017  25.8749987  62.7095006 104.6995017
  26.8319987  62.7095006 104.6995017  25.6349987  63.6365006 104.6995017
  31.8339987  60.1555006 111.3815017  32.7909987  60.1555006 111.3815017
  31.5939987  61.0825006 111.3815017  24.5139987  63.9345006 102.1525017
  25.4709987  63.9345006 102.1525017  24.2739987  64.8615006 102.1525017
  35.0429987  75.9155006 117.6765017  35.9999987  75.9155006 117.6765017
  34.8029987  76.8425006 117.6765017  22.7089987  68.3785006 117.2495017
  23.6659987  68.3785006 117.2495017  22.4689987  69.3055006 117.2495017
  23.7349987  59.9235006 106.4865017  24.6919987  59.9235006 106.4865017
  23.4949987  60.8505006 106.4865017  27.3359987  62.1175006 112.4385017
  28.2929987  62.1175006 112.4385017  27.0959987  63.0445006 112.4385017
  27.8769987  68.3785006 104.0745017  28.8339987  68.3785006 104.0745017
  27.6369987  69.3055006 104.0745017  35.0549987  67.5325006 112.9035017
  36.0119987  67.5325006 112.9035017  34.8149987  68.4595006 112.9035017
  29.4239987  68.5985006 115.3555017  30.3809987  68.5985006 115.3555017
  29.1839987  69.5255006 115.3555017  23.0329987  67.7245006 109.9085017
  23.9899987  67.7245006 109.9085017  22.7929987  68.6515006 109.9085017
  20.0299987  66.1505006 115.1845017  20.9869987  66.1505006 115.1845017
  19.7899987  67.0775006 115.1845017  27.0449987  65.7025006 117.3755017
  28.0019987  65.7025006 117.3755017  26.8049987  66.6295006 117.3755017
  31.7069987  71.0365006 115.2925017  32.6639987  71.0365006 115.2925017
  31.4669987  71.9635006 115.2925017  35.6939987  72.0705006 104.0965017
  36.6509987  72.0705006 104.0965017  35.4539987  72.9975006 104.0965017
  32.8689987  66.8605006 111.1705017  33.8259987  66.8605006 111.1705017
  32.6289987  67.7875006 111.1705017  25.3789987  71.2035006 107.3235017
  26.3359987  71.2035006 107.3235017  25.1389987  72.1305006 107.3235017
  21.1409987  66.0235006 101.8785017  22.0979987  66.0235006 101.8785017
  20.9009987  66.9505006 101.8785017  26.8079987  68.8535006 106.8415017
  27.7649987  68.8535006 106.8415017  26.5679987  69.7805006 106.8415017
  27.2919987  73.0345006 113.2125017  28.2489987  73.0345006 113.2125017
  27.0519987  73.9615006 113.2125017  25.5139987  73.8615006 106.3755017
  26.4709987  73.8615006 106.3755017  25.2739987  74.7885006 106.3755017
  30.8309987  69.0545006 112.8495017  31.7879987  69.0545006 112.8495017
  30.5909987  69.9815006 112.8495017  33.0919987  70.1365006 101.9845017
  34.0489987  70.1365006 101.9845017  32.8519987  71.0635006 101.9845017
  33.5909987  73.6445006 115.3545017  34.5479987  73.6445006 115.3545017
  33.3509987  74.5715006 115.3545017  37.6019987  74.4905006 102.1835017
  38.5589987  74.4905006 102.1835017  37.3619987  75.4175006 102.1835017
  21.6819987  60.8865006 114.7315017  22.6389987  60.8865006 114.7315017
  21.4419987  61.8135006 114.7315017  21.3019987  72.6805006 113.1645017
  22.2589987  72.6805006 113.1645017  21.0619987  73.6075006 113.1645017
  22.5479987  67.9615006 103.3455017  23.5049987  67.9615006 103.3455017
  22.3079987  68.8885006 103.3455017  30.3739987  60.6645006 113.7015017
  31.3309987  60.6645006 113.7015017  30.1339987  61.5915006 113.7015017
  28.8639987  72.4675006 103.6035017  29.8209987  72.4675006 103.6035017
  28.6239987  73.3945006 103.6035017  28.3769987  62.0355006 105.5975017
  29.3339987  62.0355006 105.5975017  28.1369987  62.9625006 105.5975017
  28.9329987  63.0015006 114.7795017  29.8899987  63.0015006 114.7795017
  28.6929987  63.9285006 114.7795017  26.2109987  73.4325006 103.6155017
  27.1679987  73.4325006 103.6155017  25.9709987  74.3595006 103.6155017
  21.4769987  63.2535006 101.3735017  22.4339987  63.2535006 101.3735017
  21.2369987  64.1805006 101.3735017  34.8039987  73.9015006 111.3145017
  35.7609987  73.9015006 111.3145017  34.5639987  74.8285006 111.3145017
  22.2989987  58.0415006 110.1005017  23.2559987  58.0415006 110.1005017
  22.0589987  58.9685006 110.1005017  21.2339987  71.9515006 106.2405017
  22.1909987  71.9515006 106.2405017  20.9939987  72.8785006 106.2405017
  20.4719987  74.6135006 117.5425017  21.4289987  74.6135006 117.5425017
  20.2319987  75.5405006 117.5425017  25.1199987  73.5065006 119.1705017
  26.0769987  73.5065006 119.1705017  24.8799987  74.4335006 119.1705017
  31.6499987  71.9125006 117.9015017  32.6069987  71.9125006 117.9015017
  31.4099987  72.8395006 117.9015017  20.3769987  68.3955006 118.5375017
  21.3339987  68.3955006 118.5375017  20.1369987  69.3225006 118.5375017
  27.0869987  68.3705006 117.9305017  28.0439987  68.3705006 117.9305017
  26.8469987  69.2975006 117.9305017  32.7829987  68.2315006 115.3325017
  33.7399987  68.2315006 115.3325017  32.5429987  69.1585006 115.3325017
  21.2749987  65.6105006 117.9185017  22.2319987  65.6105006 117.9185017
  21.0349987  66.5375006 117.9185017  25.1889987  64.5685006 115.2935017
  26.1459987  64.5685006 115.2935017  24.9489987  65.4955006 115.2935017
  26.9819987  65.0475006 101.1815017  27.9389987  65.0475006 101.1815017
  26.7419987  65.9745006 101.1815017  30.2509987  67.1125006 118.6015017
  31.2079987  67.1125006 118.6015017  30.0109987  68.0395006 118.6015017
  25.5889987  61.9415006 116.3515017  26.5459987  61.9415006 116.3515017
  25.3489987  62.8685006 116.3515017  25.9869987  60.3175006 113.8835017
  26.9439987  60.3175006 113.8835017  25.7469987  61.2445006 113.8835017
  27.5419987  65.7835006 114.1275017  28.4989987  65.7835006 114.1275017
  27.3019987  66.7105006 114.1275017  31.9369987  63.5645006 119.1135017
  32.8939987  63.5645006 119.1135017  31.6969987  64.4915006 119.1135017
  33.2739987  66.3705006 117.2585017  34.2309987  66.3705006 117.2585017
  33.0339987  67.2975006 117.2585017  24.0459987  63.1825006 118.2665017
  25.0029987  63.1825006 118.2665017  23.8059987  64.1095006 118.2665017
  26.7809987  57.7585006 114.2925017  27.7379987  57.7585006 114.2925017
  26.5409987  58.6855006 114.2925017  28.0519987  62.0865006 117.8925017
  29.0089987  62.0865006 117.8925017  27.8119987  63.0135006 117.8925017
  30.7539987  61.2235006 116.9735017  31.7109987  61.2235006 116.9735017
  30.5139987  62.1505006 116.9735017  32.3729987  59.8505006 118.9125017
  33.3299987  59.8505006 118.9125017  32.1329987  60.7775006 118.9125017
  22.1419987  61.1085006 118.0005017  23.0989987  61.1085006 118.0005017
  21.9019987  62.0355006 118.0005017  26.9919987  57.1245006 116.9835017
  27.9489987  57.1245006 116.9835017  26.7519987  58.0515006 116.9835017
  27.3589987  58.7585006 119.0725017  28.3159987  58.7585006 119.0725017
  27.1189987  59.6855006 119.0725017  26.8889987  75.6355006 102.1965017
  27.8459987  75.6355006 102.1965017  26.6489987  76.5625006 102.1965017
  20.3779987  70.2295006 101.7905017  21.3349987  70.2295006 101.7905017
  20.1379987  71.1565006 101.7905017  19.1499987  75.6455006 106.7265017
  20.1069987  75.6455006 106.7265017  18.9099987  76.5725006 106.7265017
  19.9849987  73.7615006 108.5655017  20.9419987  73.7615006 108.5655017
  19.7449987  74.6885006 108.5655017  37.4809987  74.6055006 111.5125017
  38.4379987  74.6055006 111.5125017  37.2409987  75.5325006 111.5125017
  37.0819987  74.1585006 114.4745017  38.0389987  74.1585006 114.4745017
  36.8419987  75.0855006 114.4745017  35.5439987  69.8845006 119.1315017
  36.5009987  69.8845006 119.1315017  35.3039987  70.8115006 119.1315017
  35.5089987  71.9145006 113.7035017  36.4659987  71.9145006 113.7035017
  35.2689987  72.8415006 113.7035017  20.0379987  66.8405006 111.0575017
  20.9949987  66.8405006 111.0575017  19.7979987  67.7675006 111.0575017
  35.8829987  66.7375006 116.7435017  36.8399987  66.7375006 116.7435017
  35.6429987  67.6645006 116.7435017  37.3669987  64.6075006 117.4075017
  38.3239987  64.6075006 117.4075017  37.1269987  65.5345006 117.4075017
  19.6509987  62.1355006 117.2055017  20.6079987  62.1355006 117.2055017
  19.4109987  63.0625006 117.2055017  37.6479987  57.6425006 119.0505017
  38.6049987  57.6425006 119.0505017  37.4079987  58.5695006 119.0505017
  20.8559987  60.4275006 110.0635017  21.8129987  60.4275006 110.0635017
  20.6159987  61.3545006 110.0635017  19.1449987  63.4205006 111.1155017
  20.1019987  63.4205006 111.1155017  18.9049987  64.3475006 111.1155017
  37.1809987  59.7345006 117.3885017  38.1379987  59.7345006 117.3885017
  36.9409987  60.6615006 117.3885017  19.5069987  59.7065006 105.1865017
  20.4639987  59.7065006 105.1865017  19.2669987  60.6335006 105.1865017
  34.2399987  74.6415006 107.1375017  35.1969987  74.6415006 107.1375017
  33.9999987  75.5685006 107.1375017  19.4609987  58.3665006 113.4905017
  20.4179987  58.3665006 113.4905017  19.2209987  59.2935006 113.4905017
  21.6869987  71.5595006 117.6605017  22.6439987  71.5595006 117.6605017
  21.4469987  72.4865006 117.6605017  24.5929987  72.5455006 113.9215017
  25.5499987  72.5455006 113.9215017  24.3529987  73.4725006 113.9215017
  28.9119987  73.9715006 116.8375017  29.8689987  73.9715006 116.8375017
  28.6719987  74.8985006 116.8375017  31.2109987  75.2415006 116.1275017
  32.1679987  75.2415006 116.1275017  30.9709987  76.1685006 116.1275017
  36.1699987  57.8345006 115.2505017  37.1269987  57.8345006 115.2505017
  35.9299987  58.7615006 115.2505017  22.0169987  75.7935006 113.9305017
  22.9739987  75.7935006 113.9305017  21.7769987  76.7205006 113.9305017
  24.4889987  75.3745006 112.9945017  25.4459987  75.3745006 112.9945017
  24.2489987  76.3015006 112.9945017  29.1909987  75.2835006 112.1615017
  30.1479987  75.2835006 112.1615017  28.9509987  76.2105006 112.1615017
  31.4929987  74.1205006 113.1705017  32.4499987  74.1205006 113.1705017
  31.2529987  75.0475006 113.1705017  34.0719987  75.6865006 113.4185017
  35.0289987  75.6865006 113.4185017  33.8319987  76.6135006 113.4185017
  21.4539987  74.4405006 110.8605017  22.4109987  74.4405006 110.8605017
  21.2139987  75.3675006 110.8605017  23.5479987  73.1535006 109.5145017
  24.5049987  73.1535006 109.5145017  23.3079987  74.0805006 109.5145017
  26.1249987  73.6345006 110.3825017  27.0819987  73.6345006 110.3825017
  25.8849987  74.5615006 110.3825017  29.5859987  59.2805006 109.4995017
  30.5429987  59.2805006 109.4995017  29.3459987  60.2075006 109.4995017
  21.9619987  57.9135006 107.3865017  22.9189987  57.9135006 107.3865017
  21.7219987  58.8405006 107.3865017  20.8119987  57.6635006 103.1535017
  21.7689987  57.6635006 103.1535017  20.5719987  58.5905006 103.1535017
  26.4789987  57.8325006 107.1535017  27.4359987  57.8325006 107.1535017
  26.2389987  58.7595006 107.1535017  32.1329987  57.8115006 108.8155017
  33.0899987  57.8115006 108.8155017  31.8929987  58.7385006 108.8155017
  20.6599987  73.6255006 104.0835017  21.6169987  73.6255006 104.0835017
  20.4199987  74.5525006 104.0835017  27.6829987  59.8825006 104.0295017
  28.6399987  59.8825006 104.0295017  27.4429987  60.8095006 104.0295017
  36.2319987  74.4605006 105.1545017  37.1889987  74.4605006 105.1545017
  35.9919987  75.3875006 105.1545017  21.8679987  58.4495006 116.8315017
  22.8249987  58.4495006 116.8315017  21.6279987  59.3765006 116.8315017
  23.8719987  57.8235006 118.4445017  24.8289987  57.8235006 118.4445017
  23.6319987  58.7505006 118.4445017  32.2789987  57.1315006 118.6005017
  33.2359987  57.1315006 118.6005017  32.0389987  58.0585006 118.6005017
  35.4809987  73.1675006 117.2625017  36.4379987  73.1675006 117.2625017
  35.2409987  74.0945006 117.2625017  49.9009987  67.0445006 107.2745017
  50.8579987  67.0445006 107.2745017  49.6609987  67.9715006 107.2745017
  48.7929987  66.3175006 110.7335017  49.7499987  66.3175006 110.7335017
  48.5529987  67.2445006 110.7335017  52.4969987  69.2415006 109.0415017
  53.4539987  69.2415006 109.0415017  52.2569987  70.1685006 109.0415017
  42.0969987  70.4385006 110.7705017  43.0539987  70.4385006 110.7705017
  41.8569987  71.3655006 110.7705017  49.5889987  74.3975006 109.2425017
  50.5459987  74.3975006 109.2425017  49.3489987  75.3245006 109.2425017
  47.1619987  68.7295006 111.1655017  48.1189987  68.7295006 111.1655017
  46.9219987  69.6565006 111.1655017  55.7799987  60.3565006 111.9465017
  56.7369987  60.3565006 111.9465017  55.5399987  61.2835006 111.9465017
  50.3199987  63.1795006 111.4915017  51.2769987  63.1795006 111.4915017
  50.0799987  64.1065006 111.4915017  43.4819987  61.2155006 108.7475017
  44.4389987  61.2155006 108.7475017  43.2419987  62.1425006 108.7475017
  51.1729987  61.3545006 107.1065017  52.1299987  61.3545006 107.1065017
  50.9329987  62.2815006 107.1065017  45.2409987  65.2305006 108.7845017
  46.1979987  65.2305006 108.7845017  45.0009987  66.1575006 108.7845017
  56.2129987  61.7875006 114.2075017  57.1699987  61.7875006 114.2075017
  55.9729987  62.7145006 114.2075017  49.6469987  69.6645006 106.3325017
  50.6039987  69.6645006 106.3325017  49.4069987  70.5915006 106.3325017
  44.8709987  67.8095006 113.0435017  45.8279987  67.8095006 113.0435017
  44.6309987  68.7365006 113.0435017  52.9599987  60.6955006 109.0895017
  53.9169987  60.6955006 109.0895017  52.7199987  61.6225006 109.0895017
  41.9169987  61.9725006 110.8425017  42.8739987  61.9725006 110.8425017
  41.6769987  62.8995006 110.8425017  43.3099987  69.8015006 113.8555017
  44.2669987  69.8015006 113.8555017  43.0699987  70.7285006 113.8555017
  52.9829987  71.0765006 111.4205017  53.9399987  71.0765006 111.4205017
  52.7429987  72.0035006 111.4205017  53.3209987  59.3795006 112.7815017
  54.2779987  59.3795006 112.7815017  53.0809987  60.3065006 112.7815017
  46.3049987  57.4825006 110.2605017  47.2619987  57.4825006 110.2605017
  46.0649987  58.4095006 110.2605017  51.2749987  72.8745006 107.9955017
  52.2319987  72.8745006 107.9955017  51.0349987  73.8015006 107.9955017
  54.1289987  69.3675006 114.9845017  55.0859987  69.3675006 114.9845017
  53.8889987  70.2945006 114.9845017  48.5989987  66.2945006 104.7635017
  49.5559987  66.2945006 104.7635017  48.3589987  67.2215006 104.7635017
  55.9489987  65.6755006 113.0315017  56.9059987  65.6755006 113.0315017
  55.7089987  66.6025006 113.0315017  52.0289987  66.5315006 105.6865017
  52.9859987  66.5315006 105.6865017  51.7889987  67.4585006 105.6865017
  51.9459987  64.6655006 114.7875017  52.9029987  64.6655006 114.7875017
  51.7059987  65.5925006 114.7875017  44.9889987  70.5735006 110.2615017
  45.9459987  70.5735006 110.2615017  44.7489987  71.5005006 110.2615017
  43.9759987  65.9165006 111.2355017  44.9329987  65.9165006 111.2355017
  43.7359987  66.8435006 111.2355017  50.3459987  71.4685006 111.9405017
  51.3029987  71.4685006 111.9405017  50.1059987  72.3955006 111.9405017
  44.9239987  70.3365006 115.9495017  45.8809987  70.3365006 115.9495017
  44.6839987  71.2635006 115.9495017  41.8589987  66.4975006 115.1375017
  42.8159987  66.4975006 115.1375017  41.6189987  67.4245006 115.1375017
  48.6359987  72.4195006 106.7805017  49.5929987  72.4195006 106.7805017
  48.3959987  73.3465006 106.7805017  43.1629987  72.3795006 116.6965017
  44.1199987  72.3795006 116.6965017  42.9229987  73.3065006 116.6965017
  54.6019987  57.4215006 103.2245017  55.5589987  57.4215006 103.2245017
  54.3619987  58.3485006 103.2245017  56.7029987  72.0445006 116.5865017
  57.6599987  72.0445006 116.5865017  56.4629987  72.9715006 116.5865017
  47.6579987  71.5925006 115.4255017  48.6149987  71.5925006 115.4255017
  47.4179987  72.5195006 115.4255017  48.0809987  75.3485006 105.2305017
  49.0379987  75.3485006 105.2305017  47.8409987  76.2755006 105.2305017
  41.7189987  74.2235006 107.0525017  42.6759987  74.2235006 107.0525017
  41.4789987  75.1505006 107.0525017  50.8389987  74.4875006 104.9995017
  51.7959987  74.4875006 104.9995017  50.5989987  75.4145006 104.9995017
  53.8419987  63.5215006 117.0415017  54.7989987  63.5215006 117.0415017
  53.6019987  64.4485006 117.0415017  40.9919987  69.9295006 115.0505017
  41.9489987  69.9295006 115.0505017  40.7519987  70.8565006 115.0505017
  43.6709987  58.3875006 110.9935017  44.6279987  58.3875006 110.9935017
  43.4309987  59.3145006 110.9935017  48.2989987  58.0785006 114.3675017
  49.2559987  58.0785006 114.3675017  48.0589987  59.0055006 114.3675017
  51.5969987  61.8955006 115.2545017  52.5539987  61.8955006 115.2545017
  51.3569987  62.8225006 115.2545017  43.7939987  63.3745006 112.2365017
  44.7509987  63.3745006 112.2365017  43.5539987  64.3015006 112.2365017
  43.7239987  63.5115006 107.0835017  44.6809987  63.5115006 107.0835017
  43.4839987  64.4385006 107.0835017  48.3109987  64.1935006 117.3225017
  49.2679987  64.1935006 117.3225017  48.0709987  65.1205006 117.3225017
  50.2529987  63.4665006 108.6905017  51.2099987  63.4665006 108.6905017
  50.0129987  64.3935006 108.6905017  49.4809987  65.0715006 113.2985017
  50.4379987  65.0715006 113.2985017  49.2409987  65.9985006 113.2985017
  46.2739987  60.9945006 108.1165017  47.2309987  60.9945006 108.1165017
  46.0339987  61.9215006 108.1165017  41.1089987  62.5995006 106.9185017
  42.0659987  62.5995006 106.9185017  40.8689987  63.5265006 106.9185017
  50.6799987  60.2645006 111.3585017  51.6369987  60.2645006 111.3585017
  50.4399987  61.1915006 111.3585017  53.8949987  75.9195006 117.6825017
  54.8519987  75.9195006 117.6825017  53.6549987  76.8465006 117.6825017
  41.5809987  68.3785006 117.2495017  42.5379987  68.3785006 117.2495017
  41.3409987  69.3055006 117.2495017  47.5709987  63.7975006 110.0195017
  48.5279987  63.7975006 110.0195017  47.3309987  64.7245006 110.0195017
  42.5869987  59.9675006 106.3525017  43.5439987  59.9675006 106.3525017
  42.3469987  60.8945006 106.3525017  46.2039987  62.1225006 112.4315017
  47.1609987  62.1225006 112.4315017  45.9639987  63.0495006 112.4315017
  53.9579987  67.5485006 112.9075017  54.9149987  67.5485006 112.9075017
  53.7179987  68.4755006 112.9075017  48.2789987  68.5975006 115.3545017
  49.2359987  68.5975006 115.3545017  48.0389987  69.5245006 115.3545017
  41.8989987  67.7045006 109.9215017  42.8559987  67.7045006 109.9215017
  41.6589987  68.6315006 109.9215017  45.9039987  65.6975006 117.3775017
  46.8609987  65.6975006 117.3775017  45.6639987  66.6245006 117.3775017
  50.5639987  71.0255006 115.2995017  51.5209987  71.0255006 115.2995017
  50.3239987  71.9525006 115.2995017  56.2349987  69.0855006 116.5235017
  57.1919987  69.0855006 116.5235017  55.9949987  70.0125006 116.5235017
  51.7289987  66.8555006 111.2125017  52.6859987  66.8555006 111.2125017
  51.4889987  67.7825006 111.2125017  44.2329987  71.1765006 107.2935017
  45.1899987  71.1765006 107.2935017  43.9929987  72.1035006 107.2935017
  46.1499987  73.0275006 113.2105017  47.1069987  73.0275006 113.2105017
  45.9099987  73.9545006 113.2105017  44.3659987  73.8605006 106.3985017
  45.3229987  73.8605006 106.3985017  44.1259987  74.7875006 106.3985017
  49.6889987  69.0675006 112.8585017  50.6459987  69.0675006 112.8585017
  49.4489987  69.9945006 112.8585017  51.9099987  70.1615006 102.0445017
  52.8669987  70.1615006 102.0445017  51.6699987  71.0885006 102.0445017
  52.4779987  73.6315006 115.3355017  53.4349987  73.6315006 115.3355017
  52.2379987  74.5585006 115.3355017  52.7689987  68.7295006 104.1755017
  53.7259987  68.7295006 104.1755017  52.5289987  69.6565006 104.1755017
  40.2109987  72.7215006 113.1595017  41.1679987  72.7215006 113.1595017
  39.9709987  73.6485006 113.1595017  49.2649987  60.6515006 113.6705017
  50.2219987  60.6515006 113.6705017  49.0249987  61.5785006 113.6705017
  50.0359987  60.2545006 104.7385017  50.9929987  60.2545006 104.7385017
  49.7959987  61.1815006 104.7385017  47.7379987  72.4045006 103.6115017
  48.6949987  72.4045006 103.6115017  47.4979987  73.3315006 103.6115017
  47.7949987  62.9995006 114.7755017  48.7519987  62.9995006 114.7755017
  47.5549987  63.9265006 114.7755017  48.1229987  59.0615006 106.4965017
  49.0799987  59.0615006 106.4965017  47.8829987  59.9885006 106.4965017
  45.0909987  73.4495006 103.6115017  46.0479987  73.4495006 103.6115017
  44.8509987  74.3765006 103.6115017  53.9879987  60.8755006 115.6295017
  54.9449987  60.8755006 115.6295017  53.7479987  61.8025006 115.6295017
  52.5889987  64.6745006 109.7025017  53.5459987  64.6745006 109.7025017
  52.3489987  65.6015006 109.7025017  40.3239987  63.2425006 101.4535017
  41.2809987  63.2425006 101.4535017  40.0839987  64.1695006 101.4535017
  53.6469987  73.9015006 111.3235017  54.6039987  73.9015006 111.3235017
  53.4069987  74.8285006 111.3235017  40.1129987  72.0145006 106.2895017
  41.0699987  72.0145006 106.2895017  39.8729987  72.9415006 106.2895017
  39.3209987  74.5965006 117.5425017  40.2779987  74.5965006 117.5425017
  39.0809987  75.5235006 117.5425017  43.9919987  73.5255006 119.1725017
  44.9489987  73.5255006 119.1725017  43.7519987  74.4525006 119.1725017
  50.5149987  71.9075006 117.8945017  51.4719987  71.9075006 117.8945017
  50.2749987  72.8345006 117.8945017  39.2459987  68.3885006 118.5305017
  40.2029987  68.3885006 118.5305017  39.0059987  69.3155006 118.5305017
  45.9429987  68.3695006 117.9295017  46.8999987  68.3695006 117.9295017
  45.7029987  69.2965006 117.9295017  51.6519987  68.2425006 115.3025017
  52.6089987  68.2425006 115.3025017  51.4119987  69.1695006 115.3025017
  40.1659987  65.6295006 117.9305017  41.1229987  65.6295006 117.9305017
  39.9259987  66.5565006 117.9305017  44.0579987  64.5685006 115.2765017
  45.0149987  64.5685006 115.2765017  43.8179987  65.4955006 115.2765017
  49.1059987  67.1105006 118.5995017  50.0629987  67.1105006 118.5995017
  48.8659987  68.0375006 118.5995017  44.4369987  61.9405006 116.3545017
  45.3939987  61.9405006 116.3545017  44.1969987  62.8675006 116.3545017
  44.8299987  60.3065006 113.8615017  45.7869987  60.3065006 113.8615017
  44.5899987  61.2335006 113.8615017  46.3819987  65.7815006 114.1275017
  47.3389987  65.7815006 114.1275017  46.1419987  66.7085006 114.1275017
  50.7919987  63.5655006 119.1085017  51.7489987  63.5655006 119.1085017
  50.5519987  64.4925006 119.1085017  52.1189987  66.3465006 117.2435017
  53.0759987  66.3465006 117.2435017  51.8789987  67.2735006 117.2435017
  42.9009987  63.1825006 118.2815017  43.8579987  63.1825006 118.2815017
  42.6609987  64.1095006 118.2815017  45.6379987  57.7575006 114.2995017
  46.5949987  57.7575006 114.2995017  45.3979987  58.6845006 114.2995017
  46.9069987  62.0865006 117.8895017  47.8639987  62.0865006 117.8895017
  46.6669987  63.0135006 117.8895017  49.6259987  61.2215006 116.9675017
  50.5829987  61.2215006 116.9675017  49.3859987  62.1485006 116.9675017
  51.2219987  59.8515006 118.9075017  52.1789987  59.8515006 118.9075017
  50.9819987  60.7785006 118.9075017  41.0219987  61.0975006 117.9955017
  41.9789987  61.0975006 117.9955017  40.7819987  62.0245006 117.9955017
  45.8399987  57.1205006 116.9825017  46.7969987  57.1205006 116.9825017
  45.5999987  58.0475006 116.9825017  46.2149987  58.7585006 119.0715017
  47.1719987  58.7585006 119.0715017  45.9749987  59.6855006 119.0715017
  45.7239987  75.6595006 102.2185017  46.6809987  75.6595006 102.2185017
  45.4839987  76.5865006 102.2185017  37.9989987  75.6485006 106.7315017
  38.9559987  75.6485006 106.7315017  37.7589987  76.5755006 106.7315017
  38.8329987  73.7645006 108.5565017  39.7899987  73.7645006 108.5565017
  38.5929987  74.6915006 108.5565017  54.3949987  69.8815006 119.1235017
  55.3519987  69.8815006 119.1235017  54.1549987  70.8085006 119.1235017
  56.0999987  66.2525006 106.4285017  57.0569987  66.2525006 106.4285017
  55.8599987  67.1795006 106.4285017  54.3129987  71.7935006 113.7535017
  55.2699987  71.7935006 113.7535017  54.0729987  72.7205006 113.7535017
  53.9139987  64.7425006 107.0195017  54.8709987  64.7425006 107.0195017
  53.6739987  65.6695006 107.0195017  54.7369987  66.7275006 116.6695017
  55.6939987  66.7275006 116.6695017  54.4969987  67.6545006 116.6695017
  56.2479987  64.6145006 117.3495017  57.2049987  64.6145006 117.3495017
  56.0079987  65.5415006 117.3495017  53.6089987  62.3245006 105.5855017
  54.5659987  62.3245006 105.5855017  53.3689987  63.2515006 105.5855017
  54.1929987  62.8835006 110.9075017  55.1499987  62.8835006 110.9075017
  53.9529987  63.8105006 110.9075017  54.2589987  63.6055006 113.6825017
  55.2159987  63.6055006 113.6825017  54.0189987  64.5325006 113.6825017
  38.4999987  62.1505006 117.2335017  39.4569987  62.1505006 117.2335017
  38.2599987  63.0775006 117.2335017  56.5249987  57.6525006 119.0425017
  57.4819987  57.6525006 119.0425017  56.2849987  58.5795006 119.0425017
  54.2289987  59.6085006 105.5095017  55.1859987  59.6085006 105.5095017
  53.9889987  60.5355006 105.5095017  56.0549987  59.7585006 117.3945017
  57.0119987  59.7585006 117.3945017  55.8149987  60.6855006 117.3945017
  56.0769987  59.6245006 102.1095017  57.0339987  59.6245006 102.1095017
  55.8369987  60.5515006 102.1095017  53.1129987  74.6665006 107.1095017
  54.0699987  74.6665006 107.1095017  52.8729987  75.5935006 107.1095017
  40.5419987  71.5615006 117.6595017  41.4989987  71.5615006 117.6595017
  40.3019987  72.4885006 117.6595017  43.4679987  72.5545006 113.9375017
  44.4249987  72.5545006 113.9375017  43.2279987  73.4815006 113.9375017
  47.7669987  73.9735006 116.8365017  48.7239987  73.9735006 116.8365017
  47.5269987  74.9005006 116.8365017  50.0679987  75.2415006 116.1245017
  51.0249987  75.2415006 116.1245017  49.8279987  76.1685006 116.1245017
  55.0679987  57.8545006 115.2305017  56.0249987  57.8545006 115.2305017
  54.8279987  58.7815006 115.2305017  40.8839987  75.8115006 113.9445017
  41.8409987  75.8115006 113.9445017  40.6439987  76.7385006 113.9445017
  43.3559987  75.4115006 113.0215017  44.3129987  75.4115006 113.0215017
  43.1159987  76.3385006 113.0215017  48.0489987  75.2805006 112.1605017
  49.0059987  75.2805006 112.1605017  47.8089987  76.2075006 112.1605017
  50.3599987  74.1175006 113.1605017  51.3169987  74.1175006 113.1605017
  50.1199987  75.0445006 113.1605017  52.9469987  75.6825006 113.4145017
  53.9039987  75.6825006 113.4145017  52.7069987  76.6095006 113.4145017
  40.3299987  74.4775006 110.8675017  41.2869987  74.4775006 110.8675017
  40.0899987  75.4045006 110.8675017  42.4009987  73.1715006 109.5125017
  43.3579987  73.1715006 109.5125017  42.1609987  74.0985006 109.5125017
  44.9739987  73.6215006 110.3725017  45.9309987  73.6215006 110.3725017
  44.7339987  74.5485006 110.3725017  48.4729987  59.2955006 109.5275017
  49.4299987  59.2955006 109.5275017  48.2329987  60.2225006 109.5275017
  53.5999987  57.3475006 109.6125017  54.5569987  57.3475006 109.6125017
  53.3599987  58.2745006 109.6125017  55.2789987  58.5535006 107.9095017
  56.2359987  58.5535006 107.9095017  55.0389987  59.4805006 107.9095017
  40.8819987  57.9285006 107.2785017  41.8389987  57.9285006 107.2785017
  40.6419987  58.8555006 107.2785017  45.3139987  57.8335006 107.1735017
  46.2709987  57.8335006 107.1735017  45.0739987  58.7605006 107.1735017
  50.9929987  57.8605006 108.7945017  51.9499987  57.8605006 108.7945017
  50.7529987  58.7875006 108.7945017  52.2899987  57.9085006 104.4645017
  53.2469987  57.9085006 104.4645017  52.0499987  58.8355006 104.4645017
  39.5139987  73.6585006 104.0965017  40.4709987  73.6585006 104.0965017
  39.2739987  74.5855006 104.0965017  48.3909987  74.8835006 102.4345017
  49.3479987  74.8835006 102.4345017  48.1509987  75.8105006 102.4345017
  40.7279987  58.4475006 116.8335017  41.6849987  58.4475006 116.8335017
  40.4879987  59.3745006 116.8335017  42.7339987  57.8195006 118.4575017
  43.6909987  57.8195006 118.4575017  42.4939987  58.7465006 118.4575017
  51.1309987  57.1285006 118.6065017  52.0879987  57.1285006 118.6065017
  50.8909987  58.0555006 118.6065017  54.3279987  73.1705006 117.2695017
  55.2849987  73.1705006 117.2695017  54.0879987  74.0975006 117.2695017
  68.7799987  67.0605006 107.2635017  69.7369987  67.0605006 107.2635017
  68.5399987  67.9875006 107.2635017  67.6509987  66.3245006 110.6935017
  68.6079987  66.3245006 110.6935017  67.4109987  67.2515006 110.6935017
  60.1419987  65.8075006 112.2635017  61.0989987  65.8075006 112.2635017
  59.9019987  66.7345006 112.2635017  71.2919987  69.2655006 109.0085017
  72.2489987  69.2655006 109.0085017  71.0519987  70.1925006 109.0085017
  57.5989987  64.0245006 106.2145017  58.5559987  64.0245006 106.2145017
  57.3589987  64.9515006 106.2145017  58.2369987  66.1775006 108.3405017
  59.1939987  66.1775006 108.3405017  57.9969987  67.1045006 108.3405017
  74.6329987  60.3555006 111.9505017  75.5899987  60.3555006 111.9505017
  74.3929987  61.2825006 111.9505017  69.1819987  63.1695006 111.4945017
  70.1389987  63.1695006 111.4945017  68.9419987  64.0965006 111.4945017
  62.2909987  61.2455006 108.7485017  63.2479987  61.2455006 108.7485017
  62.0509987  62.1725006 108.7485017  70.0299987  61.3575006 107.0855017
  70.9869987  61.3575006 107.0855017  69.7899987  62.2845006 107.0855017
  58.9209987  63.6565006 109.4835017  59.8779987  63.6565006 109.4835017
  58.6809987  64.5835006 109.4835017  64.0949987  65.2085006 108.7925017
  65.0519987  65.2085006 108.7925017  63.8549987  66.1355006 108.7925017
  75.0689987  61.7895006 114.2065017  76.0259987  61.7895006 114.2065017
  74.8289987  62.7165006 114.2065017  61.1899987  60.1605006 112.7825017
  62.1469987  60.1605006 112.7825017  60.9499987  61.0875006 112.7825017
  71.8129987  60.7025006 109.0905017  72.7699987  60.7025006 109.0905017
  71.5729987  61.6295006 109.0905017  60.7509987  62.0165006 110.7985017
  61.7079987  62.0165006 110.7985017  60.5109987  62.9435006 110.7985017
  71.8819987  71.0995006 111.3575017  72.8389987  71.0995006 111.3575017
  71.6419987  72.0265006 111.3575017  72.1789987  59.3855006 112.7955017
  73.1359987  59.3855006 112.7955017  71.9389987  60.3125006 112.7955017
  65.1639987  57.4865006 110.2605017  66.1209987  57.4865006 110.2605017
  64.9239987  58.4135006 110.2605017  70.1199987  72.8865006 108.0375017
  71.0769987  72.8865006 108.0375017  69.8799987  73.8135006 108.0375017
  71.3059987  70.8045006 106.5095017  72.2629987  70.8045006 106.5095017
  71.0659987  71.7315006 106.5095017  72.9799987  69.3685006 115.0055017
  73.9369987  69.3685006 115.0055017  72.7399987  70.2955006 115.0055017
  74.8099987  65.7055006 113.0435017  75.7669987  65.7055006 113.0435017
  74.5699987  66.6325006 113.0435017  70.8849987  66.5205006 105.6845017
  71.8419987  66.5205006 105.6845017  70.6449987  67.4475006 105.6845017
  70.7979987  64.6705006 114.7785017  71.7549987  64.6705006 114.7785017
  70.5579987  65.5975006 114.7785017  62.8669987  65.8935006 111.2565017
  63.8239987  65.8935006 111.2565017  62.6269987  66.8205006 111.2565017
  63.7289987  70.2535006 115.9455017  64.6859987  70.2535006 115.9455017
  63.4889987  71.1805006 115.9455017  60.7179987  66.5055006 115.1115017
  61.6749987  66.5055006 115.1115017  60.4779987  67.4325006 115.1115017
  62.0169987  72.3695006 116.7175017  62.9739987  72.3695006 116.7175017
  61.7769987  73.2965006 116.7175017  73.4419987  57.5305006 103.3105017
  74.3989987  57.5305006 103.3105017  73.2019987  58.4575006 103.3105017
  61.4859987  66.2155006 105.1695017  62.4429987  66.2155006 105.1695017
  61.2459987  67.1425006 105.1695017  75.5629987  72.0495006 116.5675017
  76.5199987  72.0495006 116.5675017  75.3229987  72.9765006 116.5675017
  72.6919987  63.5285006 117.0415017  73.6489987  63.5285006 117.0415017
  72.4519987  64.4555006 117.0415017  62.5049987  58.3905006 110.9985017
  63.4619987  58.3905006 110.9985017  62.2649987  59.3175006 110.9985017
  67.1469987  58.1015006 114.3745017  68.1039987  58.1015006 114.3745017
  66.9069987  59.0285006 114.3745017  70.4539987  61.8885006 115.2545017
  71.4109987  61.8885006 115.2545017  70.2139987  62.8155006 115.2545017
  66.6749987  60.6195006 101.7265017  67.6319987  60.6195006 101.7265017
  66.4349987  61.5465006 101.7265017  62.6139987  63.3465006 112.2155017
  63.5709987  63.3465006 112.2155017  62.3739987  64.2735006 112.2155017
  62.5639987  63.4705006 107.1205017  63.5209987  63.4705006 107.1205017
  62.3239987  64.3975006 107.1205017  67.1759987  64.1865006 117.3195017
  68.1329987  64.1865006 117.3195017  66.9359987  65.1135006 117.3195017
  69.1089987  63.4565006 108.6835017  70.0659987  63.4565006 108.6835017
  68.8689987  64.3835006 108.6835017  60.2609987  63.6405006 113.9515017
  61.2179987  63.6405006 113.9515017  60.0209987  64.5675006 113.9515017
  56.9059987  60.7585006 107.8825017  57.8629987  60.7585006 107.8825017
  56.6659987  61.6855006 107.8825017  68.3129987  65.0485006 113.2945017
  69.2699987  65.0485006 113.2945017  68.0729987  65.9755006 113.2945017
  65.1219987  60.9785006 108.1315017  66.0789987  60.9785006 108.1315017
  64.8819987  61.9055006 108.1315017  59.9439987  62.5935006 106.9615017
  60.9009987  62.5935006 106.9615017  59.7039987  63.5205006 106.9615017
  69.5409987  60.2545006 111.3605017  70.4979987  60.2545006 111.3605017
  69.3009987  61.1815006 111.3605017  72.7629987  75.9195006 117.6825017
  73.7199987  75.9195006 117.6825017  72.5229987  76.8465006 117.6825017
  60.4509987  68.3635006 117.2545017  61.4079987  68.3635006 117.2545017
  60.2109987  69.2905006 117.2545017  66.4209987  63.8015006 110.0065017
  67.3779987  63.8015006 110.0065017  66.1809987  64.7285006 110.0065017
  61.4179987  59.9545006 106.4175017  62.3749987  59.9545006 106.4175017
  61.1779987  60.8815006 106.4175017  65.0609987  62.1435006 112.4245017
  66.0179987  62.1435006 112.4245017  64.8209987  63.0705006 112.4245017
  72.8129987  67.5215006 112.9125017  73.7699987  67.5215006 112.9125017
  72.5729987  68.4485006 112.9125017  60.7899987  67.6615006 109.8935017
  61.7469987  67.6615006 109.8935017  60.5499987  68.5885006 109.8935017
  57.7399987  66.1455006 115.2015017  58.6969987  66.1455006 115.2015017
  57.4999987  67.0725006 115.2015017  64.7509987  65.6685006 117.3925017
  65.7079987  65.6685006 117.3925017  64.5109987  66.5955006 117.3925017
  75.1159987  63.2265006 103.7235017  76.0729987  63.2265006 103.7235017
  74.8759987  64.1535006 103.7235017  75.0969987  69.0825006 116.5165017
  76.0539987  69.0825006 116.5165017  74.8569987  70.0095006 116.5165017
  73.4119987  72.0555006 104.1135017  74.3689987  72.0555006 104.1135017
  73.1719987  72.9825006 104.1135017  70.6059987  66.8765006 111.1525017
  71.5629987  66.8765006 111.1525017  70.3659987  67.8035006 111.1525017
  71.3179987  73.6225006 115.3445017  72.2749987  73.6225006 115.3445017
  71.0779987  74.5495006 115.3445017  75.3179987  74.5255006 102.1535017
  76.2749987  74.5255006 102.1535017  75.0779987  75.4525006 102.1535017
  59.3949987  60.8855006 114.7325017  60.3519987  60.8855006 114.7325017
  59.1549987  61.8125006 114.7325017  71.6609987  68.7605006 104.2245017
  72.6179987  68.7605006 104.2245017  71.4209987  69.6875006 104.2245017
  64.9289987  71.1165006 100.4565017  65.8859987  71.1165006 100.4565017
  64.6889987  72.0435006 100.4565017  68.1209987  60.6525006 113.6705017
  69.0779987  60.6525006 113.6705017  67.8809987  61.5795006 113.6705017
  68.9289987  60.2315006 104.7325017  69.8859987  60.2315006 104.7325017
  68.6889987  61.1585006 104.7325017  66.6459987  63.0205006 114.7665017
  67.6029987  63.0205006 114.7665017  66.4059987  63.9475006 114.7665017
  66.9639987  59.0725006 106.4845017  67.9209987  59.0725006 106.4845017
  66.7239987  59.9995006 106.4845017  72.8449987  60.8775006 115.6285017
  73.8019987  60.8775006 115.6285017  72.6049987  61.8045006 115.6285017
  71.4439987  64.6535006 109.6555017  72.4009987  64.6535006 109.6555017
  71.2039987  65.5805006 109.6555017  72.5169987  73.9165006 111.3155017
  73.4739987  73.9165006 111.3155017  72.2769987  74.8435006 111.3155017
  60.0109987  58.0405006 110.0955017  60.9679987  58.0405006 110.0955017
  59.7709987  58.9675006 110.0955017  58.1679987  74.6195006 117.5835017
  59.1249987  74.6195006 117.5835017  57.9279987  75.5465006 117.5835017
  62.8399987  73.5225006 119.1775017  63.7969987  73.5225006 119.1775017
  62.5999987  74.4495006 119.1775017  69.3739987  71.9355006 117.9305017
  70.3309987  71.9355006 117.9305017  69.1339987  72.8625006 117.9305017
  58.0949987  68.3905006 118.5415017  59.0519987  68.3905006 118.5415017
  57.8549987  69.3175006 118.5415017  64.7499987  68.3615006 117.9785017
  65.7069987  68.3615006 117.9785017  64.5099987  69.2885006 117.9785017
  58.9919987  65.6025006 117.9275017  59.9489987  65.6025006 117.9275017
  58.7519987  66.5295006 117.9275017  62.9129987  64.5675006 115.2895017
  63.8699987  64.5675006 115.2895017  62.6729987  65.4945006 115.2895017
  67.9629987  67.1025006 118.6145017  68.9199987  67.1025006 118.6145017
  67.7229987  68.0295006 118.6145017  74.1139987  67.2845006 100.6105017
  75.0709987  67.2845006 100.6105017  73.8739987  68.2115006 100.6105017
  63.2989987  61.9355006 116.3565017  64.2559987  61.9355006 116.3565017
  63.0589987  62.8625006 116.3565017  63.6989987  60.3165006 113.8855017
  64.6559987  60.3165006 113.8855017  63.4589987  61.2435006 113.8855017
  65.2239987  65.7725006 114.1075017  66.1809987  65.7725006 114.1075017
  64.9839987  66.6995006 114.1075017  69.6449987  63.5675006 119.0955017
  70.6019987  63.5675006 119.0955017  69.4049987  64.4945006 119.0955017
  70.9759987  66.3615006 117.2225017  71.9329987  66.3615006 117.2225017
  70.7359987  67.2885006 117.2225017  61.7549987  63.1755006 118.2685017
  62.7119987  63.1755006 118.2685017  61.5149987  64.1025006 118.2685017
  64.4919987  57.7535006 114.2935017  65.4489987  57.7535006 114.2935017
  64.2519987  58.6805006 114.2935017  65.7649987  62.0855006 117.8915017
  66.7219987  62.0855006 117.8915017  65.5249987  63.0125006 117.8915017
  68.4819987  61.2205006 116.9685017  69.4389987  61.2205006 116.9685017
  68.2419987  62.1475006 116.9685017  70.0779987  59.8505006 118.9075017
  71.0349987  59.8505006 118.9075017  69.8379987  60.7775006 118.9075017
  59.8539987  61.1085006 118.0005017  60.8109987  61.1085006 118.0005017
  59.6139987  62.0355006 118.0005017  64.7079987  57.1205006 116.9835017
  65.6649987  57.1205006 116.9835017  64.4679987  58.0475006 116.9835017
  65.0709987  58.7585006 119.0725017  66.0279987  58.7585006 119.0725017
  64.8309987  59.6855006 119.0725017  75.2309987  74.5595006 111.5165017
  76.1879987  74.5595006 111.5165017  74.9909987  75.4865006 111.5165017
  74.8149987  74.1535006 114.4645017  75.7719987  74.1535006 114.4645017
  74.5749987  75.0805006 114.4645017  73.2459987  69.8885006 119.1095017
  74.2029987  69.8885006 119.1095017  73.0059987  70.8155006 119.1095017
  74.5739987  68.1905006 104.5675017  75.5309987  68.1905006 104.5675017
  74.3339987  69.1175006 104.5675017  74.9469987  66.2605006 106.4335017
  75.9039987  66.2605006 106.4335017  74.7069987  67.1875006 106.4335017
  74.7009987  68.9805006 111.4245017  75.6579987  68.9805006 111.4245017
  74.4609987  69.9075006 111.4245017  73.2369987  71.8965006 113.6935017
  74.1939987  71.8965006 113.6935017  72.9969987  72.8235006 113.6935017
  72.7389987  64.7565006 107.0015017  73.6959987  64.7565006 107.0015017
  72.4989987  65.6835006 107.0015017  73.5969987  66.7135006 116.6975017
  74.5539987  66.7135006 116.6975017  73.3569987  67.6405006 116.6975017
  75.1069987  64.6145006 117.3475017  76.0639987  64.6145006 117.3475017
  74.8669987  65.5415006 117.3475017  72.4309987  62.3415006 105.4955017
  73.3879987  62.3415006 105.4955017  72.1909987  63.2685006 105.4955017
  73.0489987  62.8855006 110.9065017  74.0059987  62.8855006 110.9065017
  72.8089987  63.8125006 110.9065017  73.1159987  63.6175006 113.6995017
  74.0729987  63.6175006 113.6995017  72.8759987  64.5445006 113.6995017
  57.3639987  62.1365006 117.2035017  58.3209987  62.1365006 117.2035017
  57.1239987  63.0635006 117.2035017  75.3819987  57.6515006 119.0425017
  76.3389987  57.6515006 119.0425017  75.1419987  58.5785006 119.0425017
  73.0559987  59.6285006 105.5135017  74.0129987  59.6285006 105.5135017
  72.8159987  60.5555006 105.5135017  58.5679987  60.4275006 110.0645017
  59.5249987  60.4275006 110.0645017  58.3279987  61.3545006 110.0645017
  56.8469987  63.4275006 111.1065017  57.8039987  63.4275006 111.1065017
  56.6069987  64.3545006 111.1065017  74.9109987  59.7585006 117.3945017
  75.8679987  59.7585006 117.3945017  74.6709987  60.6855006 117.3945017
  74.9199987  59.6615006 102.0645017  75.8769987  59.6615006 102.0645017
  74.6799987  60.5885006 102.0645017  57.2179987  59.7075006 105.1815017
  58.1749987  59.7075006 105.1815017  56.9779987  60.6345006 105.1815017
  71.9639987  74.6675006 107.1275017  72.9209987  74.6675006 107.1275017
  71.7239987  75.5945006 107.1275017  57.1739987  58.3635006 113.4895017
  58.1309987  58.3635006 113.4895017  56.9339987  59.2905006 113.4895017
  59.3869987  71.5445006 117.6465017  60.3439987  71.5445006 117.6465017
  59.1469987  72.4715006 117.6465017  66.6189987  74.0225006 116.8895017
  67.5759987  74.0225006 116.8895017  66.3789987  74.9495006 116.8895017
  68.9439987  75.2965006 116.0955017  69.9009987  75.2965006 116.0955017
  68.7039987  76.2235006 116.0955017  73.9219987  57.8495006 115.2315017
  74.8789987  57.8495006 115.2315017  73.6819987  58.7765006 115.2315017
  59.7109987  75.7875006 113.9295017  60.6679987  75.7875006 113.9295017
  59.4709987  76.7145006 113.9295017  66.9599987  75.2945006 112.1375017
  67.9169987  75.2945006 112.1375017  66.7199987  76.2215006 112.1375017
  69.2379987  74.1585006 113.1565017  70.1949987  74.1585006 113.1565017
  68.9979987  75.0855006 113.1565017  71.7989987  75.6775006 113.4115017
  72.7559987  75.6775006 113.4115017  71.5589987  76.6045006 113.4115017
  67.3199987  59.3075006 109.5245017  68.2769987  59.3075006 109.5245017
  67.0799987  60.2345006 109.5245017  72.4519987  57.3775006 109.6435017
  73.4089987  57.3775006 109.6435017  72.2119987  58.3045006 109.6435017
  74.1389987  58.5785006 107.9025017  75.0959987  58.5785006 107.9025017
  73.8989987  59.5055006 107.9025017  59.6819987  57.9275006 107.3625017
  60.6389987  57.9275006 107.3625017  59.4419987  58.8545006 107.3625017
  58.4609987  57.6895006 103.1145017  59.4179987  57.6895006 103.1145017
  58.2209987  58.6165006 103.1145017  64.1779987  57.8395006 107.1595017
  65.1349987  57.8395006 107.1595017  63.9379987  58.7665006 107.1595017
  69.8409987  57.8705006 108.7685017  70.7979987  57.8705006 108.7685017
  69.6009987  58.7975006 108.7685017  71.1269987  57.8665006 104.4675017
  72.0839987  57.8665006 104.4675017  70.8869987  58.7935006 104.4675017
  73.9369987  74.4525006 105.1605017  74.8939987  74.4525006 105.1605017
  73.6969987  75.3795006 105.1605017  59.5799987  58.4495006 116.8315017
  60.5369987  58.4495006 116.8315017  59.3399987  59.3765006 116.8315017
  61.5849987  57.8235006 118.4445017  62.5419987  57.8235006 118.4445017
  61.3449987  58.7505006 118.4445017  69.9879987  57.1195006 118.5975017
  70.9449987  57.1195006 118.5975017  69.7479987  58.0465006 118.5975017
  73.1869987  73.1655006 117.2555017  74.1439987  73.1655006 117.2555017
  72.9469987  74.0925006 117.2555017  87.6559987  67.0565006 107.2335017
  88.6129987  67.0565006 107.2335017  87.4159987  67.9835006 107.2335017
  86.4929987  66.3135006 110.7405017  87.4499987  66.3135006 110.7405017
  86.2529987  67.2405006 110.7405017  78.8519987  65.9695006 112.2905017
  79.8089987  65.9695006 112.2905017  78.6119987  66.8965006 112.2905017
  90.1609987  69.2525006 108.9925017  91.1179987  69.2525006 108.9925017
  89.9209987  70.1795006 108.9925017  79.7799987  70.4205006 110.8135017
  80.7369987  70.4205006 110.8135017  79.5399987  71.3475006 110.8135017
  76.4419987  64.0025006 106.2365017  77.3989987  64.0025006 106.2365017
  76.2019987  64.9295006 106.2365017  77.1149987  66.2115006 108.3965017
  78.0719987  66.2115006 108.3965017  76.8749987  67.1385006 108.3965017
  87.3069987  74.4055006 109.2485017  88.2639987  74.4055006 109.2485017
  87.0669987  75.3325006 109.2485017  84.8719987  68.7225006 111.1795017
  85.8289987  68.7225006 111.1795017  84.6319987  69.6495006 111.1795017
  93.4449987  60.3715006 111.9525017  94.4019987  60.3715006 111.9525017
  93.2049987  61.2985006 111.9525017  88.0369987  63.1795006 111.5005017
  88.9939987  63.1795006 111.5005017  87.7969987  64.1065006 111.5005017
  81.1609987  61.2625006 108.7385017  82.1179987  61.2625006 108.7385017
  80.9209987  62.1895006 108.7385017  88.8839987  61.3805006 107.1495017
  89.8409987  61.3805006 107.1495017  88.6439987  62.3075006 107.1495017
  77.7829987  63.6715006 109.4795017  78.7399987  63.6715006 109.4795017
  77.5429987  64.5985006 109.4795017  82.9459987  65.2285006 108.7595017
  83.9029987  65.2285006 108.7595017  82.7059987  66.1555006 108.7595017
  93.9249987  61.7875006 114.2085017  94.8819987  61.7875006 114.2085017
  93.6849987  62.7145006 114.2085017  80.0469987  60.1615006 112.7825017
  81.0039987  60.1615006 112.7825017  79.8069987  61.0885006 112.7825017
  87.2169987  69.7215006 106.3925017  88.1739987  69.7215006 106.3925017
  86.9769987  70.6485006 106.3925017  82.5769987  67.8095006 113.0375017
  83.5339987  67.8095006 113.0375017  82.3369987  68.7365006 113.0375017
  90.6869987  60.6905006 109.1035017  91.6439987  60.6905006 109.1035017
  90.4469987  61.6175006 109.1035017  79.6079987  62.0305006 110.7905017
  80.5649987  62.0305006 110.7905017  79.3679987  62.9575006 110.7905017
  81.0149987  69.7995006 113.8465017  81.9719987  69.7995006 113.8465017
  80.7749987  70.7265006 113.8465017  77.1159987  69.4375006 104.6365017
  78.0729987  69.4375006 104.6365017  76.8759987  70.3645006 104.6365017
  90.7179987  71.0895006 111.3815017  91.6749987  71.0895006 111.3815017
  90.4779987  72.0165006 111.3815017  91.0179987  59.3755006 112.7845017
  91.9749987  59.3755006 112.7845017  90.7779987  60.3025006 112.7845017
  84.0129987  57.4905006 110.2375017  84.9699987  57.4905006 110.2375017
  83.7729987  58.4175006 110.2375017  88.9669987  72.8695006 107.9925017
  89.9239987  72.8695006 107.9925017  88.7269987  73.7965006 107.9925017
  90.1739987  70.8005006 106.4855017  91.1309987  70.8005006 106.4855017
  89.9339987  71.7275006 106.4855017  91.8079987  69.3835006 114.9885017
  92.7649987  69.3835006 114.9885017  91.5679987  70.3105006 114.9885017
  86.3319987  66.3715006 104.7775017  87.2889987  66.3715006 104.7775017
  86.0919987  67.2985006 104.7775017  93.6809987  65.6975006 113.0395017
  94.6379987  65.6975006 113.0395017  93.4409987  66.6245006 113.0395017
  89.7599987  66.1475006 105.7095017  90.7169987  66.1475006 105.7095017
  89.5199987  67.0745006 105.7095017  89.6589987  64.6655006 114.7865017
  90.6159987  64.6655006 114.7865017  89.4189987  65.5925006 114.7865017
  81.3569987  67.1675006 107.5875017  82.3139987  67.1675006 107.5875017
  81.1169987  68.0945006 107.5875017  82.6829987  70.5625006 110.2705017
  83.6399987  70.5625006 110.2705017  82.4429987  71.4895006 110.2705017
  81.6919987  65.9065006 111.2395017  82.6489987  65.9065006 111.2395017
  81.4519987  66.8335006 111.2395017  88.0759987  71.4695006 111.9485017
  89.0329987  71.4695006 111.9485017  87.8359987  72.3965006 111.9485017
  82.6299987  70.3285006 115.9435017  83.5869987  70.3285006 115.9435017
  82.3899987  71.2555006 115.9435017  88.5499987  65.7775006 103.3805017
  89.5069987  65.7775006 103.3805017  88.3099987  66.7045006 103.3805017
  79.5639987  66.4965006 115.1195017  80.5209987  66.4965006 115.1195017
  79.3239987  67.4235006 115.1195017  86.3409987  72.4185006 106.7905017
  87.2979987  72.4185006 106.7905017  86.1009987  73.3455006 106.7905017
  80.8699987  72.3795006 116.6975017  81.8269987  72.3795006 116.6975017
  80.6299987  73.3065006 116.6975017  80.3469987  66.1825006 105.1725017
  81.3039987  66.1825006 105.1725017  80.1069987  67.1095006 105.1725017
  76.4329987  68.6065006 114.0655017  77.3899987  68.6065006 114.0655017
  76.1929987  69.5335006 114.0655017  76.1749987  71.3545006 110.8685017
  77.1319987  71.3545006 110.8685017  75.9349987  72.2815006 110.8685017
  94.4129987  72.0475006 116.5615017  95.3699987  72.0475006 116.5615017
  94.1729987  72.9745006 116.5615017  85.3699987  71.5915006 115.4255017
  86.3269987  71.5915006 115.4255017  85.1299987  72.5185006 115.4255017
  85.7669987  75.3485006 105.2265017  86.7239987  75.3485006 105.2265017
  85.5269987  76.2755006 105.2265017  79.4439987  74.2085006 107.0465017
  80.4009987  74.2085006 107.0465017  79.2039987  75.1355006 107.0465017
  88.5349987  74.5075006 105.0025017  89.4919987  74.5075006 105.0025017
  88.2949987  75.4345006 105.0025017  91.5529987  63.5215006 117.0425017
  92.5099987  63.5215006 117.0425017  91.3129987  64.4485006 117.0425017
  78.6929987  69.9275006 115.0375017  79.6499987  69.9275006 115.0375017
  78.4529987  70.8545006 115.0375017  81.3609987  58.3905006 110.9985017
  82.3179987  58.3905006 110.9985017  81.1209987  59.3175006 110.9985017
  86.0069987  58.0785006 114.3665017  86.9639987  58.0785006 114.3665017
  85.7669987  59.0055006 114.3665017  89.3089987  61.8955006 115.2545017
  90.2659987  61.8955006 115.2545017  89.0689987  62.8225006 115.2545017
  81.4629987  63.3575006 112.2105017  82.4199987  63.3575006 112.2105017
  81.2229987  64.2845006 112.2105017  81.4279987  63.5195006 107.0995017
  82.3849987  63.5195006 107.0995017  81.1879987  64.4465006 107.0995017
  86.9499987  63.9935006 105.8735017  87.9069987  63.9935006 105.8735017
  86.7099987  64.9205006 105.8735017  86.0229987  64.1935006 117.3225017
  86.9799987  64.1935006 117.3225017  85.7829987  65.1205006 117.3225017
  87.9819987  63.4795006 108.7025017  88.9389987  63.4795006 108.7025017
  87.7419987  64.4065006 108.7025017  79.1089987  63.6415006 113.9425017
  80.0659987  63.6415006 113.9425017  78.8689987  64.5685006 113.9425017
  82.4759987  61.0775006 100.8115017  83.4329987  61.0775006 100.8115017
  82.2359987  62.0045006 100.8115017  75.7639987  60.7725006 107.8905017
  76.7209987  60.7725006 107.8905017  75.5239987  61.6995006 107.8905017
  87.1939987  65.0715006 113.2985017  88.1509987  65.0715006 113.2985017
  86.9539987  65.9985006 113.2985017  83.9919987  61.0285006 108.1185017
  84.9489987  61.0285006 108.1185017  83.7519987  61.9555006 108.1185017
  78.8129987  62.6075006 106.9565017  79.7699987  62.6075006 106.9565017
  78.5729987  63.5345006 106.9565017  82.4349987  62.6365006 104.5965017
  83.3919987  62.6365006 104.5965017  82.1949987  63.5635006 104.5965017
  88.3959987  60.2645006 111.3625017  89.3529987  60.2645006 111.3625017
  88.1559987  61.1915006 111.3625017  81.1269987  63.8485006 102.1835017
  82.0839987  63.8485006 102.1835017  80.8869987  64.7755006 102.1835017
  91.6119987  75.9155006 117.6775017  92.5689987  75.9155006 117.6775017
  91.3719987  76.8425006 117.6775017  79.2789987  68.3775006 117.2485017
  80.2359987  68.3775006 117.2485017  79.0389987  69.3045006 117.2485017
  85.2809987  63.7965006 110.0075017  86.2379987  63.7965006 110.0075017
  85.0409987  64.7235006 110.0075017  80.2879987  59.9555006 106.4365017
  81.2449987  59.9555006 106.4365017  80.0479987  60.8825006 106.4365017
  83.9179987  62.1335006 112.4205017  84.8749987  62.1335006 112.4205017
  83.6779987  63.0605006 112.4205017  84.5189987  68.3395006 104.1275017
  85.4759987  68.3395006 104.1275017  84.2789987  69.2665006 104.1275017
  91.6659987  67.5345006 112.9185017  92.6229987  67.5345006 112.9185017
  91.4259987  68.4615006 112.9185017  85.9909987  68.5975006 115.3555017
  86.9479987  68.5975006 115.3555017  85.7509987  69.5245006 115.3555017
  89.0599987  63.1015006 104.0015017  90.0169987  63.1015006 104.0015017
  88.8199987  64.0285006 104.0015017  79.6089987  67.7275006 109.9145017
  80.5659987  67.7275006 109.9145017  79.3689987  68.6545006 109.9145017
  86.6319987  69.8005006 103.2485017  87.5889987  69.8005006 103.2485017
  86.3919987  70.7275006 103.2485017  76.6009987  66.1425006 115.1815017
  77.5579987  66.1425006 115.1815017  76.3609987  67.0695006 115.1815017
  83.6129987  65.7015006 117.3755017  84.5699987  65.7015006 117.3755017
  83.3729987  66.6285006 117.3755017  88.2839987  71.0335006 115.2975017
  89.2409987  71.0335006 115.2975017  88.0439987  71.9605006 115.2975017
  93.9829987  63.2415006 103.7015017  94.9399987  63.2415006 103.7015017
  93.7429987  64.1685006 103.7015017  93.9519987  69.0865006 116.5155017
  94.9089987  69.0865006 116.5155017  93.7119987  70.0135006 116.5155017
  92.2649987  72.0215006 104.0965017  93.2219987  72.0215006 104.0965017
  92.0249987  72.9485006 104.0965017  89.4579987  66.8785006 111.1695017
  90.4149987  66.8785006 111.1695017  89.2179987  67.8055006 111.1695017
  81.9739987  71.1835006 107.2905017  82.9309987  71.1835006 107.2905017
  81.7339987  72.1105006 107.2905017  83.4249987  68.8545006 106.8425017
  84.3819987  68.8545006 106.8425017  83.1849987  69.7815006 106.8425017
  83.8599987  73.0355006 113.2135017  84.8169987  73.0355006 113.2135017
  83.6199987  73.9625006 113.2135017  82.0969987  73.8415006 106.3715017
  83.0539987  73.8415006 106.3715017  81.8569987  74.7685006 106.3715017
  87.4009987  69.0655006 112.8575017  88.3579987  69.0655006 112.8575017
  87.1609987  69.9925006 112.8575017  89.6869987  70.1015006 101.9715017
  90.6439987  70.1015006 101.9715017  89.4469987  71.0285006 101.9715017
  90.1689987  73.6355006 115.3495017  91.1259987  73.6355006 115.3495017
  89.9289987  74.5625006 115.3495017  78.2509987  60.8865006 114.7315017
  79.2079987  60.8865006 114.7315017  78.0109987  61.8135006 114.7315017
  90.6509987  68.7335006 104.0885017  91.6079987  68.7335006 104.0885017
  90.4109987  69.6605006 104.0885017  77.8729987  72.6795006 113.1625017
  78.8299987  72.6795006 113.1625017  77.6329987  73.6065006 113.1625017
  82.6659987  70.7315006 102.8485017  83.6229987  70.7315006 102.8485017
  82.4259987  71.6585006 102.8485017  79.1409987  67.9745006 103.3255017
  80.0979987  67.9745006 103.3255017  78.9009987  68.9015006 103.3255017
  86.9769987  60.6515006 113.6705017  87.9339987  60.6515006 113.6705017
  86.7369987  61.5785006 113.6705017  87.7109987  60.3085006 104.7825017
  88.6679987  60.3085006 104.7825017  87.4709987  61.2355006 104.7825017
  85.4399987  72.4025006 103.6075017  86.3969987  72.4025006 103.6075017
  85.1999987  73.3295006 103.6075017  84.9389987  62.0095006 105.5925017
  85.8959987  62.0095006 105.5925017  84.6989987  62.9365006 105.5925017
  85.5059987  62.9995006 114.7755017  86.4629987  62.9995006 114.7755017
  85.2659987  63.9265006 114.7755017  85.8329987  59.0625006 106.5045017
  86.7899987  59.0625006 106.5045017  85.5929987  59.9895006 106.5045017
  82.7939987  73.4425006 103.6165017  83.7509987  73.4425006 103.6165017
  82.5539987  74.3695006 103.6165017  81.4899987  60.1725006 103.1485017
  82.4469987  60.1725006 103.1485017  81.2499987  61.0995006 103.1485017
  91.7029987  60.8755006 115.6205017  92.6599987  60.8755006 115.6205017
  91.4629987  61.8025006 115.6205017  90.2889987  64.6745006 109.6565017
  91.2459987  64.6745006 109.6565017  90.0489987  65.6015006 109.6565017
  91.3669987  73.9075006 111.3165017  92.3239987  73.9075006 111.3165017
  91.1269987  74.8345006 111.3165017  78.8639987  58.0395006 110.0945017
  79.8209987  58.0395006 110.0945017  78.6239987  58.9665006 110.0945017
  77.8089987  71.9485006 106.2235017  78.7659987  71.9485006 106.2235017
  77.5689987  72.8755006 106.2235017  77.0389987  74.6085006 117.5475017
  77.9959987  74.6085006 117.5475017  76.7989987  75.5355006 117.5475017
  81.6919987  73.5185006 119.1735017  82.6489987  73.5185006 119.1735017
  81.4519987  74.4455006 119.1735017  88.2259987  71.9065006 117.8945017
  89.1829987  71.9065006 117.8945017  87.9859987  72.8335006 117.8945017
  90.4179987  72.7955006 100.7785017  91.3749987  72.7955006 100.7785017
  90.1779987  73.7225006 100.7785017  76.9549987  68.3925006 118.5325017
  77.9119987  68.3925006 118.5325017  76.7149987  69.3195006 118.5325017
  81.2719987  68.6925006 100.5825017  82.2289987  68.6925006 100.5825017
  81.0319987  69.6195006 100.5825017  83.6549987  68.3705006 117.9305017
  84.6119987  68.3705006 117.9305017  83.4149987  69.2975006 117.9305017
  86.6109987  69.8325006 100.3435017  87.5679987  69.8325006 100.3435017
  86.3709987  70.7595006 100.3435017  89.3589987  68.2405006 115.3165017
  90.3159987  68.2405006 115.3165017  89.1189987  69.1675006 115.3165017
  77.8459987  65.6095006 117.9195017  78.8029987  65.6095006 117.9195017
  77.6059987  66.5365006 117.9195017  82.5029987  66.7205006 102.9245017
  83.4599987  66.7205006 102.9245017  82.2629987  67.6475006 102.9245017
  81.7619987  64.5665006 115.2855017  82.7189987  64.5665006 115.2855017
  81.5219987  65.4935006 115.2855017  86.8179987  67.1115006 118.6005017
  87.7749987  67.1115006 118.6005017  86.5779987  68.0385006 118.6005017
  82.1549987  61.9405006 116.3525017  83.1119987  61.9405006 116.3525017
  81.9149987  62.8675006 116.3525017  82.5549987  60.3175006 113.8855017
  83.5119987  60.3175006 113.8855017  82.3149987  61.2445006 113.8855017
  84.1049987  65.7865006 114.1325017  85.0619987  65.7865006 114.1325017
  83.8649987  66.7135006 114.1325017  88.5069987  63.5635006 119.1185017
  89.4639987  63.5635006 119.1185017  88.2669987  64.4905006 119.1185017
  89.8309987  66.3455006 117.2435017  90.7879987  66.3455006 117.2435017
  89.5909987  67.2725006 117.2435017  80.6139987  63.1825006 118.2665017
  81.5709987  63.1825006 118.2665017  80.3739987  64.1095006 118.2665017
  83.3499987  57.7565006 114.2915017  84.3069987  57.7565006 114.2915017
  83.1099987  58.6835006 114.2915017  84.6209987  62.0865006 117.8905017
  85.5779987  62.0865006 117.8905017  84.3809987  63.0135006 117.8905017
  87.3369987  61.2225006 116.9665017  88.2939987  61.2225006 116.9665017
  87.0969987  62.1495006 116.9665017  88.9319987  59.8515006 118.9135017
  89.8889987  59.8515006 118.9135017  88.6919987  60.7785006 118.9135017
  78.7099987  61.1085006 118.0005017  79.6669987  61.1085006 118.0005017
  78.4699987  62.0355006 118.0005017  83.5599987  57.1245006 116.9835017
  84.5169987  57.1245006 116.9835017  83.3199987  58.0515006 116.9835017
  83.9269987  58.7595006 119.0725017  84.8839987  58.7595006 119.0725017
  83.6869987  59.6865006 119.0725017  83.4399987  75.6425006 102.2155017
  84.3969987  75.6425006 102.2155017  83.1999987  76.5695006 102.2155017
  75.7249987  75.6575006 106.7095017  76.6819987  75.6575006 106.7095017
  75.4849987  76.5845006 106.7095017  76.5519987  73.7615006 108.5635017
  77.5089987  73.7615006 108.5635017  76.3119987  74.6885006 108.5635017
  94.0859987  74.5585006 111.5165017  95.0429987  74.5585006 111.5165017
  93.8459987  75.4855006 111.5165017  93.6619987  74.1565006 114.4595017
  94.6189987  74.1565006 114.4595017  93.4219987  75.0835006 114.4595017
  92.1079987  69.8865006 119.1155017  93.0649987  69.8865006 119.1155017
  91.8679987  70.8135006 119.1155017  93.3979987  68.2125006 104.5605017
  94.3549987  68.2125006 104.5605017  93.1579987  69.1395006 104.5605017
  93.7669987  66.2925006 106.4265017  94.7239987  66.2925006 106.4265017
  93.5269987  67.2195006 106.4265017  93.5429987  68.9865006 111.4205017
  94.4999987  68.9865006 111.4205017  93.3029987  69.9135006 111.4205017
  92.0899987  71.8835006 113.7015017  93.0469987  71.8835006 113.7015017
  91.8499987  72.8105006 113.7015017  94.1099987  66.1335006 102.7995017
  95.0669987  66.1335006 102.7995017  93.8699987  67.0605006 102.7995017
  92.4539987  63.3645006 101.3525017  93.4109987  63.3645006 101.3525017
  92.2139987  64.2915006 101.3525017  91.6089987  64.7565006 107.0205017
  92.5659987  64.7565006 107.0205017  91.3689987  65.6835006 107.0205017
  76.6079987  66.8365006 111.0565017  77.5649987  66.8365006 111.0565017
  76.3679987  67.7635006 111.0565017  92.4529987  66.7235006 116.6825017
  93.4099987  66.7235006 116.6825017  92.2129987  67.6505006 116.6825017
  93.9609987  64.6165006 117.3465017  94.9179987  64.6165006 117.3465017
  93.7209987  65.5435006 117.3465017  91.2869987  62.3515006 105.5115017
  92.2439987  62.3515006 105.5115017  91.0469987  63.2785006 105.5115017
  91.9089987  62.8835006 110.9065017  92.8659987  62.8835006 110.9065017
  91.6689987  63.8105006 110.9065017  91.9709987  63.6165006 113.6995017
  92.9279987  63.6165006 113.6995017  91.7309987  64.5435006 113.6995017
  76.2179987  62.1375006 117.2035017  77.1749987  62.1375006 117.2035017
  75.9779987  63.0645006 117.2035017  94.2369987  57.6515006 119.0425017
  95.1939987  57.6515006 119.0425017  93.9969987  58.5785006 119.0425017
  91.9269987  59.6165006 105.5235017  92.8839987  59.6165006 105.5235017
  91.6869987  60.5435006 105.5235017  77.4239987  60.4265006 110.0655017
  78.3809987  60.4265006 110.0655017  77.1839987  61.3535006 110.0655017
  75.7119987  63.4205006 111.1145017  76.6689987  63.4205006 111.1145017
  75.4719987  64.3475006 111.1145017  93.7689987  59.7575006 117.3945017
  94.7259987  59.7575006 117.3945017  93.5289987  60.6845006 117.3945017
  76.0869987  59.7135006 105.1775017  77.0439987  59.7135006 105.1775017
  75.8469987  60.6405006 105.1775017  90.8199987  74.6425006 107.1225017
  91.7769987  74.6425006 107.1225017  90.5799987  75.5695006 107.1225017
  76.0319987  58.3695006 113.4945017  76.9889987  58.3695006 113.4945017
  75.7919987  59.2965006 113.4945017  78.2509987  71.5515006 117.6425017
  79.2079987  71.5515006 117.6425017  78.0109987  72.4785006 117.6425017
  81.1609987  72.5465006 113.9225017  82.1179987  72.5465006 113.9225017
  80.9209987  73.4735006 113.9225017  85.4809987  73.9715006 116.8375017
  86.4379987  73.9715006 116.8375017  85.2409987  74.8985006 116.8375017
  87.7789987  75.2415006 116.1265017  88.7359987  75.2415006 116.1265017
  87.5389987  76.1685006 116.1265017  92.7789987  57.8535006 115.2325017
  93.7359987  57.8535006 115.2325017  92.5389987  58.7805006 115.2325017
  78.5869987  75.7935006 113.9305017  79.5439987  75.7935006 113.9305017
  78.3469987  76.7205006 113.9305017  81.0569987  75.3745006 112.9945017
  82.0139987  75.3745006 112.9945017  80.8169987  76.3015006 112.9945017
  85.7589987  75.2835006 112.1615017  86.7159987  75.2835006 112.1615017
  85.5189987  76.2105006 112.1615017  88.0659987  74.1145006 113.1595017
  89.0229987  74.1145006 113.1595017  87.8259987  75.0415006 113.1595017
  90.6509987  75.6855006 113.4185017  91.6079987  75.6855006 113.4185017
  90.4109987  76.6125006 113.4185017  78.0219987  74.4415006 110.8605017
  78.9789987  74.4415006 110.8605017  77.7819987  75.3685006 110.8605017
  80.1169987  73.1535006 109.5135017  81.0739987  73.1535006 109.5135017
  79.8769987  74.0805006 109.5135017  82.7069987  73.6355006 110.3845017
  83.6639987  73.6355006 110.3845017  82.4669987  74.5625006 110.3845017
  86.1769987  59.2905006 109.5255017  87.1339987  59.2905006 109.5255017
  85.9369987  60.2175006 109.5255017  91.3199987  57.3475006 109.6115017
  92.2769987  57.3475006 109.6115017  91.0799987  58.2745006 109.6115017
  92.9879987  58.5535006 107.9015017  93.9449987  58.5535006 107.9015017
  92.7479987  59.4805006 107.9015017  78.5169987  57.9245006 107.3665017
  79.4739987  57.9245006 107.3665017  78.2769987  58.8515006 107.3665017
  77.3659987  57.7045006 103.1215017  78.3229987  57.7045006 103.1215017
  77.1259987  58.6315006 103.1215017  83.0339987  57.8455006 107.1655017
  83.9909987  57.8455006 107.1655017  82.7939987  58.7725006 107.1655017
  88.6999987  57.8605006 108.8035017  89.6569987  57.8605006 108.8035017
  88.4599987  58.7875006 108.8035017  90.0249987  57.8925006 104.5395017
  90.9819987  57.8925006 104.5395017  89.7849987  58.8195006 104.5395017
  77.2459987  73.6155006 104.0715017  78.2029987  73.6155006 104.0715017
  77.0059987  74.5425006 104.0715017  79.1439987  59.5965006 101.6455017
  80.1009987  59.5965006 101.6455017  78.9039987  60.5235006 101.6455017
  84.1609987  59.8905006 104.0145017  85.1179987  59.8905006 104.0145017
  83.9209987  60.8175006 104.0145017  92.7879987  74.4495006 105.1535017
  93.7449987  74.4495006 105.1535017  92.5479987  75.3765006 105.1535017
  78.4369987  58.4545006 116.8325017  79.3939987  58.4545006 116.8325017
  78.1969987  59.3815006 116.8325017  80.4389987  57.8235006 118.4445017
  81.3959987  57.8235006 118.4445017  80.1989987  58.7505006 118.4445017
  88.8429987  57.1305006 118.6065017  89.7999987  57.1305006 118.6065017
  88.6029987  58.0575006 118.6065017  92.0489987  73.1685006 117.2615017
  93.0059987  73.1685006 117.2615017  91.8089987  74.0955006 117.2615017
 106.4719987  67.0215006 107.2245017 107.4289987  67.0215006 107.2245017
 106.2319987  67.9485006 107.2245017 105.2829987  66.3315006 110.7455017
 106.2399987  66.3315006 110.7455017 105.0429987  67.2585006 110.7455017
  97.7079987  65.9875006 112.2985017  98.6649987  65.9875006 112.2985017
  97.4679987  66.9145006 112.2985017  98.6349987  70.4195006 110.8125017
  99.5919987  70.4195006 110.8125017  98.3949987  71.3465006 110.8125017
  95.2849987  64.0065006 106.2585017  96.2419987  64.0065006 106.2585017
  95.0449987  64.9335006 106.2585017  95.9749987  66.2095006 108.4055017
  96.9319987  66.2095006 108.4055017  95.7349987  67.1365006 108.4055017
 106.2029987  74.3315006 109.2895017 107.1599987  74.3315006 109.2895017
 105.9629987  75.2585006 109.2895017 103.7009987  68.7105006 111.1715017
 104.6579987  68.7105006 111.1715017 103.4609987  69.6375006 111.1715017
 106.2239987  62.9375006 111.4645017 107.1809987  62.9375006 111.4645017
 105.9839987  63.8645006 111.4645017 100.0809987  61.2605006 108.7265017
 101.0379987  61.2605006 108.7265017  99.8409987  62.1875006 108.7265017
 107.7209987  61.8475006 106.7145017 108.6779987  61.8475006 106.7145017
 107.4809987  62.7745006 106.7145017  96.6509987  63.6935006 109.4715017
  97.6079987  63.6935006 109.4715017  96.4109987  64.6205006 109.4715017
 101.7929987  65.2315006 108.7585017 102.7499987  65.2315006 108.7585017
 101.5529987  66.1585006 108.7585017  98.9209987  60.1765006 112.7975017
  99.8779987  60.1765006 112.7975017  98.6809987  61.1035006 112.7975017
 106.2299987  69.6635006 106.3295017 107.1869987  69.6635006 106.3295017
 105.9899987  70.5905006 106.3295017 101.4369987  67.8105006 113.0375017
 102.3939987  67.8105006 113.0375017 101.1969987  68.7375006 113.0375017
  98.4739987  62.0425006 110.7925017  99.4309987  62.0425006 110.7925017
  98.2339987  62.9695006 110.7925017  99.8719987  69.7995006 113.8475017
 100.8289987  69.7995006 113.8475017  99.6319987  70.7265006 113.8475017
  95.9379987  69.4415006 104.6215017  96.8949987  69.4415006 104.6215017
  95.6979987  70.3685006 104.6215017 102.8729987  57.4945006 110.2475017
 103.8299987  57.4945006 110.2475017 102.6329987  58.4215006 110.2475017
 107.4999987  72.7135006 107.5615017 108.4569987  72.7135006 107.5615017
 107.2599987  73.6405006 107.5615017 105.1429987  66.3035006 104.7445017
 106.0999987  66.3035006 104.7445017 104.9029987  67.2305006 104.7445017
 105.2449987  64.8215006 101.7985017 106.2019987  64.8215006 101.7985017
 105.0049987  65.7485006 101.7985017 100.2099987  67.1655006 107.5965017
 101.1669987  67.1655006 107.5965017  99.9699987  68.0925006 107.5965017
 101.5369987  70.5575006 110.2715017 102.4939987  70.5575006 110.2715017
 101.2969987  71.4845006 110.2715017 100.5469987  65.9055006 111.2395017
 101.5039987  65.9055006 111.2395017 100.3069987  66.8325006 111.2395017
 106.5359987  71.4905006 111.9915017 107.4929987  71.4905006 111.9915017
 106.2959987  72.4175006 111.9915017 101.4859987  70.3285006 115.9425017
 102.4429987  70.3285006 115.9425017 101.2459987  71.2555006 115.9425017
 107.4339987  65.6305006 103.4905017 108.3909987  65.6305006 103.4905017
 107.1939987  66.5575006 103.4905017  98.4209987  66.4955006 115.1205017
  99.3779987  66.4955006 115.1205017  98.1809987  67.4225006 115.1205017
 105.1149987  72.4455006 106.7665017 106.0719987  72.4455006 106.7665017
 104.8749987  73.3725006 106.7665017  99.7269987  72.3795006 116.6975017
 100.6839987  72.3795006 116.6975017  99.4869987  73.3065006 116.6975017
  99.2029987  66.1695006 105.1665017 100.1599987  66.1695006 105.1665017
  98.9629987  67.0965006 105.1665017  95.2729987  68.6085006 114.0725017
  96.2299987  68.6085006 114.0725017  95.0329987  69.5355006 114.0725017
  95.0379987  71.3385006 110.8865017  95.9949987  71.3385006 110.8865017
  94.7979987  72.2655006 110.8865017 104.2419987  71.5905006 115.4465017
 105.1989987  71.5905006 115.4465017 104.0019987  72.5175006 115.4465017
 104.6169987  75.3595006 105.1905017 105.5739987  75.3595006 105.1905017
 104.3769987  76.2865006 105.1905017  98.2889987  74.2285006 107.0685017
  99.2459987  74.2285006 107.0685017  98.0489987  75.1555006 107.0685017
 107.7979987  74.6135006 102.4165017 108.7549987  74.6135006 102.4165017
 107.5579987  75.5405006 102.4165017 107.2569987  74.3465006 104.9045017
 108.2139987  74.3465006 104.9045017 107.0169987  75.2735006 104.9045017
  97.5479987  69.9285006 115.0345017  98.5049987  69.9285006 115.0345017
  97.3079987  70.8555006 115.0345017 100.2369987  58.3835006 111.0185017
 101.1939987  58.3835006 111.0185017  99.9969987  59.3105006 111.0185017
 104.8999987  58.0635006 114.3785017 105.8569987  58.0635006 114.3785017
 104.6599987  58.9905006 114.3785017 104.4829987  60.5945006 101.7245017
 105.4399987  60.5945006 101.7245017 104.2429987  61.5215006 101.7245017
 100.3129987  63.3605006 112.2155017 101.2699987  63.3605006 112.2155017
 100.0729987  64.2875006 112.2155017 100.2779987  63.5345006 107.0935017
 101.2349987  63.5345006 107.0935017 100.0379987  64.4615006 107.0935017
 105.7779987  63.9815006 105.8595017 106.7349987  63.9815006 105.8595017
 105.5379987  64.9085006 105.8595017 104.8979987  64.2195006 117.3555017
 105.8549987  64.2195006 117.3555017 104.6579987  65.1465006 117.3555017
 106.7849987  63.4465006 108.7035017 107.7419987  63.4465006 108.7035017
 106.5449987  64.3735006 108.7035017  97.9639987  63.6405006 113.9385017
  98.9209987  63.6405006 113.9385017  97.7239987  64.5675006 113.9385017
  94.4489987  60.7735006 107.8575017  95.4059987  60.7735006 107.8575017
  94.2089987  61.7005006 107.8575017  95.9179987  61.4995006 103.2835017
  96.8749987  61.4995006 103.2835017  95.6779987  62.4265006 103.2835017
 106.0439987  65.0685006 113.3175017 107.0009987  65.0685006 113.3175017
 105.8039987  65.9955006 113.3175017 102.8639987  61.0255006 108.1105017
 103.8209987  61.0255006 108.1105017 102.6239987  61.9525006 108.1105017
  97.7209987  62.7045006 106.8145017  98.6779987  62.7045006 106.8145017
  97.4809987  63.6315006 106.8145017 101.2869987  62.6425006 104.5785017
 102.2439987  62.6425006 104.5785017 101.0469987  63.5695006 104.5785017
 107.2399987  60.2185006 111.4145017 108.1969987  60.2185006 111.4145017
 106.9999987  61.1455006 111.4145017  98.1369987  68.3825006 117.2485017
  99.0939987  68.3825006 117.2485017  97.8969987  69.3095006 117.2485017
 104.0959987  63.7885006 109.9645017 105.0529987  63.7885006 109.9645017
 103.8559987  64.7155006 109.9645017  99.2229987  59.9655006 106.3165017
 100.1799987  59.9655006 106.3165017  98.9829987  60.8925006 106.3165017
 102.7579987  62.1315006 112.4215017 103.7149987  62.1315006 112.4215017
 102.5179987  63.0585006 112.4215017 103.3969987  68.2985006 104.1095017
 104.3539987  68.2985006 104.1095017 103.1569987  69.2255006 104.1095017
 107.1269987  61.1865006 102.6105017 108.0839987  61.1865006 102.6105017
 106.8869987  62.1135006 102.6105017 104.8409987  68.5785006 115.3485017
 105.7979987  68.5785006 115.3485017 104.6009987  69.5055006 115.3485017
   0.1359987  63.1945006 104.0615017   1.0929987  63.1945006 104.0615017
  -0.1040013  64.1215006 104.0615017  98.4589987  67.7265006 109.9095017
  99.4159987  67.7265006 109.9095017  98.2189987  68.6535006 109.9095017
 105.4619987  69.8045006 103.1445017 106.4189987  69.8045006 103.1445017
 105.2219987  70.7315006 103.1445017  95.4559987  66.1495006 115.1825017
  96.4129987  66.1495006 115.1825017  95.2159987  67.0765006 115.1825017
 102.4719987  65.7005006 117.3735017 103.4289987  65.7005006 117.3735017
 102.2319987  66.6275006 117.3735017 107.1539987  71.0745006 115.2835017
 108.1109987  71.0745006 115.2835017 106.9139987  72.0015006 115.2835017
 100.8219987  71.1925006 107.3235017 101.7789987  71.1925006 107.3235017
 100.5819987  72.1195006 107.3235017  96.6039987  66.0185006 101.8675017
  97.5609987  66.0185006 101.8675017  96.3639987  66.9455006 101.8675017
 102.2649987  68.8555006 106.8505017 103.2219987  68.8555006 106.8505017
 102.0249987  69.7825006 106.8505017 102.7069987  73.0335006 113.2145017
 103.6639987  73.0335006 113.2145017 102.4669987  73.9605006 113.2145017
 100.9599987  73.8445006 106.4405017 101.9169987  73.8445006 106.4405017
 100.7199987  74.7715006 106.4405017 106.2749987  69.0445006 112.8695017
 107.2319987  69.0445006 112.8695017 106.0349987  69.9715006 112.8695017
  97.1139987  60.8855006 114.7385017  98.0709987  60.8855006 114.7385017
  96.8739987  61.8125006 114.7385017  96.7279987  72.6795006 113.1635017
  97.6849987  72.6795006 113.1635017  96.4879987  73.6065006 113.1635017
  97.9839987  67.9615006 103.3435017  98.9409987  67.9615006 103.3435017
  97.7439987  68.8885006 103.3435017 105.8509987  60.6375006 113.6815017
 106.8079987  60.6375006 113.6815017 105.6109987  61.5645006 113.6815017
 106.2999987  60.4425006 104.8275017 107.2569987  60.4425006 104.8275017
 106.0599987  61.3695006 104.8275017 104.3099987  72.3965006 103.6015017
 105.2669987  72.3965006 103.6015017 104.0699987  73.3235006 103.6015017
 103.7669987  62.0325006 105.5725017 104.7239987  62.0325006 105.5725017
 103.5269987  62.9595006 105.5725017 104.3359987  62.9585006 114.7885017
 105.2929987  62.9585006 114.7885017 104.0959987  63.8855006 114.7885017
 104.7119987  59.0535006 106.5075017 105.6689987  59.0535006 106.5075017
 104.4719987  59.9805006 106.5075017 101.7119987  73.4475006 103.6385017
 102.6689987  73.4475006 103.6385017 101.4719987  74.3745006 103.6385017
 100.3319987  60.1675006 103.1645017 101.2889987  60.1675006 103.1645017
 100.0919987  61.0945006 103.1645017  97.7899987  57.9375006 110.1295017
  98.7469987  57.9375006 110.1295017  97.5499987  58.8645006 110.1295017
  96.6519987  71.9765006 106.2805017  97.6089987  71.9765006 106.2805017
  96.4119987  72.9035006 106.2805017  95.8949987  74.6085006 117.5475017
  96.8519987  74.6085006 117.5475017  95.6549987  75.5355006 117.5475017
 100.5549987  73.5275006 119.1575017 101.5119987  73.5275006 119.1575017
 100.3149987  74.4545006 119.1575017 104.5729987  72.9975006 100.6985017
 105.5299987  72.9975006 100.6985017 104.3329987  73.9245006 100.6985017
 107.1359987  71.9105006 117.8925017 108.0929987  71.9105006 117.8925017
 106.8959987  72.8375006 117.8925017  95.8149987  68.3915006 118.5325017
  96.7719987  68.3915006 118.5325017  95.5749987  69.3185006 118.5325017
 102.4999987  68.3705006 117.9355017 103.4569987  68.3705006 117.9355017
 102.2599987  69.2975006 117.9355017 105.4999987  69.8025006 100.4945017
 106.4569987  69.8025006 100.4945017 105.2599987  70.7295006 100.4945017
  96.7069987  65.6105006 117.9195017  97.6639987  65.6105006 117.9195017
  96.4669987  66.5375006 117.9195017 101.3559987  66.7315006 102.9465017
 102.3129987  66.7315006 102.9465017 101.1159987  67.6585006 102.9465017
 100.6179987  64.5665006 115.2855017 101.5749987  64.5665006 115.2855017
 100.3779987  65.4935006 115.2855017 105.6769987  67.1075006 118.6315017
 106.6339987  67.1075006 118.6315017 105.4369987  68.0345006 118.6315017
 101.0099987  61.9405006 116.3535017 101.9669987  61.9405006 116.3535017
 100.7699987  62.8675006 116.3535017 101.4089987  60.3145006 113.8865017
 102.3659987  60.3145006 113.8865017 101.1689987  61.2415006 113.8865017
 102.9789987  65.7865006 114.1335017 103.9359987  65.7865006 114.1335017
 102.7389987  66.7135006 114.1335017 107.3909987  63.5835006 119.2115017
 108.3479987  63.5835006 119.2115017 107.1509987  64.5105006 119.2115017
  99.4639987  63.1825006 118.2715017 100.4209987  63.1825006 118.2715017
  99.2239987  64.1095006 118.2715017 102.2149987  57.7635006 114.2895017
 103.1719987  57.7635006 114.2895017 101.9749987  58.6905006 114.2895017
 103.4749987  62.0925006 117.8915017 104.4319987  62.0925006 117.8915017
 103.2349987  63.0195006 117.8915017 106.1369987  61.1935006 116.9465017
 107.0939987  61.1935006 116.9465017 105.8969987  62.1205006 116.9465017
 107.7729987  59.8915006 118.8865017 108.7299987  59.8915006 118.8865017
 107.5329987  60.8185006 118.8865017  97.5659987  61.1085006 118.0005017
  98.5229987  61.1085006 118.0005017  97.3259987  62.0355006 118.0005017
 102.4129987  57.1245006 116.9835017 103.3699987  57.1245006 116.9835017
 102.1729987  58.0515006 116.9835017 102.7809987  58.7555006 119.0685017
 103.7379987  58.7555006 119.0685017 102.5409987  59.6825006 119.0685017
 102.2759987  75.6805006 102.2385017 103.2329987  75.6805006 102.2385017
 102.0359987  76.6075006 102.2385017  94.5659987  75.6475006 106.7365017
  95.5229987  75.6475006 106.7365017  94.3259987  76.5745006 106.7365017
  95.4069987  73.7565006 108.5715017  96.3639987  73.7565006 108.5715017
  95.1669987  74.6835006 108.5715017  95.4619987  66.8385006 111.0575017
  96.4189987  66.8385006 111.0575017  95.2219987  67.7655006 111.0575017
  95.0739987  62.1375006 117.2035017  96.0309987  62.1375006 117.2035017
  94.8339987  63.0645006 117.2035017  96.1549987  60.4775006 110.8405017
  97.1119987  60.4775006 110.8405017  95.9149987  61.4045006 110.8405017
  94.5519987  63.4405006 111.1065017  95.5089987  63.4405006 111.1065017
  94.3119987  64.3675006 111.1065017  94.9069987  59.6685006 105.1485017
  95.8639987  59.6685006 105.1485017  94.6669987  60.5955006 105.1485017
  94.8759987  58.3625006 113.5035017  95.8329987  58.3625006 113.5035017
  94.6359987  59.2895006 113.5035017  97.1059987  71.5515006 117.6475017
  98.0629987  71.5515006 117.6475017  96.8659987  72.4785006 117.6475017
 100.0169987  72.5455006 113.9195017 100.9739987  72.5455006 113.9195017
  99.7769987  73.4725006 113.9195017 104.3349987  73.9785006 116.8615017
 105.2919987  73.9785006 116.8615017 104.0949987  74.9055006 116.8615017
 106.6879987  75.2815006 116.0885017 107.6449987  75.2815006 116.0885017
 106.4479987  76.2085006 116.0885017  97.4429987  75.7945006 113.9315017
  98.3999987  75.7945006 113.9315017  97.2029987  76.7215006 113.9315017
  99.9139987  75.3755006 112.9945017 100.8709987  75.3755006 112.9945017
  99.6739987  76.3025006 112.9945017 104.6129987  75.2915006 112.1505017
 105.5699987  75.2915006 112.1505017 104.3729987  76.2185006 112.1505017
 106.9409987  74.1505006 113.1825017 107.8979987  74.1505006 113.1825017
 106.7009987  75.0775006 113.1825017  96.8789987  74.4425006 110.8615017
  97.8359987  74.4425006 110.8615017  96.6389987  75.3695006 110.8615017
  98.9729987  73.1535006 109.5155017  99.9299987  73.1535006 109.5155017
  98.7329987  74.0805006 109.5155017 101.5749987  73.6445006 110.3725017
 102.5319987  73.6445006 110.3725017 101.3349987  74.5715006 110.3725017
 105.0119987  59.2785006 109.5065017 105.9689987  59.2785006 109.5065017
 104.7719987  60.2055006 109.5065017  97.5109987  57.6865006 107.0615017
  98.4679987  57.6865006 107.0615017  97.2709987  58.6135006 107.0615017
  96.1459987  57.6795006 103.0775017  97.1029987  57.6795006 103.0775017
  95.9059987  58.6065006 103.0775017 101.9269987  57.8065006 107.1445017
 102.8839987  57.8065006 107.1445017 101.6869987  58.7335006 107.1445017
 107.4679987  57.7825006 108.9595017 108.4249987  57.7825006 108.9595017
 107.2279987  58.7095006 108.9595017  96.0629987  73.6305006 104.1015017
  97.0199987  73.6305006 104.1015017  95.8229987  74.5575006 104.1015017
  98.0539987  59.6545006 101.5705017  99.0109987  59.6545006 101.5705017
  97.8139987  60.5815006 101.5705017 103.0049987  59.8805006 104.0465017
 103.9619987  59.8805006 104.0465017 102.7649987  60.8075006 104.0465017
 104.9499987  74.9235006 102.4675017 105.9069987  74.9235006 102.4675017
 104.7099987  75.8505006 102.4675017  97.2919987  58.4495006 116.8305017
  98.2489987  58.4495006 116.8305017  97.0519987  59.3765006 116.8305017
  99.2959987  57.8235006 118.4435017 100.2529987  57.8235006 118.4435017
  99.0559987  58.7505006 118.4435017  -0.0860013  57.1875006 118.6345017
   0.8709987  57.1875006 118.6345017  -0.3260013  58.1145006 118.6345017
  12.2059987  85.9085006 107.2485017  13.1629987  85.9085006 107.2485017
  11.9659987  86.8355006 107.2485017  11.0749987  85.1715006 110.7335017
  12.0319987  85.1715006 110.7335017  10.8349987  86.0985006 110.7335017
   3.4769987  84.8035006 112.2665017   4.4339987  84.8035006 112.2665017
   3.2369987  85.7305006 112.2665017  14.7709987  88.1135006 109.0125017
  15.7279987  88.1135006 109.0125017  14.5309987  89.0405006 109.0125017
   4.3289987  89.2525006 110.8485017   5.2859987  89.2525006 110.8485017
   4.0889987  90.1795006 110.8485017   1.0729987  82.9545006 106.2005017
   2.0299987  82.9545006 106.2005017   0.8329987  83.8815006 106.2005017
   1.6879987  85.0395006 108.3875017   2.6449987  85.0395006 108.3875017
   1.4479987  85.9665006 108.3875017  11.8909987  93.2705006 109.2485017
  12.8479987  93.2705006 109.2485017  11.6509987  94.1975006 109.2485017
   9.4489987  87.5615006 111.1965017  10.4059987  87.5615006 111.1965017
   9.2089987  88.4885006 111.1965017  18.0669987  79.2125006 111.9465017
  19.0239987  79.2125006 111.9465017  17.8269987  80.1395006 111.9465017
  12.6129987  82.0325006 111.5045017  13.5699987  82.0325006 111.5045017
  12.3729987  82.9595006 111.5045017   5.7299987  80.1125006 108.7255017
   6.6869987  80.1125006 108.7255017   5.4899987  81.0395006 108.7255017
  13.4719987  80.2075006 107.1075017  14.4289987  80.2075006 107.1075017
  13.2319987  81.1345006 107.1075017   2.5409987  82.5725006 109.3765017
   3.4979987  82.5725006 109.3765017   2.3009987  83.4995006 109.3765017
   7.5219987  84.0805006 108.7565017   8.4789987  84.0805006 108.7565017
   7.2819987  85.0075006 108.7565017  18.5029987  80.6455006 114.1965017
  19.4599987  80.6455006 114.1965017  18.2629987  81.5725006 114.1965017
   4.6289987  79.0235006 112.7935017   5.5859987  79.0235006 112.7935017
   4.3889987  79.9505006 112.7935017  11.9429987  88.5045006 106.3245017
  12.8999987  88.5045006 106.3245017  11.7029987  89.4315006 106.3245017
   7.1549987  86.6715006 113.0365017   8.1119987  86.6715006 113.0365017
   6.9149987  87.5985006 113.0365017  15.2579987  79.5475006 109.1035017
  16.2149987  79.5475006 109.1035017  15.0179987  80.4745006 109.1035017
   4.2039987  80.8585006 110.8085017   5.1609987  80.8585006 110.8085017
   3.9639987  81.7855006 110.8085017   5.5939987  88.6585006 113.8365017
   6.5509987  88.6585006 113.8365017   5.3539987  89.5855006 113.8365017
   1.6709987  88.2955006 104.6345017   2.6279987  88.2955006 104.6345017
   1.4309987  89.2225006 104.6345017  15.2959987  89.9455006 111.3825017
  16.2529987  89.9455006 111.3825017  15.0559987  90.8725006 111.3825017
  15.6099987  78.2355006 112.7805017  16.5669987  78.2355006 112.7805017
  15.3699987  79.1625006 112.7805017   8.5909987  76.3445006 110.2515017
   9.5479987  76.3445006 110.2515017   8.3509987  77.2715006 110.2515017
  13.5589987  91.7315006 108.0105017  14.5159987  91.7315006 108.0105017
  13.3189987  92.6585006 108.0105017  14.7649987  89.6555006 106.4865017
  15.7219987  89.6555006 106.4865017  14.5249987  90.5825006 106.4865017
  16.3839987  88.2395006 114.9885017  17.3409987  88.2395006 114.9885017
  16.1439987  89.1665006 114.9885017  10.8909987  85.1345006 104.7415017
  11.8479987  85.1345006 104.7415017  10.6509987  86.0615006 104.7415017
  10.9489987  83.6495006 101.7985017  11.9059987  83.6495006 101.7985017
  10.7089987  84.5765006 101.7985017  18.2589987  84.5535006 113.0415017
  19.2159987  84.5535006 113.0415017  18.0189987  85.4805006 113.0415017
  14.2939987  85.3315006 105.6575017  15.2509987  85.3315006 105.6575017
  14.0539987  86.2585006 105.6575017  14.2339987  83.5215006 114.7835017
  15.1909987  83.5215006 114.7835017  13.9939987  84.4485006 114.7835017
   5.9299987  86.0195006 107.5955017   6.8869987  86.0195006 107.5955017
   5.6899987  86.9465006 107.5955017   7.2269987  89.3605006 110.3155017
   8.1839987  89.3605006 110.3155017   6.9869987  90.2875006 110.3155017
   6.2859987  84.7655006 111.2405017   7.2429987  84.7655006 111.2405017
   6.0459987  85.6925006 111.2405017  12.6719987  90.3195006 111.9565017
  13.6289987  90.3195006 111.9565017  12.4319987  91.2465006 111.9565017
   7.2039987  89.1845006 115.9405017   8.1609987  89.1845006 115.9405017
   6.9639987  90.1115006 115.9405017  13.2239987  84.4805006 103.3315017
  14.1809987  84.4805006 103.3315017  12.9839987  85.4075006 103.3315017
   4.1249987  85.3555006 115.1345017   5.0819987  85.3555006 115.1345017
   3.8849987  86.2825006 115.1345017  10.9549987  91.2955006 106.7655017
  11.9119987  91.2955006 106.7655017  10.7149987  92.2225006 106.7655017
   5.4539987  91.2325006 116.6975017   6.4109987  91.2325006 116.6975017
   5.2139987  92.1595006 116.6975017  16.8899987  76.2785006 103.2445017
  17.8469987  76.2785006 103.2445017  16.6499987  77.2055006 103.2445017
   4.9479987  85.0475006 105.1435017   5.9049987  85.0475006 105.1435017
   4.7079987  85.9745006 105.1435017   1.1219987  87.4415006 114.0225017
   2.0789987  87.4415006 114.0225017   0.8819987  88.3685006 114.0225017
   1.0069987  90.3375006 110.5975017   1.9639987  90.3375006 110.5975017
   0.7669987  91.2645006 110.5975017  18.9889987  90.9035006 116.5615017
  19.9459987  90.9035006 116.5615017  18.7489987  91.8305006 116.5615017
   9.9579987  90.4335006 115.4485017  10.9149987  90.4335006 115.4485017
   9.7179987  91.3605006 115.4485017  10.4079987  94.1955006 105.2235017
  11.3649987  94.1955006 105.2235017  10.1679987  95.1225006 105.2235017
   4.0049987  93.0695006 107.0295017   4.9619987  93.0695006 107.0295017
   3.7649987  93.9965006 107.0295017  13.1279987  93.3485006 105.0175017
  14.0849987  93.3485006 105.0175017  12.8879987  94.2755006 105.0175017
  16.1269987  82.3775006 117.0415017  17.0839987  82.3775006 117.0415017
  15.8869987  83.3045006 117.0415017   3.2639987  88.8105006 115.0495017
   4.2209987  88.8105006 115.0495017   3.0239987  89.7375006 115.0495017
   5.9379987  77.2545006 110.9905017   6.8949987  77.2545006 110.9905017
   5.6979987  78.1815006 110.9905017  10.5829987  76.9345006 114.3665017
  11.5399987  76.9345006 114.3665017  10.3429987  77.8615006 114.3665017
  13.8779987  80.7475006 115.2445017  14.8349987  80.7475006 115.2445017
  13.6379987  81.6745006 115.2445017   6.0449987  82.2155006 112.2135017
   7.0019987  82.2155006 112.2135017   5.8049987  83.1425006 112.2135017
   5.9759987  82.3805006 107.0895017   6.9329987  82.3805006 107.0895017
   5.7359987  83.3075006 107.0895017  11.5079987  82.8185006 105.8495017
  12.4649987  82.8185006 105.8495017  11.2679987  83.7455006 105.8495017
  10.6059987  83.0475006 117.3265017  11.5629987  83.0475006 117.3265017
  10.3659987  83.9745006 117.3265017  12.5519987  82.3215006 108.7095017
  13.5089987  82.3215006 108.7095017  12.3119987  83.2485006 108.7095017
   3.7019987  82.4905006 113.9515017   4.6589987  82.4905006 113.9515017
   3.4619987  83.4175006 113.9515017   0.4299987  78.8955006 108.2175017
   1.3869987  78.8955006 108.2175017   0.1899987  79.8225006 108.2175017
   1.8139987  80.3405006 103.3275017   2.7709987  80.3405006 103.3275017
   1.5739987  81.2675006 103.3275017  11.7689987  83.9275006 113.2985017
  12.7259987  83.9275006 113.2985017  11.5289987  84.8545006 113.2985017
   8.5589987  79.8855006 108.1165017   9.5159987  79.8855006 108.1165017
   8.3189987  80.8125006 108.1165017   3.3909987  81.4545006 106.9385017
   4.3479987  81.4545006 106.9385017   3.1509987  82.3815006 106.9385017
   7.0009987  81.5015006 104.6185017   7.9579987  81.5015006 104.6185017
   6.7609987  82.4285006 104.6185017  12.9709987  79.1205006 111.3625017
  13.9279987  79.1205006 111.3625017  12.7309987  80.0475006 111.3625017
   5.7109987  82.7265006 102.1695017   6.6679987  82.7265006 102.1695017
   5.4709987  83.6535006 102.1695017  16.1869987  94.7715006 117.6775017
  17.1439987  94.7715006 117.6775017  15.9469987  95.6985006 117.6775017
   3.8569987  87.2165006 117.2605017   4.8139987  87.2165006 117.2605017
   3.6169987  88.1435006 117.2605017   9.8579987  82.6505006 110.0075017
  10.8149987  82.6505006 110.0075017   9.6179987  83.5775006 110.0075017
   4.8559987  78.7995006 106.4265017   5.8129987  78.7995006 106.4265017
   4.6159987  79.7265006 106.4265017   8.4939987  80.9885006 112.4205017
   9.4509987  80.9885006 112.4205017   8.2539987  81.9155006 112.4205017
   9.0709987  87.2045006 104.0965017  10.0279987  87.2045006 104.0965017
   8.8309987  88.1315006 104.0965017  16.2429987  86.3905006 112.9195017
  17.1999987  86.3905006 112.9195017  16.0029987  87.3175006 112.9195017
  12.8999987  80.0645006 102.2445017  13.8569987  80.0645006 102.2445017
  12.6599987  80.9915006 102.2445017  10.5669987  87.4535006 115.3545017
  11.5239987  87.4535006 115.3545017  10.3269987  88.3805006 115.3545017
  13.6829987  81.9005006 103.9295017  14.6399987  81.9005006 103.9295017
  13.4429987  82.8275006 103.9295017   4.1799987  86.5855006 109.9085017
   5.1369987  86.5855006 109.9085017   3.9399987  87.5125006 109.9085017
   1.1629987  85.0065006 115.1925017   2.1199987  85.0065006 115.1925017
   0.9229987  85.9335006 115.1925017   8.1889987  84.5575006 117.3755017
   9.1459987  84.5575006 117.3755017   7.9489987  85.4845006 117.3755017
  12.8599987  89.8895006 115.2975017  13.8169987  89.8895006 115.2975017
  12.6199987  90.8165006 115.2975017  18.5489987  82.0835006 103.6795017
  19.5059987  82.0835006 103.6795017  18.3089987  83.0105006 103.6795017
  18.5249987  87.9325006 116.5185017  19.4819987  87.9325006 116.5185017
  18.2849987  88.8595006 116.5185017  16.8279987  90.9185006 104.0855017
  17.7849987  90.9185006 104.0855017  16.5879987  91.8455006 104.0855017
  14.0339987  85.7255006 111.1925017  14.9909987  85.7255006 111.1925017
  13.7939987  86.6525006 111.1925017   6.5129987  89.8235006 106.9885017
   7.4699987  89.8235006 106.9885017   6.2729987  90.7505006 106.9885017
   8.0169987  87.6925006 106.8655017   8.9739987  87.6925006 106.8655017
   7.7769987  88.6195006 106.8655017   8.4279987  91.8875006 113.2875017
   9.3849987  91.8875006 113.2875017   8.1879987  92.8145006 113.2875017
   6.5419987  93.0755006 105.8485017   7.4989987  93.0755006 105.8485017
   6.3019987  94.0025006 105.8485017  11.9739987  87.9215006 112.8495017
  12.9309987  87.9215006 112.8495017  11.7339987  88.8485006 112.8495017
  14.2349987  88.9205006 101.9315017  15.1919987  88.9205006 101.9315017
  13.9949987  89.8475006 101.9315017  14.7449987  92.4915006 115.3505017
  15.7019987  92.4915006 115.3505017  14.5049987  93.4185006 115.3505017
   2.8079987  79.7395006 114.7375017   3.7649987  79.7395006 114.7375017
   2.5679987  80.6665006 114.7375017  15.0589987  87.5795006 104.1875017
  16.0159987  87.5795006 104.1875017  14.8189987  88.5065006 104.1875017
   2.4779987  91.5415006 113.1425017   3.4349987  91.5415006 113.1425017
   2.2379987  92.4685006 113.1425017  11.5529987  79.5065006 113.6695017
  12.5099987  79.5065006 113.6695017  11.3129987  80.4335006 113.6695017
  12.3089987  79.1155006 104.7465017  13.2659987  79.1155006 104.7465017
  12.0689987  80.0425006 104.7465017  10.0039987  91.2685006 103.5415017
  10.9609987  91.2685006 103.5415017   9.7639987  92.1955006 103.5415017
   9.5249987  80.8565006 105.5675017  10.4819987  80.8565006 105.5675017
   9.2849987  81.7835006 105.5675017  10.0809987  81.8545006 114.7765017
  11.0379987  81.8545006 114.7765017   9.8409987  82.7815006 114.7765017
  10.4069987  77.9035006 106.5065017  11.3639987  77.9035006 106.5065017
  10.1669987  78.8305006 106.5065017   7.3569987  92.2985006 103.5325017
   8.3139987  92.2985006 103.5325017   7.1169987  93.2255006 103.5325017
   6.0879987  79.0265006 103.1505017   7.0449987  79.0265006 103.1505017
   5.8479987  79.9535006 103.1505017  16.2779987  79.7245006 115.6275017
  17.2349987  79.7245006 115.6275017  16.0379987  80.6515006 115.6275017
  14.8759987  83.5165006 109.6545017  15.8329987  83.5165006 109.6545017
  14.6359987  84.4435006 109.6545017  15.9429987  92.7645006 111.3165017
  16.8999987  92.7645006 111.3165017  15.7029987  93.6915006 111.3165017
   3.4689987  76.8965006 110.0915017   4.4259987  76.8965006 110.0915017
   3.2289987  77.8235006 110.0915017   2.3589987  90.8285006 106.2695017
   3.3159987  90.8285006 106.2695017   2.1189987  91.7555006 106.2695017
   1.7209987  93.4125006 117.4775017   2.6779987  93.4125006 117.4775017
   1.4809987  94.3395006 117.4775017   6.2689987  92.3705006 119.1625017
   7.2259987  92.3705006 119.1625017   6.0289987  93.2975006 119.1625017
  12.8019987  90.7625006 117.8945017  13.7589987  90.7625006 117.8945017
  12.5619987  91.6895006 117.8945017   1.5329987  87.2375006 118.5335017
   2.4899987  87.2375006 118.5335017   1.2929987  88.1645006 118.5335017
   5.9279987  87.5625006 100.5985017   6.8849987  87.5625006 100.5985017
   5.6879987  88.4895006 100.5985017   8.2309987  87.2265006 117.9295017
   9.1879987  87.2265006 117.9295017   7.9909987  88.1535006 117.9295017
  13.9349987  87.0965006 115.3165017  14.8919987  87.0965006 115.3165017
  13.6949987  88.0235006 115.3165017   2.3689987  84.4445006 117.9115017
   3.3259987  84.4445006 117.9115017   2.1289987  85.3715006 117.9115017
   7.0459987  85.5775006 102.9315017   8.0029987  85.5775006 102.9315017
   6.8059987  86.5045006 102.9315017   6.3369987  83.4235006 115.2865017
   7.2939987  83.4235006 115.2865017   6.0969987  84.3505006 115.2865017
  11.3999987  85.9635006 118.6015017  12.3569987  85.9635006 118.6015017
  11.1599987  86.8905006 118.6015017   6.7339987  80.7975006 116.3525017
   7.6909987  80.7975006 116.3525017   6.4939987  81.7245006 116.3525017
   7.1309987  79.1745006 113.8865017   8.0879987  79.1745006 113.8865017
   6.8909987  80.1015006 113.8865017   8.6799987  84.6425006 114.1325017
   9.6369987  84.6425006 114.1325017   8.4399987  85.5695006 114.1325017
  13.0779987  82.4245006 119.1115017  14.0349987  82.4245006 119.1115017
  12.8379987  83.3515006 119.1115017  14.4049987  85.2035006 117.2395017
  15.3619987  85.2035006 117.2395017  14.1649987  86.1305006 117.2395017
   5.1809987  82.0455006 118.2625017   6.1379987  82.0455006 118.2625017
   4.9409987  82.9725006 118.2625017   7.9129987  76.6195006 114.2975017
   8.8699987  76.6195006 114.2975017   7.6729987  77.5465006 114.2975017
   9.1959987  80.9445006 117.8925017  10.1529987  80.9445006 117.8925017
   8.9559987  81.8715006 117.8925017  11.9129987  80.0815006 116.9665017
  12.8699987  80.0815006 116.9665017  11.6729987  81.0085006 116.9665017
  13.3829987  78.7005006 118.8855017  14.3399987  78.7005006 118.8855017
  13.1429987  79.6275006 118.8855017   3.3269987  79.9705006 118.0095017
   4.2839987  79.9705006 118.0095017   3.0869987  80.8975006 118.0095017
   8.1369987  75.9795006 116.9835017   9.0939987  75.9795006 116.9835017
   7.8969987  76.9065006 116.9835017   8.5019987  77.6125006 119.0725017
   9.4589987  77.6125006 119.0725017   8.2619987  78.5395006 119.0725017
   8.0039987  94.5025006 102.1985017   8.9609987  94.5025006 102.1985017
   7.7639987  95.4295006 102.1985017 108.0779987  94.5585006 106.7325017
 109.0349987  94.5585006 106.7325017 107.8379987  95.4855006 106.7325017
   1.5049987  92.7675006 108.6745017   2.4619987  92.7675006 108.6745017
   1.2649987  93.6945006 108.6745017  18.6619987  93.4155006 111.5165017
  19.6189987  93.4155006 111.5165017  18.4219987  94.3425006 111.5165017
  18.2379987  93.0125006 114.4595017  19.1949987  93.0125006 114.4595017
  17.9979987  93.9395006 114.4595017  16.6839987  88.7445006 119.1145017
  17.6409987  88.7445006 119.1145017  16.4439987  89.6715006 119.1145017
  17.9559987  87.1095006 104.6245017  18.9129987  87.1095006 104.6245017
  17.7159987  88.0365006 104.6245017  18.3699987  85.1145006 106.4335017
  19.3269987  85.1145006 106.4335017  18.1299987  86.0415006 106.4335017
  18.1199987  87.8425006 111.4215017  19.0769987  87.8425006 111.4215017
  17.8799987  88.7695006 111.4215017  16.6659987  90.7385006 113.7025017
  17.6229987  90.7385006 113.7025017  16.4259987  91.6655006 113.7025017
  16.1729987  83.6035006 106.9965017  17.1299987  83.6035006 106.9965017
  15.9329987  84.5305006 106.9965017   1.1829987  85.6825006 111.0645017
   2.1399987  85.6825006 111.0645017   0.9429987  86.6095006 111.0645017
  17.0229987  85.5845006 116.6755017  17.9799987  85.5845006 116.6755017
  16.7829987  86.5115006 116.6755017  18.5449987  83.4845006 117.3075017
  19.5019987  83.4845006 117.3075017  18.3049987  84.4115006 117.3075017
  15.8429987  81.1985006 105.4375017  16.7999987  81.1985006 105.4375017
  15.6029987  82.1255006 105.4375017  16.4819987  81.7395006 110.9075017
  17.4389987  81.7395006 110.9075017  16.2419987  82.6665006 110.9075017
  16.5489987  82.4665006 113.6955017  17.5059987  82.4665006 113.6955017
  16.3089987  83.3935006 113.6955017   0.8819987  80.9525006 117.1245017
   1.8389987  80.9525006 117.1245017   0.6419987  81.8795006 117.1245017
  18.8149987  76.4875006 119.0335017  19.7719987  76.4875006 119.0335017
  18.5749987  77.4145006 119.0335017  16.4939987  78.4885006 105.5215017
  17.4509987  78.4885006 105.5215017  16.2539987  79.4155006 105.5215017
   2.0849987  79.3135006 110.0535017   3.0419987  79.3135006 110.0535017
   1.8449987  80.2405006 110.0535017   0.8919987  82.2445006 111.2675017
   1.8489987  82.2445006 111.2675017   0.6519987  83.1715006 111.2675017
  18.3589987  78.5775006 117.3675017  19.3159987  78.5775006 117.3675017
  18.1189987  79.5045006 117.3675017  18.3699987  78.5345006 102.0795017
  19.3269987  78.5345006 102.0795017  18.1299987  79.4615006 102.0795017
   0.8869987  78.4935006 105.2155017   1.8439987  78.4935006 105.2155017
   0.6469987  79.4205006 105.2155017  15.3869987  93.5055006 107.1195017
  16.3439987  93.5055006 107.1195017  15.1469987  94.4325006 107.1195017
 108.3289987  77.2025006 113.5165017 109.2859987  77.2025006 113.5165017
 108.0889987  78.1295006 113.5165017   2.8299987  90.4405006 117.6625017
   3.7869987  90.4405006 117.6625017   2.5899987  91.3675006 117.6625017
   5.7419987  91.4045006 113.9385017   6.6989987  91.4045006 113.9385017
   5.5019987  92.3315006 113.9385017  10.0559987  92.8265006 116.8325017
  11.0129987  92.8265006 116.8325017   9.8159987  93.7535006 116.8325017
  12.3549987  94.0965006 116.1265017  13.3119987  94.0965006 116.1265017
  12.1149987  95.0235006 116.1265017  17.3559987  76.7195006 115.2325017
  18.3129987  76.7195006 115.2325017  17.1159987  77.6465006 115.2325017
   3.1469987  94.6605006 113.9515017   4.1039987  94.6605006 113.9515017
   2.9069987  95.5875006 113.9515017   5.6489987  94.2575006 113.0215017
   6.6059987  94.2575006 113.0215017   5.4089987  95.1845006 113.0215017
  10.3609987  94.1475006 112.1675017  11.3179987  94.1475006 112.1675017
  10.1209987  95.0745006 112.1675017  12.6549987  92.9715006 113.1705017
  13.6119987  92.9715006 113.1705017  12.4149987  93.8985006 113.1705017
  15.2249987  94.5395006 113.4175017  16.1819987  94.5395006 113.4175017
  14.9849987  95.4665006 113.4175017   2.6039987  93.3405006 110.9335017
   3.5609987  93.3405006 110.9335017   2.3639987  94.2675006 110.9335017
   4.4769987  92.0055006 109.7615017   5.4339987  92.0055006 109.7615017
   4.2369987  92.9325006 109.7615017   7.5799987  92.6195006 110.9515017
   8.5369987  92.6195006 110.9515017   7.3399987  93.5465006 110.9515017
  10.7569987  78.1405006 109.5325017  11.7139987  78.1405006 109.5325017
  10.5169987  79.0675006 109.5325017  15.8899987  76.1975006 109.6175017
  16.8469987  76.1975006 109.6175017  15.6499987  77.1245006 109.6175017
  17.5699987  77.4235006 107.9055017  18.5269987  77.4235006 107.9055017
  17.3299987  78.3505006 107.9055017   3.1069987  76.7605006 107.3615017
   4.0639987  76.7605006 107.3615017   2.8669987  77.6875006 107.3615017
   1.9489987  76.5545006 103.2135017   2.9059987  76.5545006 103.2135017
   1.7089987  77.4815006 103.2135017   7.6099987  76.6845006 107.1605017
   8.5669987  76.6845006 107.1605017   7.3699987  77.6115006 107.1605017
  13.2819987  76.7175006 108.7945017  14.2389987  76.7175006 108.7945017
  13.0419987  77.6445006 108.7945017  14.5789987  76.7435006 104.4725017
  15.5359987  76.7435006 104.4725017  14.3389987  77.6705006 104.4725017
   1.9129987  92.5085006 104.0975017   2.8699987  92.5085006 104.0975017
   1.6729987  93.4355006 104.0975017  17.3939987  93.3025006 105.1375017
  18.3509987  93.3025006 105.1375017  17.1539987  94.2295006 105.1375017
   2.9949987  77.3075006 116.8265017   3.9519987  77.3075006 116.8265017
   2.7549987  78.2345006 116.8265017   5.0119987  76.6865006 118.4425017
   5.9689987  76.6865006 118.4425017   4.7719987  77.6135006 118.4425017
  13.4269987  75.9675006 118.6075017  14.3839987  75.9675006 118.6075017
  13.1869987  76.8945006 118.6075017  16.6249987  92.0245006 117.2615017
  17.5819987  92.0245006 117.2615017  16.3849987  92.9515006 117.2615017
  31.0259987  85.9065006 107.3065017  31.9829987  85.9065006 107.3065017
  30.7859987  86.8335006 107.3065017  29.9239987  85.1725006 110.7395017
  30.8809987  85.1725006 110.7395017  29.6839987  86.0995006 110.7395017
  22.2839987  84.8265006 112.2905017  23.2409987  84.8265006 112.2905017
  22.0439987  85.7535006 112.2905017  33.6279987  88.1115006 109.0115017
  34.5849987  88.1115006 109.0115017  33.3879987  89.0385006 109.0115017
  23.2109987  89.2755006 110.8125017  24.1679987  89.2755006 110.8125017
  22.9709987  90.2025006 110.8125017  19.8559987  82.8485006 106.2715017
  20.8129987  82.8485006 106.2715017  19.6159987  83.7755006 106.2715017
  20.5489987  85.0675006 108.3935017  21.5059987  85.0675006 108.3935017
  20.3089987  85.9945006 108.3935017  30.7379987  93.2605006 109.2485017
  31.6949987  93.2605006 109.2485017  30.4979987  94.1875006 109.2485017
  28.3039987  87.5785006 111.1795017  29.2609987  87.5785006 111.1795017
  28.0639987  88.5055006 111.1795017  36.9239987  79.2125006 111.9475017
  37.8809987  79.2125006 111.9475017  36.6839987  80.1395006 111.9475017
  31.4689987  82.0315006 111.5045017  32.4259987  82.0315006 111.5045017
  31.2289987  82.9585006 111.5045017  24.5919987  80.1165006 108.7365017
  25.5489987  80.1165006 108.7365017  24.3519987  81.0435006 108.7365017
  32.3299987  80.2025006 107.0985017  33.2869987  80.2025006 107.0985017
  32.0899987  81.1295006 107.0985017  21.2149987  82.5275006 109.4785017
  22.1719987  82.5275006 109.4785017  20.9749987  83.4545006 109.4785017
  26.3779987  84.0815006 108.7695017  27.3349987  84.0815006 108.7695017
  26.1379987  85.0085006 108.7695017  37.3579987  80.6455006 114.2055017
  38.3149987  80.6455006 114.2055017  37.1179987  81.5725006 114.2055017
  23.4779987  79.0175006 112.7825017  24.4349987  79.0175006 112.7825017
  23.2379987  79.9445006 112.7825017  30.7829987  88.5135006 106.3465017
  31.7399987  88.5135006 106.3465017  30.5429987  89.4405006 106.3465017
  26.0099987  86.6655006 113.0375017  26.9669987  86.6655006 113.0375017
  25.7699987  87.5925006 113.0375017  34.1059987  79.5505006 109.0975017
  35.0629987  79.5505006 109.0975017  33.8659987  80.4775006 109.0975017
  23.0399987  80.8865006 110.7895017  23.9969987  80.8865006 110.7895017
  22.7999987  81.8135006 110.7895017  24.4469987  88.6555006 113.8475017
  25.4039987  88.6555006 113.8475017  24.2069987  89.5825006 113.8475017
  20.5289987  88.3135006 104.6275017  21.4859987  88.3135006 104.6275017
  20.2889987  89.2405006 104.6275017  34.1499987  89.9495006 111.3855017
  35.1069987  89.9495006 111.3855017  33.9099987  90.8765006 111.3855017
  34.4629987  78.2405006 112.7785017  35.4199987  78.2405006 112.7785017
  34.2229987  79.1675006 112.7785017  27.4469987  76.3475006 110.2405017
  28.4039987  76.3475006 110.2405017  27.2069987  77.2745006 110.2405017
  32.3919987  91.7235006 107.9755017  33.3489987  91.7235006 107.9755017
  32.1519987  92.6505006 107.9755017  33.6039987  89.6625006 106.4895017
  34.5609987  89.6625006 106.4895017  33.3639987  90.5895006 106.4895017
  35.2399987  88.2385006 114.9885017  36.1969987  88.2385006 114.9885017
  34.9999987  89.1655006 114.9885017  29.7349987  85.1675006 104.7575017
  30.6919987  85.1675006 104.7575017  29.4949987  86.0945006 104.7575017
  37.1159987  84.5535006 113.0425017  38.0729987  84.5535006 113.0425017
  36.8759987  85.4805006 113.0425017  33.1989987  85.4055006 105.7145017
  34.1559987  85.4055006 105.7145017  32.9589987  86.3325006 105.7145017
  33.0919987  83.5215006 114.7875017  34.0489987  83.5215006 114.7875017
  32.8519987  84.4485006 114.7875017  24.7859987  86.0225006 107.5885017
  25.7429987  86.0225006 107.5885017  24.5459987  86.9495006 107.5885017
  26.1139987  89.4155006 110.2705017  27.0709987  89.4155006 110.2705017
  25.8739987  90.3425006 110.2705017  25.1229987  84.7615006 111.2395017
  26.0799987  84.7615006 111.2395017  24.8829987  85.6885006 111.2395017
  31.5009987  90.3245006 111.9435017  32.4579987  90.3245006 111.9435017
  31.2609987  91.2515006 111.9435017  26.0619987  89.1845006 115.9435017
  27.0189987  89.1845006 115.9435017  25.8219987  90.1115006 115.9435017
  22.9969987  85.3525006 115.1195017  23.9539987  85.3525006 115.1195017
  22.7569987  86.2795006 115.1195017  29.7599987  91.2735006 106.8195017
  30.7169987  91.2735006 106.8195017  29.5199987  92.2005006 106.8195017
  24.3029987  91.2355006 116.6975017  25.2599987  91.2355006 116.6975017
  24.0629987  92.1625006 116.6975017  35.7389987  76.2835006 103.2245017
  36.6959987  76.2835006 103.2245017  35.4989987  77.2105006 103.2245017
  23.7469987  85.0485006 105.2095017  24.7039987  85.0485006 105.2095017
  23.5069987  85.9755006 105.2095017  36.9029987  90.6215006 101.6435017
  37.8599987  90.6215006 101.6435017  36.6629987  91.5485006 101.6435017
  19.8499987  87.4645006 114.0705017  20.8069987  87.4645006 114.0705017
  19.6099987  88.3915006 114.0705017  19.6079987  90.2085006 110.8695017
  20.5649987  90.2085006 110.8695017  19.3679987  91.1355006 110.8695017
  37.8449987  90.9035006 116.5625017  38.8019987  90.9035006 116.5625017
  37.6049987  91.8305006 116.5625017  28.8019987  90.4455006 115.4275017
  29.7589987  90.4455006 115.4275017  28.5619987  91.3725006 115.4275017
  29.2379987  94.1995006 105.2275017  30.1949987  94.1995006 105.2275017
  28.9979987  95.1265006 105.2275017  22.8779987  93.0635006 107.0435017
  23.8349987  93.0635006 107.0435017  22.6379987  93.9905006 107.0435017
  31.9749987  93.3465006 104.9815017  32.9319987  93.3465006 104.9815017
  31.7349987  94.2735006 104.9815017  34.9849987  82.3775006 117.0425017
  35.9419987  82.3775006 117.0425017  34.7449987  83.3045006 117.0425017
  22.1249987  88.7825006 115.0375017  23.0819987  88.7825006 115.0375017
  21.8849987  89.7095006 115.0375017  24.7939987  77.2435006 111.0025017
  25.7509987  77.2435006 111.0025017  24.5539987  78.1705006 111.0025017
  29.4389987  76.9355006 114.3665017  30.3959987  76.9355006 114.3665017
  29.1989987  77.8625006 114.3665017  32.7409987  80.7515006 115.2545017
  33.6979987  80.7515006 115.2545017  32.5009987  81.6785006 115.2545017
  29.1149987  79.4415006 101.7035017  30.0719987  79.4415006 101.7035017
  28.8749987  80.3685006 101.7035017  24.8949987  82.2135006 112.2115017
  25.8519987  82.2135006 112.2115017  24.6549987  83.1405006 112.2115017
  24.8559987  82.3685006 107.0945017  25.8129987  82.3685006 107.0945017
  24.6159987  83.2955006 107.0945017  30.3829987  82.8375006 105.8765017
  31.3399987  82.8375006 105.8765017  30.1429987  83.7645006 105.8765017
  29.4549987  83.0485006 117.3225017  30.4119987  83.0485006 117.3225017
  29.2149987  83.9755006 117.3225017  31.4069987  82.3245006 108.7025017
  32.3639987  82.3245006 108.7025017  31.1669987  83.2515006 108.7025017
  22.5429987  82.4975006 113.9425017  23.4999987  82.4975006 113.9425017
  22.3029987  83.4245006 113.9425017  19.1849987  79.6095006 107.8875017
  20.1419987  79.6095006 107.8875017  18.9449987  80.5365006 107.8875017
  20.4519987  80.3415006 103.2425017  21.4089987  80.3415006 103.2425017
  20.2119987  81.2685006 103.2425017  30.6259987  83.9285006 113.2965017
  31.5829987  83.9285006 113.2965017  30.3859987  84.8555006 113.2965017
  27.4169987  79.8825006 108.1135017  28.3739987  79.8825006 108.1135017
  27.1769987  80.8095006 108.1135017  22.2309987  81.4555006 106.9845017
  23.1879987  81.4555006 106.9845017  21.9909987  82.3825006 106.9845017
  25.8489987  81.5225006 104.6375017  26.8059987  81.5225006 104.6375017
  25.6089987  82.4495006 104.6375017  31.8289987  79.1165006 111.3635017
  32.7859987  79.1165006 111.3635017  31.5889987  80.0435006 111.3635017
  24.5439987  82.6985006 102.1495017  25.5009987  82.6985006 102.1495017
  24.3039987  83.6255006 102.1495017  35.0289987  94.7785006 117.6915017
  35.9859987  94.7785006 117.6915017  34.7889987  95.7055006 117.6915017
  22.7119987  87.2355006 117.2475017  23.6689987  87.2355006 117.2475017
  22.4719987  88.1625006 117.2475017  28.7099987  82.6495006 110.0085017
  29.6669987  82.6495006 110.0085017  28.4699987  83.5765006 110.0085017
  23.7219987  78.7915006 106.4545017  24.6789987  78.7915006 106.4545017
  23.4819987  79.7185006 106.4545017  27.3499987  80.9895006 112.4205017
  28.3069987  80.9895006 112.4205017  27.1099987  81.9165006 112.4205017
  27.9059987  87.2215006 104.0975017  28.8629987  87.2215006 104.0975017
  27.6659987  88.1485006 104.0975017  35.0999987  86.3915006 112.9175017
  36.0569987  86.3915006 112.9175017  34.8599987  87.3185006 112.9175017
  29.4229987  87.4545006 115.3545017  30.3799987  87.4545006 115.3545017
  29.1829987  88.3815006 115.3545017  23.0379987  86.5825006 109.9125017
  23.9949987  86.5825006 109.9125017  22.7979987  87.5095006 109.9125017
  30.0649987  88.6795006 103.2225017  31.0219987  88.6795006 103.2225017
  29.8249987  89.6065006 103.2225017  20.0319987  85.0045006 115.1855017
  20.9889987  85.0045006 115.1855017  19.7919987  85.9315006 115.1855017
  27.0449987  84.5585006 117.3755017  28.0019987  84.5585006 117.3755017
  26.8049987  85.4855006 117.3755017  31.7189987  89.8945006 115.2975017
  32.6759987  89.8945006 115.2975017  31.4789987  90.8215006 115.2975017
  37.4059987  82.0985006 103.6805017  38.3629987  82.0985006 103.6805017
  37.1659987  83.0255006 103.6805017  37.3839987  87.9425006 116.5155017
  38.3409987  87.9425006 116.5155017  37.1439987  88.8695006 116.5155017
  35.6669987  90.9155006 104.0835017  36.6239987  90.9155006 104.0835017
  35.4269987  91.8425006 104.0835017  32.8899987  85.7265006 111.1935017
  33.8469987  85.7265006 111.1935017  32.6499987  86.6535006 111.1935017
  25.4139987  90.0505006 107.2985017  26.3709987  90.0505006 107.2985017
  25.1739987  90.9775006 107.2985017  26.8369987  87.7125006 106.8265017
  27.7939987  87.7125006 106.8265017  26.5969987  88.6395006 106.8265017
  27.2929987  91.8945006 113.2135017  28.2499987  91.8945006 113.2135017
  27.0529987  92.8215006 113.2135017  25.5099987  92.7275006 106.3555017
  26.4669987  92.7275006 106.3555017  25.2699987  93.6545006 106.3555017
  30.8379987  87.9285006 112.8595017  31.7949987  87.9285006 112.8595017
  30.5979987  88.8555006 112.8595017  33.6039987  92.4875006 115.3535017
  34.5609987  92.4875006 115.3535017  33.3639987  93.4145006 115.3535017
  21.6789987  79.7425006 114.7305017  22.6359987  79.7425006 114.7305017
  21.4389987  80.6695006 114.7305017  33.9519987  87.6215006 104.2295017
  34.9089987  87.6215006 104.2295017  33.7119987  88.5485006 104.2295017
  21.3049987  91.5355006 113.1625017  22.2619987  91.5355006 113.1625017
  21.0649987  92.4625006 113.1625017  26.0419987  89.5715006 102.8855017
  26.9989987  89.5715006 102.8855017  25.8019987  90.4985006 102.8855017
  22.6149987  86.8185006 103.3735017  23.5719987  86.8185006 103.3735017
  22.3749987  87.7455006 103.3735017  30.4089987  79.5075006 113.6705017
  31.3659987  79.5075006 113.6705017  30.1689987  80.4345006 113.6705017
  31.2079987  79.1085006 104.7325017  32.1649987  79.1085006 104.7325017
  30.9679987  80.0355006 104.7325017  28.8779987  91.2615006 103.6495017
  29.8349987  91.2615006 103.6495017  28.6379987  92.1885006 103.6495017
  28.3909987  80.8455006 105.5745017  29.3479987  80.8455006 105.5745017
  28.1509987  81.7725006 105.5745017  28.9379987  81.8555006 114.7755017
  29.8949987  81.8555006 114.7755017  28.6979987  82.7825006 114.7755017
  29.2529987  77.9155006 106.4875017  30.2099987  77.9155006 106.4875017
  29.0129987  78.8425006 106.4875017  26.2229987  92.2945006 103.6135017
  27.1799987  92.2945006 103.6135017  25.9829987  93.2215006 103.6135017
  24.8989987  78.9945006 103.2565017  25.8559987  78.9945006 103.2565017
  24.6589987  79.9215006 103.2565017  35.1329987  79.7315006 115.6275017
  36.0899987  79.7315006 115.6275017  34.8929987  80.6585006 115.6275017
  33.7279987  83.5215006 109.6785017  34.6849987  83.5215006 109.6785017
  33.4879987  84.4485006 109.6785017  23.1769987  89.3765006 102.3015017
  24.1339987  89.3765006 102.3015017  22.9369987  90.3035006 102.3015017
  34.8899987  92.6285006 111.1375017  35.8469987  92.6285006 111.1375017
  34.6499987  93.5555006 111.1375017  22.2999987  76.8975006 110.1005017
  23.2569987  76.8975006 110.1005017  22.0599987  77.8245006 110.1005017
  21.2459987  90.8145006 106.2485017  22.2029987  90.8145006 106.2485017
  21.0059987  91.7415006 106.2485017  20.4709987  93.4645006 117.5475017
  21.4279987  93.4645006 117.5475017  20.2309987  94.3915006 117.5475017
  25.1299987  92.3795006 119.1665017  26.0869987  92.3795006 119.1665017
  24.8899987  93.3065006 119.1665017  31.6539987  90.7675006 117.9025017
  32.6109987  90.7675006 117.9025017  31.4139987  91.6945006 117.9025017
  20.3899987  87.2485006 118.5325017  21.3469987  87.2485006 118.5325017
  20.1499987  88.1755006 118.5325017  27.0879987  87.2265006 117.9305017
  28.0449987  87.2265006 117.9305017  26.8479987  88.1535006 117.9305017
  32.7909987  87.0965006 115.3165017  33.7479987  87.0965006 115.3165017
  32.5509987  88.0235006 115.3165017  21.2999987  84.4755006 117.9195017
  22.2569987  84.4755006 117.9195017  21.0599987  85.4025006 117.9195017
  25.1939987  83.4225006 115.2855017  26.1509987  83.4225006 115.2855017
  24.9539987  84.3495006 115.2855017  26.9509987  83.8605006 101.1875017
  27.9079987  83.8605006 101.1875017  26.7109987  84.7875006 101.1875017
  30.2499987  85.9655006 118.5935017  31.2069987  85.9655006 118.5935017
  30.0099987  86.8925006 118.5935017  25.5899987  80.7965006 116.3535017
  26.5469987  80.7965006 116.3535017  25.3499987  81.7235006 116.3535017
  25.9869987  79.1725006 113.8855017  26.9439987  79.1725006 113.8855017
  25.7469987  80.0995006 113.8855017  27.5369987  84.6425006 114.1325017
  28.4939987  84.6425006 114.1325017  27.2969987  85.5695006 114.1325017
  31.9379987  82.4255006 119.1095017  32.8949987  82.4255006 119.1095017
  31.6979987  83.3525006 119.1095017  33.2649987  85.2015006 117.2435017
  34.2219987  85.2015006 117.2435017  33.0249987  86.1285006 117.2435017
  24.0459987  82.0395006 118.2665017  25.0029987  82.0395006 118.2665017
  23.8059987  82.9665006 118.2665017  26.7769987  76.6085006 114.3025017
  27.7339987  76.6085006 114.3025017  26.5369987  77.5355006 114.3025017
  28.0519987  80.9435006 117.8945017  29.0089987  80.9435006 117.8945017
  27.8119987  81.8705006 117.8945017  30.7699987  80.0765006 116.9675017
  31.7269987  80.0765006 116.9675017  30.5299987  81.0035006 116.9675017
  32.3659987  78.7065006 118.9075017  33.3229987  78.7065006 118.9075017
  32.1259987  79.6335006 118.9075017  22.1969987  79.9635006 117.9955017
  23.1539987  79.9635006 117.9955017  21.9569987  80.8905006 117.9955017
  26.9919987  75.9795006 116.9835017  27.9489987  75.9795006 116.9835017
  26.7519987  76.9065006 116.9835017  27.3579987  77.6135006 119.0735017
  28.3149987  77.6135006 119.0735017  27.1179987  78.5405006 119.0735017
  20.4389987  89.1065006 101.7365017  21.3959987  89.1065006 101.7365017
  20.1989987  90.0335006 101.7365017  19.1559987  94.5095006 106.7095017
  20.1129987  94.5095006 106.7095017  18.9159987  95.4365006 106.7095017
  19.9829987  92.6185006 108.5655017  20.9399987  92.6185006 108.5655017
  19.7429987  93.5455006 108.5655017  37.5399987  93.3945006 111.5185017
  38.4969987  93.3945006 111.5185017  37.2999987  94.3215006 111.5185017
  37.1179987  92.9935006 114.4385017  38.0749987  92.9935006 114.4385017
  36.8779987  93.9205006 114.4385017  35.5389987  88.7385006 119.1325017
  36.4959987  88.7385006 119.1325017  35.2989987  89.6655006 119.1325017
  36.8789987  87.0285006 104.5385017  37.8359987  87.0285006 104.5385017
  36.6389987  87.9555006 104.5385017  37.2459987  85.1165006 106.4245017
  38.2029987  85.1165006 106.4245017  37.0059987  86.0435006 106.4245017
  36.9739987  87.8395006 111.4185017  37.9309987  87.8395006 111.4185017
  36.7339987  88.7665006 111.4185017  35.5239987  90.7235006 113.7085017
  36.4809987  90.7235006 113.7085017  35.2839987  91.6505006 113.7085017
  35.0649987  83.6055006 107.0125017  36.0219987  83.6055006 107.0125017
  34.8249987  84.5325006 107.0125017  20.0389987  85.6945006 111.0565017
  20.9959987  85.6945006 111.0565017  19.7989987  86.6215006 111.0565017
  35.8789987  85.5795006 116.6955017  36.8359987  85.5795006 116.6955017
  35.6389987  86.5065006 116.6955017  37.3929987  83.4725006 117.3465017
  38.3499987  83.4725006 117.3465017  37.1529987  84.3995006 117.3465017
  34.6969987  81.1685006 105.4675017  35.6539987  81.1685006 105.4675017
  34.4569987  82.0955006 105.4675017  35.3349987  81.7395006 110.9055017
  36.2919987  81.7395006 110.9055017  35.0949987  82.6665006 110.9055017
  35.4069987  82.4695006 113.6945017  36.3639987  82.4695006 113.6945017
  35.1669987  83.3965006 113.6945017  19.6829987  80.9505006 117.0855017
  20.6399987  80.9505006 117.0855017  19.4429987  81.8775006 117.0855017
  37.6699987  76.5065006 119.0445017  38.6269987  76.5065006 119.0445017
  37.4299987  77.4335006 119.0445017  35.3699987  78.4645006 105.4965017
  36.3269987  78.4645006 105.4965017  35.1299987  79.3915006 105.4965017
  20.8549987  79.2835006 110.0645017  21.8119987  79.2835006 110.0645017
  20.6149987  80.2105006 110.0645017  19.1439987  82.2765006 111.1145017
  20.1009987  82.2765006 111.1145017  18.9039987  83.2035006 111.1145017
  37.2039987  78.6105006 117.3965017  38.1609987  78.6105006 117.3965017
  36.9639987  79.5375006 117.3965017  19.4949987  78.5655006 105.1855017
  20.4519987  78.5655006 105.1855017  19.2549987  79.4925006 105.1855017
  34.2389987  93.4975006 107.1055017  35.1959987  93.4975006 107.1055017
  33.9989987  94.4245006 107.1055017  19.4609987  77.2215006 113.4895017
  20.4179987  77.2215006 113.4895017  19.2209987  78.1485006 113.4895017
  21.6819987  90.4075006 117.6475017  22.6389987  90.4075006 117.6475017
  21.4419987  91.3345006 117.6475017  24.5939987  91.4025006 113.9215017
  25.5509987  91.4025006 113.9215017  24.3539987  92.3295006 113.9215017
  28.9119987  92.8275006 116.8375017  29.8689987  92.8275006 116.8375017
  28.6719987  93.7545006 116.8375017  31.2129987  94.1045006 116.1325017
  32.1699987  94.1045006 116.1325017  30.9729987  95.0315006 116.1325017
  36.2129987  76.7095006 115.2285017  37.1699987  76.7095006 115.2285017
  35.9729987  77.6365006 115.2285017  22.0199987  94.6485006 113.9305017
  22.9769987  94.6485006 113.9305017  21.7799987  95.5755006 113.9305017
  24.4889987  94.2305006 112.9935017  25.4459987  94.2305006 112.9935017
  24.2489987  95.1575006 112.9935017  29.1819987  94.1415006 112.1585017
  30.1389987  94.1415006 112.1585017  28.9419987  95.0685006 112.1585017
  31.2899987  92.8895006 113.2635017  32.2469987  92.8895006 113.2635017
  31.0499987  93.8165006 113.2635017  33.4889987  93.9155006 112.8445017
  34.4459987  93.9155006 112.8445017  33.2489987  94.8425006 112.8445017
  21.4539987  93.2965006 110.8605017  22.4109987  93.2965006 110.8605017
  21.2139987  94.2235006 110.8605017  23.5479987  92.0095006 109.5135017
  24.5049987  92.0095006 109.5135017  23.3079987  92.9365006 109.5135017
  26.1199987  92.4875006 110.3805017  27.0769987  92.4875006 110.3805017
  25.8799987  93.4145006 110.3805017  29.6079987  78.1375006 109.5305017
  30.5649987  78.1375006 109.5305017  29.3679987  79.0645006 109.5305017
  34.7399987  76.2105006 109.6105017  35.6969987  76.2105006 109.6105017
  34.4999987  77.1375006 109.6105017  36.4219987  77.4255006 107.8905017
  37.3789987  77.4255006 107.8905017  36.1819987  78.3525006 107.8905017
  21.9599987  76.7695006 107.3885017  22.9169987  76.7695006 107.3885017
  21.7199987  77.6965006 107.3885017  20.7539987  76.5305006 103.1265017
  21.7109987  76.5305006 103.1265017  20.5139987  77.4575006 103.1265017
  26.4819987  76.6805006 107.1455017  27.4389987  76.6805006 107.1455017
  26.2419987  77.6075006 107.1455017  32.1329987  76.7155006 108.7925017
  33.0899987  76.7155006 108.7925017  31.8929987  77.6425006 108.7925017
  33.4329987  76.7665006 104.4725017  34.3899987  76.7665006 104.4725017
  33.1929987  77.6935006 104.4725017  20.6659987  92.4955006 104.1105017
  21.6229987  92.4955006 104.1105017  20.4259987  93.4225006 104.1105017
  27.6399987  78.7405006 104.0365017  28.5969987  78.7405006 104.0365017
  27.3999987  79.6675006 104.0365017  29.5639987  93.7095006 102.4615017
  30.5209987  93.7095006 102.4615017  29.3239987  94.6365006 102.4615017
  36.2439987  93.3025006 105.1515017  37.2009987  93.3025006 105.1515017
  36.0039987  94.2295006 105.1515017  21.8819987  77.2915006 116.8125017
  22.8389987  77.2915006 116.8125017  21.6419987  78.2185006 116.8125017
  23.8729987  76.6855006 118.4415017  24.8299987  76.6855006 118.4415017
  23.6329987  77.6125006 118.4415017  22.5189987  93.4635006 101.0805017
  23.4759987  93.4635006 101.0805017  22.2789987  94.3905006 101.0805017
  32.2739987  75.9855006 118.6085017  33.2309987  75.9855006 118.6085017
  32.0339987  76.9125006 118.6085017  35.4729987  92.0165006 117.2795017
  36.4299987  92.0165006 117.2795017  35.2329987  92.9435006 117.2795017
  49.9199987  85.9095006 107.2635017  50.8769987  85.9095006 107.2635017
  49.6799987  86.8365006 107.2635017  48.7839987  85.1725006 110.7285017
  49.7409987  85.1725006 110.7285017  48.5439987  86.0995006 110.7285017
  41.1399987  84.8245006 112.2915017  42.0969987  84.8245006 112.2915017
  40.8999987  85.7515006 112.2915017  52.4829987  88.1125006 109.0125017
  53.4399987  88.1125006 109.0125017  52.2429987  89.0395006 109.0125017
  42.0669987  89.2765006 110.8125017  43.0239987  89.2765006 110.8125017
  41.8269987  90.2035006 110.8125017  38.7399987  82.8875006 106.2225017
  39.6969987  82.8875006 106.2225017  38.4999987  83.8145006 106.2225017
  39.4019987  85.0635006 108.3795017  40.3589987  85.0635006 108.3795017
  39.1619987  85.9905006 108.3795017  49.5939987  93.2615006 109.2495017
  50.5509987  93.2615006 109.2495017  49.3539987  94.1885006 109.2495017
  47.1599987  87.5785006 111.1795017  48.1169987  87.5785006 111.1795017
  46.9199987  88.5055006 111.1795017  55.8099987  79.1755006 111.9615017
  56.7669987  79.1755006 111.9615017  55.5699987  80.1025006 111.9615017
  50.3239987  82.0335006 111.5055017  51.2809987  82.0335006 111.5055017
  50.0839987  82.9605006 111.5055017  43.4469987  80.1205006 108.7445017
  44.4039987  80.1205006 108.7445017  43.2069987  81.0475006 108.7445017
  51.1779987  80.2205006 107.1225017  52.1349987  80.2205006 107.1225017
  50.9379987  81.1475006 107.1225017  40.0719987  82.5255006 109.4775017
  41.0289987  82.5255006 109.4775017  39.8319987  83.4525006 109.4775017
  45.2339987  84.0845006 108.7615017  46.1909987  84.0845006 108.7615017
  44.9939987  85.0115006 108.7615017  56.2159987  80.6485006 114.2065017
  57.1729987  80.6485006 114.2065017  55.9759987  81.5755006 114.2065017
  42.3469987  79.0555006 112.8395017  43.3039987  79.0555006 112.8395017
  42.1069987  79.9825006 112.8395017  49.6399987  88.5025006 106.3375017
  50.5969987  88.5025006 106.3375017  49.3999987  89.4295006 106.3375017
  44.8659987  86.6655006 113.0375017  45.8229987  86.6655006 113.0375017
  44.6259987  87.5925006 113.0375017  52.9899987  79.5325006 109.0885017
  53.9469987  79.5325006 109.0885017  52.7499987  80.4595006 109.0885017
  41.9079987  80.8705006 110.8115017  42.8649987  80.8705006 110.8115017
  41.6679987  81.7975006 110.8115017  43.3029987  88.6555006 113.8465017
  44.2599987  88.6555006 113.8465017  43.0629987  89.5825006 113.8465017
  53.0059987  89.9455006 111.3835017  53.9629987  89.9455006 111.3835017
  52.7659987  90.8725006 111.3835017  53.3179987  78.2325006 112.7775017
  54.2749987  78.2325006 112.7775017  53.0779987  79.1595006 112.7775017
  46.3059987  76.3425006 110.2345017  47.2629987  76.3425006 110.2345017
  46.0659987  77.2695006 110.2345017  51.2799987  91.7345006 108.0145017
  52.2369987  91.7345006 108.0145017  51.0399987  92.6615006 108.0145017
  52.4889987  89.6525006 106.4885017  53.4459987  89.6525006 106.4885017
  52.2489987  90.5795006 106.4885017  54.0959987  88.2395006 114.9885017
  55.0529987  88.2395006 114.9885017  53.8559987  89.1665006 114.9885017
  48.5589987  85.1185006 104.7255017  49.5159987  85.1185006 104.7255017
  48.3189987  86.0455006 104.7255017  55.9709987  84.5535006 113.0415017
  56.9279987  84.5535006 113.0415017  55.7309987  85.4805006 113.0415017
  52.0199987  85.3615006 105.6785017  52.9769987  85.3615006 105.6785017
  51.7799987  86.2885006 105.6785017  51.9469987  83.5215006 114.7875017
  52.9039987  83.5215006 114.7875017  51.7069987  84.4485006 114.7875017
  43.6349987  86.0195006 107.5885017  44.5919987  86.0195006 107.5885017
  43.3949987  86.9465006 107.5885017  44.9729987  89.4165006 110.2695017
  45.9299987  89.4165006 110.2695017  44.7329987  90.3435006 110.2695017
  43.9799987  84.7615006 111.2395017  44.9369987  84.7615006 111.2395017
  43.7399987  85.6885006 111.2395017  50.3659987  90.3235006 111.9475017
  51.3229987  90.3235006 111.9475017  50.1259987  91.2505006 111.9475017
  44.9179987  89.1835006 115.9435017  45.8749987  89.1835006 115.9435017
  44.6779987  90.1105006 115.9435017  50.8649987  84.5725006 103.3585017
  51.8219987  84.5725006 103.3585017  50.6249987  85.4995006 103.3585017
  41.8559987  85.3505006 115.1195017  42.8129987  85.3505006 115.1195017
  41.6159987  86.2775006 115.1195017  48.5899987  91.2625006 106.8365017
  49.5469987  91.2625006 106.8365017  48.3499987  92.1895006 106.8365017
  43.1569987  91.2345006 116.6975017  44.1139987  91.2345006 116.6975017
  42.9169987  92.1615006 116.6975017  42.6409987  85.0335006 105.1345017
  43.5979987  85.0335006 105.1345017  42.4009987  85.9605006 105.1345017
  38.7059987  87.4635006 114.0705017  39.6629987  87.4635006 114.0705017
  38.4659987  88.3905006 114.0705017  38.4619987  90.2045006 110.8895017
  39.4189987  90.2045006 110.8895017  38.2219987  91.1315006 110.8895017
  56.7009987  90.9035006 116.5615017  57.6579987  90.9035006 116.5615017
  56.4609987  91.8305006 116.5615017  47.6579987  90.4475006 115.4255017
  48.6149987  90.4475006 115.4255017  47.4179987  91.3745006 115.4255017
  48.0399987  94.1785006 105.2375017  48.9969987  94.1785006 105.2375017
  47.7999987  95.1055006 105.2375017  41.7339987  93.0565006 107.0365017
  42.6909987  93.0565006 107.0365017  41.4939987  93.9835006 107.0365017
  51.4409987  93.7695006 102.3275017  52.3979987  93.7695006 102.3275017
  51.2009987  94.6965006 102.3275017  50.8429987  93.3585006 105.0535017
  51.7999987  93.3585006 105.0535017  50.6029987  94.2855006 105.0535017
  53.8409987  82.3775006 117.0425017  54.7979987  82.3775006 117.0425017
  53.6009987  83.3045006 117.0425017  40.9799987  88.7835006 115.0335017
  41.9369987  88.7835006 115.0335017  40.7399987  89.7105006 115.0335017
  43.6389987  77.2305006 111.0165017  44.5959987  77.2305006 111.0165017
  43.3989987  78.1575006 111.0165017  48.2799987  76.9575006 114.3825017
  49.2369987  76.9575006 114.3825017  48.0399987  77.8845006 114.3825017
  51.5979987  80.7525006 115.2545017  52.5549987  80.7525006 115.2545017
  51.3579987  81.6795006 115.2545017  43.7609987  82.2145006 112.2355017
  44.7179987  82.2145006 112.2355017  43.5209987  83.1415006 112.2355017
  43.7109987  82.3815006 107.0895017  44.6679987  82.3815006 107.0895017
  43.4709987  83.3085006 107.0895017  49.2179987  82.8145006 105.8495017
  50.1749987  82.8145006 105.8495017  48.9779987  83.7415006 105.8495017
  48.3139987  83.0485006 117.3205017  49.2709987  83.0485006 117.3205017
  48.0739987  83.9755006 117.3205017  50.2639987  82.3255006 108.7105017
  51.2209987  82.3255006 108.7105017  50.0239987  83.2525006 108.7105017
  41.4359987  82.4705006 113.9555017  42.3929987  82.4705006 113.9555017
  41.1959987  83.3975006 113.9555017  38.0389987  79.6065006 107.8785017
  38.9959987  79.6065006 107.8785017  37.7989987  80.5335006 107.8785017
  39.3029987  80.3435006 103.2815017  40.2599987  80.3435006 103.2815017
  39.0629987  81.2705006 103.2815017  49.4819987  83.9295006 113.2955017
  50.4389987  83.9295006 113.2955017  49.2419987  84.8565006 113.2955017
  46.2749987  79.8885006 108.1195017  47.2319987  79.8885006 108.1195017
  46.0349987  80.8155006 108.1195017  41.0959987  81.4565006 106.9685017
  42.0529987  81.4565006 106.9685017  40.8559987  82.3835006 106.9685017
  44.7389987  81.5005006 104.6215017  45.6959987  81.5005006 104.6215017
  44.4989987  82.4275006 104.6215017  50.6859987  79.1185006 111.3585017
  51.6429987  79.1185006 111.3585017  50.4459987  80.0455006 111.3585017
  43.4289987  82.7135006 102.1745017  44.3859987  82.7135006 102.1745017
  43.1889987  83.6405006 102.1745017  53.8989987  94.7715006 117.6775017
  54.8559987  94.7715006 117.6775017  53.6589987  95.6985006 117.6775017
  41.5679987  87.2345006 117.2485017  42.5249987  87.2345006 117.2485017
  41.3279987  88.1615006 117.2485017  47.5669987  82.6495006 110.0125017
  48.5239987  82.6495006 110.0125017  47.3269987  83.5765006 110.0125017
  42.5809987  78.7915006 106.4505017  43.5379987  78.7915006 106.4505017
  42.3409987  79.7185006 106.4505017  46.2089987  81.0075006 112.4545017
  47.1659987  81.0075006 112.4545017  45.9689987  81.9345006 112.4545017
  46.7789987  87.1675006 104.1145017  47.7359987  87.1675006 104.1145017
  46.5389987  88.0945006 104.1145017  53.9549987  86.3905006 112.9195017
  54.9119987  86.3905006 112.9195017  53.7149987  87.3175006 112.9195017
  50.6169987  80.0195006 102.3225017  51.5739987  80.0195006 102.3225017
  50.3769987  80.9465006 102.3225017  48.2789987  87.4535006 115.3545017
  49.2359987  87.4535006 115.3545017  48.0389987  88.3805006 115.3545017
  51.3699987  81.9405006 103.9765017  52.3269987  81.9405006 103.9765017
  51.1299987  82.8675006 103.9765017  41.8999987  86.5805006 109.9205017
  42.8569987  86.5805006 109.9205017  41.6599987  87.5075006 109.9205017
  38.8879987  85.0055006 115.1825017  39.8449987  85.0055006 115.1825017
  38.6479987  85.9325006 115.1825017  45.9059987  84.5625006 117.3835017
  46.8629987  84.5625006 117.3835017  45.6659987  85.4895006 117.3835017
  50.5719987  89.8895006 115.2975017  51.5289987  89.8895006 115.2975017
  50.3319987  90.8165006 115.2975017  56.2659987  82.1045006 103.6935017
  57.2229987  82.1045006 103.6935017  56.0259987  83.0315006 103.6935017
  56.2399987  87.9425006 116.5155017  57.1969987  87.9425006 116.5155017
  55.9999987  88.8695006 116.5155017  54.6109987  90.9015006 104.1185017
  55.5679987  90.9015006 104.1185017  54.3709987  91.8285006 104.1185017
  51.7479987  85.7255006 111.1925017  52.7049987  85.7255006 111.1925017
  51.5079987  86.6525006 111.1925017  44.2409987  90.0415006 107.3165017
  45.1979987  90.0415006 107.3165017  44.0009987  90.9685006 107.3165017
  45.6919987  87.7125006 106.8275017  46.6489987  87.7125006 106.8275017
  45.4519987  88.6395006 106.8275017  46.1489987  91.8905006 113.2135017
  47.1059987  91.8905006 113.2135017  45.9089987  92.8175006 113.2135017
  44.3739987  92.7035006 106.3985017  45.3309987  92.7035006 106.3985017
  44.1339987  93.6305006 106.3985017  49.6889987  87.9215006 112.8565017
  50.6459987  87.9215006 112.8565017  49.4489987  88.8485006 112.8565017
  52.0199987  88.7535006 101.8995017  52.9769987  88.7535006 101.8995017
  51.7799987  89.6805006 101.8995017  52.4569987  92.4915006 115.3505017
  53.4139987  92.4915006 115.3505017  52.2169987  93.4185006 115.3505017
  40.5589987  79.7365006 114.7535017  41.5159987  79.7365006 114.7535017
  40.3189987  80.6635006 114.7535017  52.7859987  87.5925006 104.2075017
  53.7429987  87.5925006 104.2075017  52.5459987  88.5195006 104.2075017
  40.1729987  91.5305006 113.1565017  41.1299987  91.5305006 113.1565017
  39.9329987  92.4575006 113.1565017  44.8569987  89.5595006 102.9025017
  45.8139987  89.5595006 102.9025017  44.6169987  90.4865006 102.9025017
  49.2439987  79.5175006 113.6885017  50.2009987  79.5175006 113.6885017
  49.0039987  80.4445006 113.6885017  50.0219987  79.1035006 104.7655017
  50.9789987  79.1035006 104.7655017  49.7819987  80.0305006 104.7655017
  47.6369987  91.2505006 103.6005017  48.5939987  91.2505006 103.6005017
  47.3969987  92.1775006 103.6005017  47.2229987  80.8785006 105.5755017
  48.1799987  80.8785006 105.5755017  46.9829987  81.8055006 105.5755017
  47.7599987  81.8195006 114.7995017  48.7169987  81.8195006 114.7995017
  47.5199987  82.7465006 114.7995017  48.1069987  77.9105006 106.5095017
  49.0639987  77.9105006 106.5095017  47.8669987  78.8375006 106.5095017
  45.0419987  92.2975006 103.6395017  45.9989987  92.2975006 103.6395017
  44.8019987  93.2245006 103.6395017  43.7699987  79.0155006 103.2185017
  44.7269987  79.0155006 103.2185017  43.5299987  79.9425006 103.2185017
  53.9889987  79.7325006 115.6235017  54.9459987  79.7325006 115.6235017
  53.7489987  80.6595006 115.6235017  52.5879987  83.5155006 109.6545017
  53.5449987  83.5155006 109.6545017  52.3479987  84.4425006 109.6545017
  42.0419987  89.3855006 102.2925017  42.9989987  89.3855006 102.2925017
  41.8019987  90.3125006 102.2925017  40.3459987  82.1015006 101.3775017
  41.3029987  82.1015006 101.3775017  40.1059987  83.0285006 101.3775017
  53.6559987  92.7625006 111.3165017  54.6129987  92.7625006 111.3165017
  53.4159987  93.6895006 111.3165017  41.1599987  76.9165006 110.1005017
  42.1169987  76.9165006 110.1005017  40.9199987  77.8435006 110.1005017
  40.1059987  90.8325006 106.2905017  41.0629987  90.8325006 106.2905017
  39.8659987  91.7595006 106.2905017  39.3309987  93.4635006 117.5495017
  40.2879987  93.4635006 117.5495017  39.0909987  94.3905006 117.5495017
  43.9829987  92.3825006 119.1615017  44.9399987  92.3825006 119.1615017
  43.7429987  93.3095006 119.1615017  50.5139987  90.7625006 117.8945017
  51.4709987  90.7625006 117.8945017  50.2739987  91.6895006 117.8945017
  52.7879987  91.7235006 100.7175017  53.7449987  91.7235006 100.7175017
  52.5479987  92.6505006 100.7175017  39.2459987  87.2475006 118.5335017
  40.2029987  87.2475006 118.5335017  39.0059987  88.1745006 118.5335017
  45.9439987  87.2265006 117.9305017  46.9009987  87.2265006 117.9305017
  45.7039987  88.1535006 117.9305017  51.6449987  87.0935006 115.3165017
  52.6019987  87.0935006 115.3165017  51.4049987  88.0205006 115.3165017
  40.1319987  84.4655006 117.9185017  41.0889987  84.4655006 117.9185017
  39.8919987  85.3925006 117.9185017  44.8209987  85.5675006 102.9475017
  45.7779987  85.5675006 102.9475017  44.5809987  86.4945006 102.9475017
  44.0399987  83.4085006 115.2665017  44.9969987  83.4085006 115.2665017
  43.7999987  84.3355006 115.2665017  49.1079987  85.9675006 118.5985017
  50.0649987  85.9675006 118.5985017  48.8679987  86.8945006 118.5985017
  44.4579987  81.0585006 116.4765017  45.4149987  81.0585006 116.4765017
  44.2179987  81.9855006 116.4765017  44.9549987  78.8685006 113.1495017
  45.9119987  78.8685006 113.1495017  44.7149987  79.7955006 113.1495017
  46.3859987  84.6275006 114.1275017  47.3429987  84.6275006 114.1275017
  46.1459987  85.5545006 114.1275017  50.7919987  82.4215006 119.1085017
  51.7489987  82.4215006 119.1085017  50.5519987  83.3485006 119.1085017
  52.1189987  85.2015006 117.2435017  53.0759987  85.2015006 117.2435017
  51.8789987  86.1285006 117.2435017  42.8829987  82.0385006 118.2875017
  43.8399987  82.0385006 118.2875017  42.6429987  82.9655006 118.2875017
  45.5769987  76.6245006 114.3695017  46.5339987  76.6245006 114.3695017
  45.3369987  77.5515006 114.3695017  46.9179987  80.9105006 117.8855017
  47.8749987  80.9105006 117.8855017  46.6779987  81.8375006 117.8855017
  49.6049987  80.0545006 116.9395017  50.5619987  80.0545006 116.9395017
  49.3649987  80.9815006 116.9395017  51.2219987  78.7085006 118.9075017
  52.1789987  78.7085006 118.9075017  50.9819987  79.6355006 118.9075017
  41.0509987  79.9625006 117.9805017  42.0079987  79.9625006 117.9805017
  40.8109987  80.8895006 117.9805017  45.8439987  75.9985006 116.9855017
  46.8009987  75.9985006 116.9855017  45.6039987  76.9255006 116.9855017
  46.1859987  77.6055006 119.0705017  47.1429987  77.6055006 119.0705017
  45.9459987  78.5325006 119.0705017  45.6959987  94.5225006 102.2315017
  46.6529987  94.5225006 102.2315017  45.4559987  95.4495006 102.2315017
  37.9989987  94.4995006 106.7255017  38.9559987  94.4995006 106.7255017
  37.7589987  95.4265006 106.7255017  38.8419987  92.6145006 108.5625017
  39.7989987  92.6145006 108.5625017  38.6019987  93.5415006 108.5625017
  56.3739987  93.4155006 111.5165017  57.3309987  93.4155006 111.5165017
  56.1339987  94.3425006 111.5165017  55.9499987  93.0125006 114.4595017
  56.9069987  93.0125006 114.4595017  55.7099987  93.9395006 114.4595017
  54.3949987  88.7445006 119.1155017  55.3519987  88.7445006 119.1155017
  54.1549987  89.6715006 119.1155017  55.6859987  87.0395006 104.5715017
  56.6429987  87.0395006 104.5715017  55.4459987  87.9665006 104.5715017
  56.0909987  85.1085006 106.4155017  57.0479987  85.1085006 106.4155017
  55.8509987  86.0355006 106.4155017  55.8319987  87.8425006 111.4205017
  56.7889987  87.8425006 111.4205017  55.5919987  88.7695006 111.4205017
  54.3779987  90.7385006 113.7025017  55.3349987  90.7385006 113.7025017
  54.1379987  91.6655006 113.7025017  53.8889987  83.6065006 106.9865017
  54.8459987  83.6065006 106.9865017  53.6489987  84.5335006 106.9865017
  38.8949987  85.6935006 111.0555017  39.8519987  85.6935006 111.0555017
  38.6549987  86.6205006 111.0555017  54.7389987  85.5815006 116.6815017
  55.6959987  85.5815006 116.6815017  54.4989987  86.5085006 116.6815017
  56.2489987  83.4715006 117.3475017  57.2059987  83.4715006 117.3475017
  56.0089987  84.3985006 117.3475017  53.9649987  79.5435006 100.5985017
  54.9219987  79.5435006 100.5985017  53.7249987  80.4705006 100.5985017
  53.5729987  81.1995006 105.4865017  54.5299987  81.1995006 105.4865017
  53.3329987  82.1265006 105.4865017  54.1959987  81.7335006 110.9095017
  55.1529987  81.7335006 110.9095017  53.9559987  82.6605006 110.9095017
  54.2599987  82.4665006 113.6945017  55.2169987  82.4665006 113.6945017
  54.0199987  83.3935006 113.6945017  38.5009987  80.9935006 117.2035017
  39.4579987  80.9935006 117.2035017  38.2609987  81.9205006 117.2035017
  56.5219987  76.5085006 119.0435017  57.4789987  76.5085006 119.0435017
  56.2819987  77.4355006 119.0435017  54.2409987  78.4555006 105.5005017
  55.1979987  78.4555006 105.5005017  54.0009987  79.3825006 105.5005017
  39.7119987  79.2835006 110.0635017  40.6689987  79.2835006 110.0635017
  39.4719987  80.2105006 110.0635017  38.0009987  82.2765006 111.1145017
  38.9579987  82.2765006 111.1145017  37.7609987  83.2035006 111.1145017
  56.0529987  78.6085006 117.3915017  57.0099987  78.6085006 117.3915017
  55.8129987  79.5355006 117.3915017  56.0689987  78.4845006 102.0615017
  57.0259987  78.4845006 102.0615017  55.8289987  79.4115006 102.0615017
  38.3539987  78.5455006 105.1785017  39.3109987  78.5455006 105.1785017
  38.1139987  79.4725006 105.1785017  53.1029987  93.4985006 107.1305017
  54.0599987  93.4985006 107.1305017  52.8629987  94.4255006 107.1305017
  38.3229987  77.2285006 113.4975017  39.2799987  77.2285006 113.4975017
  38.0829987  78.1555006 113.4975017  40.5359987  90.4085006 117.6465017
  41.4929987  90.4085006 117.6465017  40.2959987  91.3355006 117.6465017
  43.4489987  91.4025006 113.9225017  44.4059987  91.4025006 113.9225017
  43.2089987  92.3295006 113.9225017  47.7689987  92.8275006 116.8375017
  48.7259987  92.8275006 116.8375017  47.5289987  93.7545006 116.8375017
  50.0669987  94.0975006 116.1265017  51.0239987  94.0975006 116.1265017
  49.8269987  95.0245006 116.1265017  55.0559987  76.7025006 115.2385017
  56.0129987  76.7025006 115.2385017  54.8159987  77.6295006 115.2385017
  40.8729987  94.6445006 113.9275017  41.8299987  94.6445006 113.9275017
  40.6329987  95.5715006 113.9275017  43.3449987  94.2315006 112.9935017
  44.3019987  94.2315006 112.9935017  43.1049987  95.1585006 112.9935017
  48.0469987  94.1385006 112.1645017  49.0039987  94.1385006 112.1645017
  47.8069987  95.0655006 112.1645017  50.3539987  92.9695006 113.1615017
  51.3109987  92.9695006 113.1615017  50.1139987  93.8965006 113.1615017
  52.9369987  94.5385006 113.4185017  53.8939987  94.5385006 113.4185017
  52.6969987  95.4655006 113.4185017  40.3119987  93.2995006 110.8595017
  41.2689987  93.2995006 110.8595017  40.0719987  94.2265006 110.8595017
  42.4039987  92.0095006 109.5135017  43.3609987  92.0095006 109.5135017
  42.1639987  92.9365006 109.5135017  44.9939987  92.4915006 110.3835017
  45.9509987  92.4915006 110.3835017  44.7539987  93.4185006 110.3835017
  48.4619987  78.1415006 109.5385017  49.4189987  78.1415006 109.5385017
  48.2219987  79.0685006 109.5385017  53.6079987  76.1845006 109.6205017
  54.5649987  76.1845006 109.6205017  53.3679987  77.1115006 109.6205017
  55.3019987  77.3915006 107.9065017  56.2589987  77.3915006 107.9065017
  55.0619987  78.3185006 107.9065017  40.8189987  76.7695006 107.3875017
  41.7759987  76.7695006 107.3875017  40.5789987  77.6965006 107.3875017
  39.6069987  76.5355006 103.1395017  40.5639987  76.5355006 103.1395017
  39.3669987  77.4625006 103.1395017  45.3249987  76.6875006 107.1655017
  46.2819987  76.6875006 107.1655017  45.0849987  77.6145006 107.1655017
  50.9899987  76.7205006 108.7945017  51.9469987  76.7205006 108.7945017
  50.7499987  77.6475006 108.7945017  52.3169987  76.7325006 104.4695017
  53.2739987  76.7325006 104.4695017  52.0769987  77.6595006 104.4695017
  39.4769987  92.4985006 104.1385017  40.4339987  92.4985006 104.1385017
  39.2369987  93.4255006 104.1385017  41.4729987  78.4825006 101.6885017
  42.4299987  78.4825006 101.6885017  41.2329987  79.4095006 101.6885017
  46.4499987  78.7495006 104.0185017  47.4069987  78.7495006 104.0185017
  46.2099987  79.6765006 104.0185017  48.3619987  93.8105006 102.4405017
  49.3189987  93.8105006 102.4405017  48.1219987  94.7375006 102.4405017
  55.0899987  93.3155006 105.1665017  56.0469987  93.3155006 105.1665017
  54.8499987  94.2425006 105.1665017  40.7409987  77.3095006 116.8205017
  41.6979987  77.3095006 116.8205017  40.5009987  78.2365006 116.8205017
  42.7489987  76.6905006 118.4415017  43.7059987  76.6905006 118.4415017
  42.5089987  77.6175006 118.4415017  51.1249987  75.9855006 118.6085017
  52.0819987  75.9855006 118.6085017  50.8849987  76.9125006 118.6085017
  54.3369987  92.0245006 117.2615017  55.2939987  92.0245006 117.2615017
  54.0969987  92.9515006 117.2615017  68.7559987  85.9115006 107.2915017
  69.7129987  85.9115006 107.2915017  68.5159987  86.8385006 107.2915017
  67.6369987  85.1765006 110.7345017  68.5939987  85.1765006 110.7345017
  67.3969987  86.1035006 110.7345017  59.9959987  84.8265006 112.2905017
  60.9529987  84.8265006 112.2905017  59.7559987  85.7535006 112.2905017
  71.3409987  88.1115006 109.0085017  72.2979987  88.1115006 109.0085017
  71.1009987  89.0385006 109.0085017  60.9229987  89.2755006 110.8125017
  61.8799987  89.2755006 110.8125017  60.6829987  90.2025006 110.8125017
  57.5889987  82.8625006 106.2095017  58.5459987  82.8625006 106.2095017
  57.3489987  83.7895006 106.2095017  58.2569987  85.0745006 108.3855017
  59.2139987  85.0745006 108.3855017  58.0169987  86.0015006 108.3855017
  68.4599987  93.2695006 109.2635017  69.4169987  93.2695006 109.2635017
  68.2199987  94.1965006 109.2635017  66.0159987  87.5795006 111.1795017
  66.9729987  87.5795006 111.1795017  65.7759987  88.5065006 111.1795017
  74.6349987  79.2115006 111.9475017  75.5919987  79.2115006 111.9475017
  74.3949987  80.1385006 111.9475017  69.1489987  82.0055006 111.5275017
  70.1059987  82.0055006 111.5275017  68.9089987  82.9325006 111.5275017
  70.0429987  80.3085006 107.2065017  70.9999987  80.3085006 107.2065017
  69.8029987  81.2355006 107.2065017  58.9179987  82.5275006 109.4745017
  59.8749987  82.5275006 109.4745017  58.6779987  83.4545006 109.4745017
  64.0969987  84.0695006 108.7605017  65.0539987  84.0695006 108.7605017
  63.8569987  84.9965006 108.7605017  75.0689987  80.6445006 114.2055017
  76.0259987  80.6445006 114.2055017  74.8289987  81.5715006 114.2055017
  61.1979987  79.0465006 112.8175017  62.1549987  79.0465006 112.8175017
  60.9579987  79.9735006 112.8175017  68.4849987  88.5055006 106.3315017
  69.4419987  88.5055006 106.3315017  68.2449987  89.4325006 106.3315017
  63.7229987  86.6655006 113.0375017  64.6799987  86.6655006 113.0375017
  63.4829987  87.5925006 113.0375017  71.8279987  79.5375006 109.1115017
  72.7849987  79.5375006 109.1115017  71.5879987  80.4645006 109.1115017
  60.7479987  80.8965006 110.7365017  61.7049987  80.8965006 110.7365017
  60.5079987  81.8235006 110.7365017  62.1589987  88.6555006 113.8475017
  63.1159987  88.6555006 113.8475017  61.9189987  89.5825006 113.8475017
  58.2089987  88.3175006 104.6225017  59.1659987  88.3175006 104.6225017
  57.9689987  89.2445006 104.6225017  71.8659987  89.9605006 111.4195017
  72.8229987  89.9605006 111.4195017  71.6259987  90.8875006 111.4195017
  72.1619987  78.2605006 112.8165017  73.1189987  78.2605006 112.8165017
  71.9219987  79.1875006 112.8165017  70.1289987  91.7345006 108.0225017
  71.0859987  91.7345006 108.0225017  69.8889987  92.6615006 108.0225017
  71.3109987  89.6635006 106.4945017  72.2679987  89.6635006 106.4945017
  71.0709987  90.5905006 106.4945017  72.9379987  88.2485006 114.9845017
  73.8949987  88.2485006 114.9845017  72.6979987  89.1755006 114.9845017
  67.4649987  85.2775006 104.8225017  68.4219987  85.2775006 104.8225017
  67.2249987  86.2045006 104.8225017  67.5869987  83.9315006 101.4165017
  68.5439987  83.9315006 101.4165017  67.3469987  84.8585006 101.4165017
  74.8269987  84.5515006 113.0415017  75.7839987  84.5515006 113.0415017
  74.5869987  85.4785006 113.0415017  70.9129987  85.3895006 105.7065017
  71.8699987  85.3895006 105.7065017  70.6729987  86.3165006 105.7065017
  70.7749987  83.4985006 114.8055017  71.7319987  83.4985006 114.8055017
  70.5349987  84.4255006 114.8055017  62.4959987  86.0275006 107.5875017
  63.4529987  86.0275006 107.5875017  62.2559987  86.9545006 107.5875017
  63.8259987  89.4145006 110.2705017  64.7829987  89.4145006 110.2705017
  63.5859987  90.3415006 110.2705017  62.8319987  84.7605006 111.2375017
  63.7889987  84.7605006 111.2375017  62.5919987  85.6875006 111.2375017
  69.2689987  90.3195006 111.9755017  70.2259987  90.3195006 111.9755017
  69.0289987  91.2465006 111.9755017  63.7739987  89.1845006 115.9435017
  64.7309987  89.1845006 115.9435017  63.5339987  90.1115006 115.9435017
  69.7849987  84.5915006 103.3675017  70.7419987  84.5915006 103.3675017
  69.5449987  85.5185006 103.3675017  60.7079987  85.3525006 115.1195017
  61.6649987  85.3525006 115.1195017  60.4679987  86.2795006 115.1195017
  67.4679987  91.2705006 106.8195017  68.4249987  91.2705006 106.8195017
  67.2279987  92.1975006 106.8195017  62.0149987  91.2355006 116.6975017
  62.9719987  91.2355006 116.6975017  61.7749987  92.1625006 116.6975017
  73.4369987  76.3125006 103.2275017  74.3939987  76.3125006 103.2275017
  73.1969987  77.2395006 103.2275017  61.4749987  85.0825006 105.1775017
  62.4319987  85.0825006 105.1775017  61.2349987  86.0095006 105.1775017
  74.6159987  90.6575006 101.6945017  75.5729987  90.6575006 101.6945017
  74.3759987  91.5845006 101.6945017  57.5619987  87.4645006 114.0705017
  58.5189987  87.4645006 114.0705017  57.3219987  88.3915006 114.0705017
  57.3199987  90.2075006 110.8715017  58.2769987  90.2075006 110.8715017
  57.0799987  91.1345006 110.8715017  75.5609987  90.9005006 116.5595017
  76.5179987  90.9005006 116.5595017  75.3209987  91.8275006 116.5595017
  66.5259987  90.4565006 115.4225017  67.4829987  90.4565006 115.4225017
  66.2859987  91.3835006 115.4225017  66.9459987  94.1995006 105.2275017
  67.9029987  94.1995006 105.2275017  66.7059987  95.1265006 105.2275017
  60.5859987  93.0745006 107.0505017  61.5429987  93.0745006 107.0505017
  60.3459987  94.0015006 107.0505017  69.6899987  93.3435006 104.9665017
  70.6469987  93.3435006 104.9665017  69.4499987  94.2705006 104.9665017
  72.6819987  82.3705006 117.0535017  73.6389987  82.3705006 117.0535017
  72.4419987  83.2975006 117.0535017  59.8359987  88.7825006 115.0375017
  60.7929987  88.7825006 115.0375017  59.5959987  89.7095006 115.0375017
  67.1509987  77.0335006 114.4315017  68.1079987  77.0335006 114.4315017
  66.9109987  77.9605006 114.4315017  70.4799987  80.7615006 115.2385017
  71.4369987  80.7615006 115.2385017  70.2399987  81.6885006 115.2385017
  66.7559987  79.4605006 101.6755017  67.7129987  79.4605006 101.6755017
  66.5159987  80.3875006 101.6755017  62.6089987  82.2215006 112.2135017
  63.5659987  82.2215006 112.2135017  62.3689987  83.1485006 112.2135017
  62.5649987  82.4225006 107.0605017  63.5219987  82.4225006 107.0605017
  62.3249987  83.3495006 107.0605017  68.2669987  83.0375006 106.1955017
  69.2239987  83.0375006 106.1955017  68.0269987  83.9645006 106.1955017
  67.2069987  82.9905006 117.2655017  68.1639987  82.9905006 117.2655017
  66.9669987  83.9175006 117.2655017  69.1259987  82.3275006 108.7295017
  70.0829987  82.3275006 108.7295017  68.8859987  83.2545006 108.7295017
  60.2479987  82.5045006 113.9445017  61.2049987  82.5045006 113.9445017
  60.0079987  83.4315006 113.9445017  56.8879987  79.6045006 107.8765017
  57.8449987  79.6045006 107.8765017  56.6479987  80.5315006 107.8765017
  58.1459987  80.3265006 103.2615017  59.1029987  80.3265006 103.2615017
  57.9059987  81.2535006 103.2615017  68.3669987  83.9195006 113.3095017
  69.3239987  83.9195006 113.3095017  68.1269987  84.8465006 113.3095017
  59.9309987  81.4595006 107.0005017  60.8879987  81.4595006 107.0005017
  59.6909987  82.3865006 107.0005017  63.5779987  81.5335006 104.6755017
  64.5349987  81.5335006 104.6755017  63.3379987  82.4605006 104.6755017
  69.5449987  79.1205006 111.3675017  70.5019987  79.1205006 111.3675017
  69.3049987  80.0475006 111.3675017  62.2419987  82.7145006 102.1655017
  63.1989987  82.7145006 102.1655017  62.0019987  83.6415006 102.1655017
  72.7499987  94.7545006 117.6695017  73.7069987  94.7545006 117.6695017
  72.5099987  95.6815006 117.6695017  60.4239987  87.2345006 117.2485017
  61.3809987  87.2345006 117.2485017  60.1839987  88.1615006 117.2485017
  66.4359987  82.6585006 110.0065017  67.3929987  82.6585006 110.0065017
  66.1959987  83.5855006 110.0065017  65.0869987  80.9865006 112.4515017
  66.0439987  80.9865006 112.4515017  64.8469987  81.9135006 112.4515017
  65.5849987  87.2545006 104.0825017  66.5419987  87.2545006 104.0825017
  65.3449987  88.1815006 104.0825017  72.8149987  86.3845006 112.9185017
  73.7719987  86.3845006 112.9185017  72.5749987  87.3115006 112.9185017
  67.1369987  87.4555006 115.3555017  68.0939987  87.4555006 115.3555017
  66.8969987  88.3825006 115.3555017  70.4659987  81.7895006 103.8575017
  71.4229987  81.7895006 103.8575017  70.2259987  82.7165006 103.8575017
  60.7499987  86.5775006 109.9105017  61.7069987  86.5775006 109.9105017
  60.5099987  87.5045006 109.9105017  67.7319987  88.7005006 103.1515017
  68.6889987  88.7005006 103.1515017  67.4919987  89.6275006 103.1515017
  57.7429987  85.0065006 115.1835017  58.6999987  85.0065006 115.1835017
  57.5029987  85.9335006 115.1835017  64.7589987  84.5415006 117.3775017
  65.7159987  84.5415006 117.3775017  64.5189987  85.4685006 117.3775017
  69.4369987  89.9625006 115.2765017  70.3939987  89.9625006 115.2765017
  69.1969987  90.8895006 115.2765017  75.1369987  82.0855006 103.6585017
  76.0939987  82.0855006 103.6585017  74.8969987  83.0125006 103.6585017
  75.0999987  87.9255006 116.5145017  76.0569987  87.9255006 116.5145017
  74.8599987  88.8525006 116.5145017  73.4229987  90.9215006 104.1255017
  74.3799987  90.9215006 104.1255017  73.1829987  91.8485006 104.1255017
  70.5979987  85.7185006 111.1915017  71.5549987  85.7185006 111.1915017
  70.3579987  86.6455006 111.1915017  63.1229987  90.0395006 107.2805017
  64.0799987  90.0395006 107.2805017  62.8829987  90.9665006 107.2805017
  64.5549987  87.7085006 106.8455017  65.5119987  87.7085006 106.8455017
  64.3149987  88.6355006 106.8455017  65.0039987  91.8905006 113.2085017
  65.9609987  91.8905006 113.2085017  64.7639987  92.8175006 113.2085017
  63.2339987  92.7225006 106.3585017  64.1909987  92.7225006 106.3585017
  62.9939987  93.6495006 106.3585017  68.5659987  87.9505006 112.8685017
  69.5229987  87.9505006 112.8685017  68.3259987  88.8775006 112.8685017
  71.3749987  92.3735006 115.5915017  72.3319987  92.3735006 115.5915017
  71.1349987  93.3005006 115.5915017  75.3169987  93.3535006 102.1985017
  76.2739987  93.3535006 102.1985017  75.0769987  94.2805006 102.1985017
  59.3979987  79.7455006 114.7415017  60.3549987  79.7455006 114.7415017
  59.1579987  80.6725006 114.7415017  71.6439987  87.5935006 104.2395017
  72.6009987  87.5935006 104.2395017  71.4039987  88.5205006 104.2395017
  59.0199987  91.5355006 113.1615017  59.9769987  91.5355006 113.1615017
  58.7799987  92.4625006 113.1615017  68.1209987  79.3975006 113.4845017
  69.0779987  79.3975006 113.4845017  67.8809987  80.3245006 113.4845017
  66.5689987  91.2255006 103.5475017  67.5259987  91.2255006 103.5475017
  66.3289987  92.1525006 103.5475017  66.0259987  80.8325006 105.6295017
  66.9829987  80.8325006 105.6295017  65.7859987  81.7595006 105.6295017
  66.5489987  81.9735006 114.7275017  67.5059987  81.9735006 114.7275017
  66.3089987  82.9005006 114.7275017  63.9439987  92.3025006 103.6035017
  64.9009987  92.3025006 103.6035017  63.7039987  93.2295006 103.6035017
  72.8419987  79.7215006 115.6225017  73.7989987  79.7215006 115.6225017
  72.6019987  80.6485006 115.6225017  71.4419987  83.5155006 109.6565017
  72.3989987  83.5155006 109.6565017  71.2019987  84.4425006 109.6565017
  59.1549987  82.0945006 101.4045017  60.1119987  82.0945006 101.4045017
  58.9149987  83.0215006 101.4045017  72.4789987  92.8145006 111.3785017
  73.4359987  92.8145006 111.3785017  72.2389987  93.7415006 111.3785017
  59.9559987  76.9185006 110.0655017  60.9129987  76.9185006 110.0655017
  59.7159987  77.8455006 110.0655017  58.9479987  90.8275006 106.2695017
  59.9049987  90.8275006 106.2695017  58.7079987  91.7545006 106.2695017
  58.1829987  93.4645006 117.5475017  59.1399987  93.4645006 117.5475017
  57.9429987  94.3915006 117.5475017  62.8379987  92.3815006 119.1635017
  63.7949987  92.3815006 119.1635017  62.5979987  93.3085006 119.1635017
  66.9769987  91.8865006 100.5715017  67.9339987  91.8865006 100.5715017
  66.7369987  92.8135006 100.5715017  69.3829987  90.7575006 117.8845017
  70.3399987  90.7575006 117.8845017  69.1429987  91.6845006 117.8845017
  58.1039987  87.2465006 118.5315017  59.0609987  87.2465006 118.5315017
  57.8639987  88.1735006 118.5315017  64.8009987  87.2255006 117.9285017
  65.7579987  87.2255006 117.9285017  64.5609987  88.1525006 117.9285017
  67.7099987  88.6915006 100.3615017  68.6669987  88.6915006 100.3615017
  67.4699987  89.6185006 100.3615017  70.4999987  87.0845006 115.3175017
  71.4569987  87.0845006 115.3175017  70.2599987  88.0115006 115.3175017
  58.9949987  84.4665006 117.9195017  59.9519987  84.4665006 117.9195017
  58.7549987  85.3935006 117.9195017  62.8939987  83.4275006 115.2835017
  63.8509987  83.4275006 115.2835017  62.6539987  84.3545006 115.2835017
  64.6909987  83.8635006 101.1925017  65.6479987  83.8635006 101.1925017
  64.4509987  84.7905006 101.1925017  67.9599987  85.9815006 118.6085017
  68.9169987  85.9815006 118.6085017  67.7199987  86.9085006 118.6085017
  63.3349987  80.8095006 116.3565017  64.2919987  80.8095006 116.3565017
  63.0949987  81.7365006 116.3565017  63.7109987  79.2105006 113.8985017
  64.6679987  79.2105006 113.8985017  63.4709987  80.1375006 113.8985017
  65.2599987  84.6335006 114.1345017  66.2169987  84.6335006 114.1345017
  65.0199987  85.5605006 114.1345017  69.6539987  82.4315006 119.0775017
  70.6109987  82.4315006 119.0775017  69.4139987  83.3585006 119.0775017
  70.9709987  85.1885006 117.2325017  71.9279987  85.1885006 117.2325017
  70.7309987  86.1155006 117.2325017  61.7509987  82.0375006 118.2715017
  62.7079987  82.0375006 118.2715017  61.5109987  82.9645006 118.2715017
  64.5159987  76.6475006 114.3285017  65.4729987  76.6475006 114.3285017
  64.2759987  77.5745006 114.3285017  65.7649987  80.9255006 117.8615017
  66.7219987  80.9255006 117.8615017  65.5249987  81.8525006 117.8615017
  68.4169987  80.1215006 117.8615017  69.3739987  80.1215006 117.8615017
  68.1769987  81.0485006 117.8615017  70.1859987  78.6555006 118.9375017
  71.1429987  78.6555006 118.9375017  69.9459987  79.5825006 118.9375017
  59.8559987  79.9625006 117.9995017  60.8129987  79.9625006 117.9995017
  59.6159987  80.8895006 117.9995017  64.7389987  76.0045006 116.9855017
  65.6959987  76.0045006 116.9855017  64.4989987  76.9315006 116.9855017
  65.0869987  77.6275006 119.0585017  66.0439987  77.6275006 119.0585017
  64.8469987  78.5545006 119.0585017  56.8699987  94.5115006 106.7165017
  57.8269987  94.5115006 106.7165017  56.6299987  95.4385006 106.7165017
  57.6949987  92.6185006 108.5665017  58.6519987  92.6185006 108.5665017
  57.4549987  93.5455006 108.5665017  75.2199987  93.4165006 111.5195017
  76.1769987  93.4165006 111.5195017  74.9799987  94.3435006 111.5195017
  74.7519987  93.0075006 114.4775017  75.7089987  93.0075006 114.4775017
  74.5119987  93.9345006 114.4775017  73.2539987  88.7455006 119.1185017
  74.2109987  88.7455006 119.1185017  73.0139987  89.6725006 119.1185017
  74.5849987  87.0145006 104.5475017  75.5419987  87.0145006 104.5475017
  74.3449987  87.9415006 104.5475017  74.9299987  85.1255006 106.4205017
  75.8869987  85.1255006 106.4205017  74.6899987  86.0525006 106.4205017
  74.6939987  87.8405006 111.4225017  75.6509987  87.8405006 111.4225017
  74.4539987  88.7675006 111.4225017  73.2179987  90.7805006 113.6815017
  74.1749987  90.7805006 113.6815017  72.9779987  91.7075006 113.6815017
  75.2099987  84.9305006 102.8215017  76.1669987  84.9305006 102.8215017
  74.9699987  85.8575006 102.8215017  72.7539987  83.6095006 107.0055017
  73.7109987  83.6095006 107.0055017  72.5139987  84.5365006 107.0055017
  57.7509987  85.6935006 111.0565017  58.7079987  85.6935006 111.0565017
  57.5109987  86.6205006 111.0565017  73.5939987  85.5825006 116.6745017
  74.5509987  85.5825006 116.6745017  73.3539987  86.5095006 116.6745017
  75.0979987  83.4695006 117.3445017  76.0549987  83.4695006 117.3445017
  74.8579987  84.3965006 117.3445017  72.4599987  81.2065006 105.4815017
  73.4169987  81.2065006 105.4815017  72.2199987  82.1335006 105.4815017
  73.0489987  81.7405006 110.9065017  74.0059987  81.7405006 110.9065017
  72.8089987  82.6675006 110.9065017  73.1119987  82.4645006 113.7015017
  74.0689987  82.4645006 113.7015017  72.8719987  83.3915006 113.7015017
  57.3689987  80.9915006 117.2015017  58.3259987  80.9915006 117.2015017
  57.1289987  81.9185006 117.2015017  75.3819987  76.5065006 119.0445017
  76.3389987  76.5065006 119.0445017  75.1419987  77.4335006 119.0445017
  73.1069987  78.4455006 105.4645017  74.0639987  78.4455006 105.4645017
  72.8669987  79.3725006 105.4645017  58.5559987  79.2745006 110.0475017
  59.5129987  79.2745006 110.0475017  58.3159987  80.2015006 110.0475017
  56.8549987  82.2765006 111.1155017  57.8119987  82.2765006 111.1155017
  56.6149987  83.2035006 111.1155017  74.9099987  78.6155006 117.3945017
  75.8669987  78.6155006 117.3945017  74.6699987  79.5425006 117.3945017
  74.9119987  78.4985006 102.0475017  75.8689987  78.4985006 102.0475017
  74.6719987  79.4255006 102.0475017  57.1709987  78.4975006 105.1985017
  58.1279987  78.4975006 105.1985017  56.9309987  79.4245006 105.1985017
  71.9539987  93.4985006 107.1185017  72.9109987  93.4985006 107.1185017
  71.7139987  94.4255006 107.1185017  57.1749987  77.2175006 113.4985017
  58.1319987  77.2175006 113.4985017  56.9349987  78.1445006 113.4985017
  59.3939987  90.4075006 117.6475017  60.3509987  90.4075006 117.6475017
  59.1539987  91.3345006 117.6475017  62.3129987  91.4035006 113.9225017
  63.2699987  91.4035006 113.9225017  62.0729987  92.3305006 113.9225017
  66.6339987  92.8245006 116.8305017  67.5909987  92.8245006 116.8305017
  66.3939987  93.7515006 116.8305017  68.9699987  94.1145006 116.0735017
  69.9269987  94.1145006 116.0735017  68.7299987  95.0415006 116.0735017
  73.9289987  76.7075006 115.2305017  74.8859987  76.7075006 115.2305017
  73.6889987  77.6345006 115.2305017  59.7319987  94.6485006 113.9305017
  60.6889987  94.6485006 113.9305017  59.4919987  95.5755006 113.9305017
  62.2069987  94.2315006 112.9945017  63.1639987  94.2315006 112.9945017
  61.9669987  95.1585006 112.9945017  66.7779987  94.2085006 112.1595017
  67.7349987  94.2085006 112.1595017  66.5379987  95.1355006 112.1595017
  68.6369987  92.7795006 112.7515017  69.5939987  92.7795006 112.7515017
  68.3969987  93.7065006 112.7515017  72.2879987  94.7965006 113.3445017
  73.2449987  94.7965006 113.3445017  72.0479987  95.7235006 113.3445017
  59.1659987  93.2975006 110.8615017  60.1229987  93.2975006 110.8615017
  58.9259987  94.2245006 110.8615017  61.2599987  92.0085006 109.5135017
  62.2169987  92.0085006 109.5135017  61.0199987  92.9355006 109.5135017
  63.8229987  92.4865006 110.3795017  64.7799987  92.4865006 110.3795017
  63.5829987  93.4135006 110.3795017  67.3529987  78.1325006 109.5675017
  68.3099987  78.1325006 109.5675017  67.1129987  79.0595006 109.5675017
  72.4629987  76.2085006 109.6135017  73.4199987  76.2085006 109.6135017
  72.2229987  77.1355006 109.6135017  74.1459987  77.4115006 107.9185017
  75.1029987  77.4115006 107.9185017  73.9059987  78.3385006 107.9185017
  69.8319987  76.7055006 108.8005017  70.7889987  76.7055006 108.8005017
  69.5919987  77.6325006 108.8005017  58.3719987  92.4925006 104.0865017
  59.3289987  92.4925006 104.0865017  58.1319987  93.4195006 104.0865017
  67.2499987  93.7205006 102.4695017  68.2069987  93.7205006 102.4695017
  67.0099987  94.6475006 102.4695017  73.9399987  93.3145006 105.1575017
  74.8969987  93.3145006 105.1575017  73.6999987  94.2415006 105.1575017
  59.5639987  77.3135006 116.8445017  60.5209987  77.3135006 116.8445017
  59.3239987  78.2405006 116.8445017  61.5829987  76.6885006 118.4615017
  62.5399987  76.6885006 118.4615017  61.3429987  77.6155006 118.4615017
  69.9899987  75.9925006 118.5915017  70.9469987  75.9925006 118.5915017
  69.7499987  76.9195006 118.5915017  73.2189987  92.0215006 117.2785017
  74.1759987  92.0215006 117.2785017  72.9789987  92.9485006 117.2785017
  87.6119987  85.9085006 107.2625017  88.5689987  85.9085006 107.2625017
  87.3719987  86.8355006 107.2625017  86.4899987  85.1725006 110.7335017
  87.4469987  85.1725006 110.7335017  86.2499987  86.0995006 110.7335017
  78.8519987  84.8265006 112.2905017  79.8089987  84.8265006 112.2905017
  78.6119987  85.7535006 112.2905017  90.1939987  88.1105006 109.0145017
  91.1509987  88.1105006 109.0145017  89.9539987  89.0375006 109.0145017
  79.7789987  89.2755006 110.8125017  80.7359987  89.2755006 110.8125017
  79.5389987  90.2025006 110.8125017  76.4389987  82.8555006 106.2185017
  77.3959987  82.8555006 106.2185017  76.1989987  83.7825006 106.2185017
  77.1169987  85.0685006 108.4035017  78.0739987  85.0685006 108.4035017
  76.8769987  85.9955006 108.4035017  87.3059987  93.2605006 109.2515017
  88.2629987  93.2605006 109.2515017  87.0659987  94.1875006 109.2515017
  84.8719987  87.5785006 111.1795017  85.8289987  87.5785006 111.1795017
  84.6319987  88.5055006 111.1795017  93.4929987  79.2145006 111.9495017
  94.4499987  79.2145006 111.9495017  93.2529987  80.1415006 111.9495017
  88.0359987  82.0335006 111.5055017  88.9929987  82.0335006 111.5055017
  87.7959987  82.9605006 111.5055017  81.1579987  80.1155006 108.7375017
  82.1149987  80.1155006 108.7375017  80.9179987  81.0425006 108.7375017
  88.8869987  80.2195006 107.0975017  89.8439987  80.2195006 107.0975017
  88.6469987  81.1465006 107.0975017  77.7819987  82.5315006 109.4815017
  78.7389987  82.5315006 109.4815017  77.5419987  83.4585006 109.4815017
  82.9429987  84.0785006 108.7765017  83.8999987  84.0785006 108.7765017
  82.7029987  85.0055006 108.7765017  93.9299987  80.6515006 114.2095017
  94.8869987  80.6515006 114.2095017  93.6899987  81.5785006 114.2095017
  80.0459987  79.0175006 112.7825017  81.0029987  79.0175006 112.7825017
  79.8059987  79.9445006 112.7825017  87.3579987  88.5095006 106.3305017
  88.3149987  88.5095006 106.3305017  87.1179987  89.4365006 106.3305017
  82.5779987  86.6655006 113.0375017  83.5349987  86.6655006 113.0375017
  82.3379987  87.5925006 113.0375017  90.6729987  79.5505006 109.0965017
  91.6299987  79.5505006 109.0965017  90.4329987  80.4775006 109.0965017
  79.6079987  80.8875006 110.7905017  80.5649987  80.8875006 110.7905017
  79.3679987  81.8145006 110.7905017  81.0149987  88.6555006 113.8475017
  81.9719987  88.6555006 113.8475017  80.7749987  89.5825006 113.8475017
  77.0809987  88.2825006 104.6485017  78.0379987  88.2825006 104.6485017
  76.8409987  89.2095006 104.6485017  90.7019987  89.9425006 111.3655017
  91.6589987  89.9425006 111.3655017  90.4619987  90.8695006 111.3655017
  91.0339987  78.2365006 112.7805017  91.9909987  78.2365006 112.7805017
  90.7939987  79.1635006 112.7805017  84.0149987  76.3475006 110.2405017
  84.9719987  76.3475006 110.2405017  83.7749987  77.2745006 110.2405017
  88.9789987  91.7345006 107.9975017  89.9359987  91.7345006 107.9975017
  88.7389987  92.6615006 107.9975017  90.1989987  89.6645006 106.5175017
  91.1559987  89.6645006 106.5175017  89.9589987  90.5915006 106.5175017
  91.7659987  88.2375006 114.9865017  92.7229987  88.2375006 114.9865017
  91.5259987  89.1645006 114.9865017  86.2999987  85.0955006 104.7175017
  87.2569987  85.0955006 104.7175017  86.0599987  86.0225006 104.7175017
  93.6659987  84.5355006 113.0295017  94.6229987  84.5355006 113.0295017
  93.4259987  85.4625006 113.0295017  89.7279987  85.3615006 105.6815017
  90.6849987  85.3615006 105.6815017  89.4879987  86.2885006 105.6815017
  89.6639987  83.5235006 114.7865017  90.6209987  83.5235006 114.7865017
  89.4239987  84.4505006 114.7865017  81.3539987  86.0215006 107.5915017
  82.3109987  86.0215006 107.5915017  81.1139987  86.9485006 107.5915017
  82.6829987  89.4165006 110.2705017  83.6399987  89.4165006 110.2705017
  82.4429987  90.3435006 110.2705017  81.6919987  84.7625006 111.2395017
  82.6489987  84.7625006 111.2395017  81.4519987  85.6895006 111.2395017
  88.0749987  90.3245006 111.9475017  89.0319987  90.3245006 111.9475017
  87.8349987  91.2515006 111.9475017  82.6299987  89.1845006 115.9435017
  83.5869987  89.1845006 115.9435017  82.3899987  90.1115006 115.9435017
  79.5639987  85.3515006 115.1195017  80.5209987  85.3515006 115.1195017
  79.3239987  86.2785006 115.1195017  86.3169987  91.2685006 106.8525017
  87.2739987  91.2685006 106.8525017  86.0769987  92.1955006 106.8525017
  80.8729987  91.2355006 116.6975017  81.8299987  91.2355006 116.6975017
  80.6329987  92.1625006 116.6975017  80.3329987  85.0695006 105.2065017
  81.2899987  85.0695006 105.2065017  80.0929987  85.9965006 105.2065017
  93.4599987  90.6555006 101.6735017  94.4169987  90.6555006 101.6735017
  93.2199987  91.5825006 101.6735017  76.4149987  87.4595006 114.0705017
  77.3719987  87.4595006 114.0705017  76.1749987  88.3865006 114.0705017
  76.1759987  90.2055006 110.8755017  77.1329987  90.2055006 110.8755017
  75.9359987  91.1325006 110.8755017  94.4169987  90.9115006 116.6255017
  95.3739987  90.9115006 116.6255017  94.1769987  91.8385006 116.6255017
  85.3699987  90.4475006 115.4255017  86.3269987  90.4475006 115.4255017
  85.1299987  91.3745006 115.4255017  85.7649987  94.1865006 105.2155017
  86.7219987  94.1865006 105.2155017  85.5249987  95.1135006 105.2155017
  79.4479987  93.0645006 107.0315017  80.4049987  93.0645006 107.0315017
  79.2079987  93.9915006 107.0315017  88.8239987  93.3915006 102.2105017
  89.7809987  93.3915006 102.2105017  88.5839987  94.3185006 102.2105017
  88.5459987  93.3635006 105.0175017  89.5029987  93.3635006 105.0175017
  88.3059987  94.2905006 105.0175017  91.5579987  82.3785006 117.0405017
  92.5149987  82.3785006 117.0405017  91.3179987  83.3055006 117.0405017
  78.6919987  88.7825006 115.0365017  79.6489987  88.7825006 115.0365017
  78.4519987  89.7095006 115.0365017  81.3619987  77.2435006 111.0015017
  82.3189987  77.2435006 111.0015017  81.1219987  78.1705006 111.0015017
  86.0079987  76.9345006 114.3675017  86.9649987  76.9345006 114.3675017
  85.7679987  77.8615006 114.3675017  89.3069987  80.7515006 115.2415017
  90.2639987  80.7515006 115.2415017  89.0669987  81.6785006 115.2415017
  85.5029987  79.4165006 101.6995017  86.4599987  79.4165006 101.6995017
  85.2629987  80.3435006 101.6995017  81.4629987  82.2135006 112.2105017
  82.4199987  82.2135006 112.2105017  81.2229987  83.1405006 112.2105017
  81.4229987  82.3725006 107.0915017  82.3799987  82.3725006 107.0915017
  81.1829987  83.2995006 107.0915017  86.9319987  82.8065006 105.8365017
  87.8889987  82.8065006 105.8365017  86.6919987  83.7335006 105.8365017
  86.0239987  83.0445006 117.3295017  86.9809987  83.0445006 117.3295017
  85.7839987  83.9715006 117.3295017  87.9769987  82.3245006 108.7015017
  88.9339987  82.3245006 108.7015017  87.7369987  83.2515006 108.7015017
  79.1089987  82.4975006 113.9425017  80.0659987  82.4975006 113.9425017
  78.8689987  83.4245006 113.9425017  75.7539987  79.6095006 107.8835017
  76.7109987  79.6095006 107.8835017  75.5139987  80.5365006 107.8835017
  87.1929987  83.9275006 113.2975017  88.1499987  83.9275006 113.2975017
  86.9529987  84.8545006 113.2975017  83.9869987  79.8825006 108.1125017
  84.9439987  79.8825006 108.1125017  83.7469987  80.8095006 108.1125017
  78.8039987  81.4635006 106.9625017  79.7609987  81.4635006 106.9625017
  78.5639987  82.3905006 106.9625017  82.4239987  81.5335006 104.6295017
  83.3809987  81.5335006 104.6295017  82.1839987  82.4605006 104.6295017
  88.3969987  79.1215006 111.3625017  89.3539987  79.1215006 111.3625017
  88.1569987  80.0485006 111.3625017  81.1449987  82.6675006 102.1995017
  82.1019987  82.6675006 102.1995017  80.9049987  83.5945006 102.1995017
  91.6109987  94.7725006 117.6775017  92.5679987  94.7725006 117.6775017
  91.3709987  95.6995006 117.6775017  79.2799987  87.2345006 117.2485017
  80.2369987  87.2345006 117.2485017  79.0399987  88.1615006 117.2485017
  85.2789987  82.6495006 110.0075017  86.2359987  82.6495006 110.0075017
  85.0389987  83.5765006 110.0075017  80.2709987  78.7905006 106.4235017
  81.2279987  78.7905006 106.4235017  80.0309987  79.7175006 106.4235017
  83.9179987  80.9895006 112.4205017  84.8749987  80.9895006 112.4205017
  83.6779987  81.9165006 112.4205017  84.5019987  87.1575006 104.1275017
  85.4589987  87.1575006 104.1275017  84.2619987  88.0845006 104.1275017
  91.6619987  86.3735006 112.9125017  92.6189987  86.3735006 112.9125017
  91.4219987  87.3005006 112.9125017  85.9909987  87.4535006 115.3545017
  86.9479987  87.4535006 115.3545017  85.7509987  88.3805006 115.3545017
  79.6039987  86.5815006 109.9105017  80.5609987  86.5815006 109.9105017
  79.3639987  87.5085006 109.9105017  76.5919987  85.0065006 115.1855017
  77.5489987  85.0065006 115.1855017  76.3519987  85.9335006 115.1855017
  83.6129987  84.5585006 117.3745017  84.5699987  84.5585006 117.3745017
  83.3729987  85.4855006 117.3745017  88.2839987  89.8895006 115.2975017
  89.2409987  89.8895006 115.2975017  88.0439987  90.8165006 115.2975017
  93.9839987  82.1115006 103.6745017  94.9409987  82.1115006 103.6745017
  93.7439987  83.0385006 103.6745017  93.9509987  87.9375006 116.5195017
  94.9079987  87.9375006 116.5195017  93.7109987  88.8645006 116.5195017
  92.2569987  90.9155006 104.1155017  93.2139987  90.9155006 104.1155017
  92.0169987  91.8425006 104.1155017  89.4569987  85.7275006 111.1925017
  90.4139987  85.7275006 111.1925017  89.2169987  86.6545006 111.1925017
  81.9619987  90.0485006 107.3145017  82.9189987  90.0485006 107.3145017
  81.7219987  90.9755006 107.3145017  83.4129987  87.7115006 106.8405017
  84.3699987  87.7115006 106.8405017  83.1729987  88.6385006 106.8405017
  83.8569987  91.8925006 113.2145017  84.8139987  91.8925006 113.2145017
  83.6169987  92.8195006 113.2145017  82.0799987  92.7135006 106.3695017
  83.0369987  92.7135006 106.3695017  81.8399987  93.6405006 106.3695017
  87.4009987  87.9215006 112.8565017  88.3579987  87.9215006 112.8565017
  87.1609987  88.8485006 112.8565017  90.1699987  92.4905006 115.3495017
  91.1269987  92.4905006 115.3495017  89.9299987  93.4175006 115.3495017
  78.2519987  79.7415006 114.7315017  79.2089987  79.7415006 114.7315017
  78.0119987  80.6685006 114.7315017  90.5079987  87.5875006 104.2055017
  91.4649987  87.5875006 104.2055017  90.2679987  88.5145006 104.2055017
  77.8719987  91.5355006 113.1625017  78.8289987  91.5355006 113.1625017
  77.6319987  92.4625006 113.1625017  83.6069987  90.0145006 100.3805017
  84.5639987  90.0145006 100.3805017  83.3669987  90.9415006 100.3805017
  82.6129987  89.5715006 102.8715017  83.5699987  89.5715006 102.8715017
  82.3729987  90.4985006 102.8715017  79.1389987  86.8225006 103.3525017
  80.0959987  86.8225006 103.3525017  78.8989987  87.7495006 103.3525017
  86.9779987  79.5065006 113.6685017  87.9349987  79.5065006 113.6685017
  86.7379987  80.4335006 113.6685017  87.7509987  79.1385006 104.7515017
  88.7079987  79.1385006 104.7515017  87.5109987  80.0655006 104.7515017
  85.4229987  91.3145006 103.6575017  86.3799987  91.3145006 103.6575017
  85.1829987  92.2415006 103.6575017  84.9549987  80.8495006 105.5775017
  85.9119987  80.8495006 105.5775017  84.7149987  81.7765006 105.5775017
  85.5069987  81.8575006 114.7725017  86.4639987  81.8575006 114.7725017
  85.2669987  82.7845006 114.7725017  85.8259987  77.9095006 106.4895017
  86.7829987  77.9095006 106.4895017  85.5859987  78.8365006 106.4895017
  82.7859987  92.3125006 103.6085017  83.7429987  92.3125006 103.6085017
  82.5459987  93.2395006 103.6085017  91.6999987  79.7305006 115.6275017
  92.6569987  79.7305006 115.6275017  91.4599987  80.6575006 115.6275017
  90.2959987  83.5215006 109.6785017  91.2529987  83.5215006 109.6785017
  90.0559987  84.4485006 109.6785017  91.3659987  92.7695006 111.3165017
  92.3229987  92.7695006 111.3165017  91.1259987  93.6965006 111.3165017
  78.8669987  76.8965006 110.0975017  79.8239987  76.8965006 110.0975017
  78.6269987  77.8235006 110.0975017  77.8089987  90.8105006 106.2405017
  78.7659987  90.8105006 106.2405017  77.5689987  91.7375006 106.2405017
  77.0369987  93.4645006 117.5455017  77.9939987  93.4645006 117.5455017
  76.7969987  94.3915006 117.5455017  81.6939987  92.3835006 119.1625017
  82.6509987  92.3835006 119.1625017  81.4539987  93.3105006 119.1625017
  88.2259987  90.7625006 117.8945017  89.1829987  90.7625006 117.8945017
  87.9859987  91.6895006 117.8945017  90.3869987  91.6635006 100.7735017
  91.3439987  91.6635006 100.7735017  90.1469987  92.5905006 100.7735017
  76.9589987  87.2475006 118.5325017  77.9159987  87.2475006 118.5325017
  76.7189987  88.1745006 118.5325017  83.6549987  87.2265006 117.9305017
  84.6119987  87.2265006 117.9305017  83.4149987  88.1535006 117.9305017
  89.3419987  87.0935006 115.3215017  90.2989987  87.0935006 115.3215017
  89.1019987  88.0205006 115.3215017  77.8299987  84.4635006 117.9175017
  78.7869987  84.4635006 117.9175017  77.5899987  85.3905006 117.9175017
  82.4689987  85.5825006 102.9905017  83.4259987  85.5825006 102.9905017
  82.2289987  86.5095006 102.9905017  81.7609987  83.4225006 115.2855017
  82.7179987  83.4225006 115.2855017  81.5209987  84.3495006 115.2855017
  83.5239987  83.8375006 101.1795017  84.4809987  83.8375006 101.1795017
  83.2839987  84.7645006 101.1795017  86.8179987  85.9675006 118.6005017
  87.7749987  85.9675006 118.6005017  86.5779987  86.8945006 118.6005017
  82.1549987  80.7995006 116.3435017  83.1119987  80.7995006 116.3435017
  81.9149987  81.7265006 116.3435017  82.5549987  79.1725006 113.8855017
  83.5119987  79.1725006 113.8855017  82.3149987  80.0995006 113.8855017
  84.1049987  84.6425006 114.1315017  85.0619987  84.6425006 114.1315017
  83.8649987  85.5695006 114.1315017  88.5089987  82.4295006 119.0865017
  89.4659987  82.4295006 119.0865017  88.2689987  83.3565006 119.0865017
  89.8369987  85.2035006 117.2415017  90.7939987  85.2035006 117.2415017
  89.5969987  86.1305006 117.2415017  80.6049987  82.0455006 118.2595017
  81.5619987  82.0455006 118.2595017  80.3649987  82.9725006 118.2595017
  83.3449987  76.6085006 114.3015017  84.3019987  76.6085006 114.3015017
  83.1049987  77.5355006 114.3015017  84.6109987  80.9475006 117.8745017
  85.5679987  80.9475006 117.8745017  84.3709987  81.8745006 117.8745017
  87.3359987  80.0745006 116.9715017  88.2929987  80.0745006 116.9715017
  87.0959987  81.0015006 116.9715017  88.9489987  78.7025006 118.9025017
  89.9059987  78.7025006 118.9025017  88.7089987  79.6295006 118.9025017
  78.7099987  79.9645006 118.0005017  79.6669987  79.9645006 118.0005017
  78.4699987  80.8915006 118.0005017  83.5589987  75.9775006 116.9815017
  84.5159987  75.9775006 116.9815017  83.3189987  76.9045006 116.9815017
  83.9099987  77.5935006 119.0695017  84.8669987  77.5935006 119.0695017
  83.6699987  78.5205006 119.0695017  75.7209987  94.5005006 106.7155017
  76.6779987  94.5005006 106.7155017  75.4809987  95.4275006 106.7155017
  76.5509987  92.6175006 108.5655017  77.5079987  92.6175006 108.5655017
  76.3109987  93.5445006 108.5655017  94.0609987  93.4495006 111.5085017
  95.0179987  93.4495006 111.5085017  93.8209987  94.3765006 111.5085017
  93.6499987  93.0035006 114.4745017  94.6069987  93.0035006 114.4745017
  93.4099987  93.9305006 114.4745017  92.1069987  88.7425006 119.1155017
  93.0639987  88.7425006 119.1155017  91.8669987  89.6695006 119.1155017
  93.4369987  87.0475006 104.5685017  94.3939987  87.0475006 104.5685017
  93.1969987  87.9745006 104.5685017  93.8189987  85.1155006 106.4195017
  94.7759987  85.1155006 106.4195017  93.5789987  86.0425006 106.4195017
  93.5129987  87.8375006 111.3765017  94.4699987  87.8375006 111.3765017
  93.2729987  88.7645006 111.3765017  92.0819987  90.7455006 113.7055017
  93.0389987  90.7455006 113.7055017  91.8419987  91.6725006 113.7055017
  92.4059987  82.2345006 101.3655017  93.3629987  82.2345006 101.3655017
  92.1659987  83.1615006 101.3655017  91.6119987  83.6145006 107.0025017
  92.5689987  83.6145006 107.0025017  91.3719987  84.5415006 107.0025017
  76.6059987  85.6955006 111.0585017  77.5629987  85.6955006 111.0585017
  76.3659987  86.6225006 111.0585017  92.4549987  85.5875006 116.6825017
  93.4119987  85.5875006 116.6825017  92.2149987  86.5145006 116.6825017
  93.9779987  83.4725006 117.3655017  94.9349987  83.4725006 117.3655017
  93.7379987  84.3995006 117.3655017  91.6379987  79.7485006 100.6145017
  92.5949987  79.7485006 100.6145017  91.3979987  80.6755006 100.6145017
  91.2609987  81.1755006 105.4545017  92.2179987  81.1755006 105.4545017
  91.0209987  82.1025006 105.4545017  91.9049987  81.7395006 110.9065017
  92.8619987  81.7395006 110.9065017  91.6649987  82.6665006 110.9065017
  91.9679987  82.4585006 113.6905017  92.9249987  82.4585006 113.6905017
  91.7279987  83.3855006 113.6905017  76.2169987  80.9915006 117.2045017
  77.1739987  80.9915006 117.2045017  75.9769987  81.9185006 117.2045017
  94.2369987  76.5075006 119.0425017  95.1939987  76.5075006 119.0425017
  93.9969987  77.4345006 119.0425017  91.9149987  78.4655006 105.5115017
  92.8719987  78.4655006 105.5115017  91.6749987  79.3925006 105.5115017
  77.4229987  79.2835006 110.0645017  78.3799987  79.2835006 110.0645017
  77.1829987  80.2105006 110.0645017  75.7119987  82.2765006 111.1145017
  76.6689987  82.2765006 111.1145017  75.4719987  83.2035006 111.1145017
  93.7719987  78.6235006 117.3915017  94.7289987  78.6235006 117.3915017
  93.5319987  79.5505006 117.3915017  76.0789987  78.5425006 105.1425017
  77.0359987  78.5425006 105.1425017  75.8389987  79.4695006 105.1425017
  90.8189987  93.5015006 107.1245017  91.7759987  93.5015006 107.1245017
  90.5789987  94.4285006 107.1245017  76.0289987  77.2215006 113.4905017
  76.9859987  77.2215006 113.4905017  75.7889987  78.1485006 113.4905017
  78.2509987  90.4075006 117.6475017  79.2079987  90.4075006 117.6475017
  78.0109987  91.3345006 117.6475017  81.1599987  91.4025006 113.9225017
  82.1169987  91.4025006 113.9225017  80.9199987  92.3295006 113.9225017
  85.4809987  92.8275006 116.8375017  86.4379987  92.8275006 116.8375017
  85.2409987  93.7545006 116.8375017  87.7789987  94.0975006 116.1265017
  88.7359987  94.0975006 116.1265017  87.5389987  95.0245006 116.1265017
  92.7799987  76.7105006 115.2305017  93.7369987  76.7105006 115.2305017
  92.5399987  77.6375006 115.2305017  78.5799987  94.6535006 113.9315017
  79.5369987  94.6535006 113.9315017  78.3399987  95.5805006 113.9315017
  81.0569987  94.2305006 112.9935017  82.0139987  94.2305006 112.9935017
  80.8169987  95.1575006 112.9935017  85.7589987  94.1395006 112.1615017
  86.7159987  94.1395006 112.1615017  85.5189987  95.0665006 112.1615017
  88.0659987  92.9705006 113.1595017  89.0229987  92.9705006 113.1595017
  87.8259987  93.8975006 113.1595017  90.6479987  94.5395006 113.4185017
  91.6049987  94.5395006 113.4185017  90.4079987  95.4665006 113.4185017
  78.0209987  93.2955006 110.8605017  78.9779987  93.2955006 110.8605017
  77.7809987  94.2225006 110.8605017  80.1169987  92.0095006 109.5135017
  81.0739987  92.0095006 109.5135017  79.8769987  92.9365006 109.5135017
  82.7049987  92.4915006 110.3845017  83.6619987  92.4915006 110.3845017
  82.4649987  93.4185006 110.3845017  86.1759987  78.1355006 109.5255017
  87.1329987  78.1355006 109.5255017  85.9359987  79.0625006 109.5255017
  91.3109987  76.2025006 109.6125017  92.2679987  76.2025006 109.6125017
  91.0709987  77.1295006 109.6125017  92.9939987  77.4245006 107.8985017
  93.9509987  77.4245006 107.8985017  92.7539987  78.3515006 107.8985017
  78.5459987  76.7795006 107.3595017  79.5029987  76.7795006 107.3595017
  78.3059987  77.7065006 107.3595017  77.3019987  76.5355006 103.1565017
  78.2589987  76.5355006 103.1565017  77.0619987  77.4625006 103.1565017
  83.0479987  76.6785006 107.1455017  84.0049987  76.6785006 107.1455017
  82.8079987  77.6055006 107.1455017  88.6959987  76.7185006 108.8005017
  89.6529987  76.7185006 108.8005017  88.4559987  77.6455006 108.8005017
  89.9939987  76.7695006 104.4825017  90.9509987  76.7695006 104.4825017
  89.7539987  77.6965006 104.4825017  77.2329987  92.4855006 104.0915017
  78.1899987  92.4855006 104.0915017  76.9929987  93.4125006 104.0915017
  84.2099987  78.7425006 104.0375017  85.1669987  78.7425006 104.0375017
  83.9699987  79.6695006 104.0375017  86.0779987  93.7785006 102.4325017
  87.0349987  93.7785006 102.4325017  85.8379987  94.7055006 102.4325017
  92.7929987  93.3025006 105.1725017  93.7499987  93.3025006 105.1725017
  92.5529987  94.2295006 105.1725017  78.4359987  77.3115006 116.8315017
  79.3929987  77.3115006 116.8315017  78.1959987  78.2385006 116.8315017
  80.4349987  76.6785006 118.4205017  81.3919987  76.6785006 118.4205017
  80.1949987  77.6055006 118.4205017  88.8439987  75.9785006 118.6005017
  89.8009987  75.9785006 118.6005017  88.6039987  76.9055006 118.6005017
  92.0319987  92.0275006 117.2855017  92.9889987  92.0275006 117.2855017
  91.7919987  92.9545006 117.2855017 106.4589987  85.8745006 107.2345017
 107.4159987  85.8745006 107.2345017 106.2189987  86.8015006 107.2345017
 105.2819987  85.1875006 110.7445017 106.2389987  85.1875006 110.7445017
 105.0419987  86.1145006 110.7445017  97.7319987  84.7965006 112.2665017
  98.6889987  84.7965006 112.2665017  97.4919987  85.7235006 112.2665017
  98.6509987  89.2855006 110.7785017  99.6079987  89.2855006 110.7785017
  98.4109987  90.2125006 110.7785017  95.3169987  82.8795006 106.2105017
  96.2739987  82.8795006 106.2105017  95.0769987  83.8065006 106.2105017
  95.9679987  85.0595006 108.3795017  96.9249987  85.0595006 108.3795017
  95.7279987  85.9865006 108.3795017 106.1689987  93.2245006 109.2385017
 107.1259987  93.2245006 109.2385017 105.9289987  94.1515006 109.2385017
 103.7009987  87.5705006 111.1775017 104.6579987  87.5705006 111.1775017
 103.4609987  88.4975006 111.1775017 106.2239987  81.7925006 111.4645017
 107.1809987  81.7925006 111.4645017 105.9839987  82.7195006 111.4645017
 100.0139987  80.1195006 108.7365017 100.9709987  80.1195006 108.7365017
  99.7739987  81.0465006 108.7365017 107.7189987  80.6875006 106.7045017
 108.6759987  80.6875006 106.7045017 107.4789987  81.6145006 106.7045017
  96.6379987  82.5295006 109.4825017  97.5949987  82.5295006 109.4825017
  96.3979987  83.4565006 109.4825017 101.7919987  84.0855006 108.7575017
 102.7489987  84.0855006 108.7575017 101.5519987  85.0125006 108.7575017
  98.9029987  79.0165006 112.7825017  99.8599987  79.0165006 112.7825017
  98.6629987  79.9435006 112.7825017 106.2319987  88.5105006 106.3215017
 107.1889987  88.5105006 106.3215017 105.9919987  89.4375006 106.3215017
 101.4369987  86.6635006 113.0375017 102.3939987  86.6635006 113.0375017
 101.1969987  87.5905006 113.0375017  98.4619987  80.8855006 110.7895017
  99.4189987  80.8855006 110.7895017  98.2219987  81.8125006 110.7895017
  99.8879987  88.6515006 113.8245017 100.8449987  88.6515006 113.8245017
  99.6479987  89.5785006 113.8245017  95.9979987  88.3085006 104.6045017
  96.9549987  88.3085006 104.6045017  95.7579987  89.2355006 104.6045017
 102.8839987  76.3415006 110.2195017 103.8409987  76.3415006 110.2195017
 102.6439987  77.2685006 110.2195017 107.5009987  91.5505006 107.5855017
 108.4579987  91.5505006 107.5855017 107.2609987  92.4775006 107.5855017
 105.1249987  85.1355006 104.7385017 106.0819987  85.1355006 104.7385017
 104.8849987  86.0625006 104.7385017 105.2079987  83.6595006 101.8025017
 106.1649987  83.6595006 101.8025017 104.9679987  84.5865006 101.8025017
 100.2099987  86.0205006 107.5985017 101.1669987  86.0205006 107.5985017
  99.9699987  86.9475006 107.5985017 101.5439987  89.4145006 110.2655017
 102.5009987  89.4145006 110.2655017 101.3039987  90.3415006 110.2655017
 100.5489987  84.7625006 111.2405017 101.5059987  84.7625006 111.2405017
 100.3089987  85.6895006 111.2405017 106.5419987  90.3475006 111.9895017
 107.4989987  90.3475006 111.9895017 106.3019987  91.2745006 111.9895017
 101.4589987  89.1645006 115.9435017 102.4159987  89.1645006 115.9435017
 101.2189987  90.0915006 115.9435017 107.3259987  84.5635006 103.4945017
 108.2829987  84.5635006 103.4945017 107.0859987  85.4905006 103.4945017
  98.4139987  85.3095006 115.1625017  99.3709987  85.3095006 115.1625017
  98.1739987  86.2365006 115.1625017 105.0849987  91.2605006 106.8135017
 106.0419987  91.2605006 106.8135017 104.8449987  92.1875006 106.8135017
  99.7139987  91.2515006 116.7035017 100.6709987  91.2515006 116.7035017
  99.4739987  92.1785006 116.7035017  99.2319987  85.0675006 105.1385017
 100.1889987  85.0675006 105.1385017  98.9919987  85.9945006 105.1385017
  95.1829987  87.1995006 114.1575017  96.1399987  87.1995006 114.1575017
  94.9429987  88.1265006 114.1575017  95.0489987  90.2985006 110.6995017
  96.0059987  90.2985006 110.6995017  94.8089987  91.2255006 110.6995017
 104.0609987  90.5955006 115.0995017 105.0179987  90.5955006 115.0995017
 103.8209987  91.5225006 115.0995017 104.6559987  94.2015006 105.2245017
 105.6129987  94.2015006 105.2245017 104.4159987  95.1285006 105.2245017
  98.3009987  93.0625006 107.0475017  99.2579987  93.0625006 107.0475017
  98.0609987  93.9895006 107.0475017 107.7169987  93.3795006 102.2125017
 108.6739987  93.3795006 102.2125017 107.4769987  94.3065006 102.2125017
 107.2389987  93.1645006 104.8365017 108.1959987  93.1645006 104.8365017
 106.9989987  94.0915006 104.8365017  97.6879987  88.6525006 115.1075017
  98.6449987  88.6525006 115.1075017  97.4479987  89.5795006 115.1075017
 100.2179987  77.2475006 110.9975017 101.1749987  77.2475006 110.9975017
  99.9779987  78.1745006 110.9975017 104.8989987  76.9175006 114.3775017
 105.8559987  76.9175006 114.3775017 104.6589987  77.8445006 114.3775017
 104.5399987  79.4825006 101.7215017 105.4969987  79.4825006 101.7215017
 104.2999987  80.4095006 101.7215017 100.3059987  82.2105006 112.2105017
 101.2629987  82.2105006 112.2105017 100.0659987  83.1375006 112.2105017
 100.2659987  82.4025006 107.0675017 101.2229987  82.4025006 107.0675017
 100.0259987  83.3295006 107.0675017 105.7729987  82.8355006 105.8555017
 106.7299987  82.8355006 105.8555017 105.5329987  83.7625006 105.8555017
 104.8979987  83.0725006 117.3535017 105.8549987  83.0725006 117.3535017
 104.6579987  83.9995006 117.3535017 106.7869987  82.3055006 108.7045017
 107.7439987  82.3055006 108.7045017 106.5469987  83.2325006 108.7045017
  97.9629987  82.4935006 113.9335017  98.9199987  82.4935006 113.9335017
  97.7229987  83.4205006 113.9335017  94.6089987  79.6035006 107.8755017
  95.5659987  79.6035006 107.8755017  94.3689987  80.5305006 107.8755017
  95.9399987  80.3915006 103.3465017  96.8969987  80.3915006 103.3465017
  95.6999987  81.3185006 103.3465017 106.0449987  83.9235006 113.3175017
 107.0019987  83.9235006 113.3175017 105.8049987  84.8505006 113.3175017
 102.8499987  79.8415006 108.1055017 103.8069987  79.8415006 108.1055017
 102.6099987  80.7685006 108.1055017  97.6749987  81.4875006 106.9385017
  98.6319987  81.4875006 106.9385017  97.4349987  82.4145006 106.9385017
 101.2879987  81.5475006 104.6485017 102.2449987  81.5475006 104.6485017
 101.0479987  82.4745006 104.6485017 107.2409987  79.0515006 111.4065017
 108.1979987  79.0515006 111.4065017 107.0009987  79.9785006 111.4065017
  98.1539987  87.1745006 117.3025017  99.1109987  87.1745006 117.3025017
  97.9139987  88.1015006 117.3025017 104.0959987  82.6435006 109.9635017
 105.0529987  82.6435006 109.9635017 103.8559987  83.5705006 109.9635017
  99.1479987  78.7955006 106.4555017 100.1049987  78.7955006 106.4555017
  98.9079987  79.7225006 106.4555017 102.7579987  80.9875006 112.4215017
 103.7149987  80.9875006 112.4215017 102.5179987  81.9145006 112.4215017
 103.3649987  87.1955006 104.1115017 104.3219987  87.1955006 104.1115017
 103.1249987  88.1225006 104.1115017 107.1469987  80.0465006 102.2865017
 108.1039987  80.0465006 102.2865017 106.9069987  80.9735006 102.2865017
 104.8209987  87.4245006 115.3265017 105.7779987  87.4245006 115.3265017
 104.5809987  88.3515006 115.3265017   0.1189987  82.0135006 104.0015017
   1.0759987  82.0135006 104.0015017  -0.1210013  82.9405006 104.0015017
  98.4679987  86.5755006 109.9015017  99.4249987  86.5755006 109.9015017
  98.2279987  87.5025006 109.9015017 105.4559987  88.6625006 103.1465017
 106.4129987  88.6625006 103.1465017 105.2159987  89.5895006 103.1465017
  95.4839987  84.9255006 115.1985017  96.4409987  84.9255006 115.1985017
  95.2439987  85.8525006 115.1985017 102.4579987  84.5405006 117.3835017
 103.4149987  84.5405006 117.3835017 102.2179987  85.4675006 117.3835017
 107.1439987  89.9315006 115.2685017 108.1009987  89.9315006 115.2685017
 106.9039987  90.8585006 115.2685017 100.8349987  90.0435006 107.2805017
 101.7919987  90.0435006 107.2805017 100.5949987  90.9705006 107.2805017
 102.2619987  87.7085006 106.8395017 103.2189987  87.7085006 106.8395017
 102.0219987  88.6355006 106.8395017 102.7019987  91.8955006 113.1895017
 103.6589987  91.8955006 113.1895017 102.4619987  92.8225006 113.1895017
 100.9479987  92.7145006 106.3465017 101.9049987  92.7145006 106.3465017
 100.7079987  93.6415006 106.3465017 106.2669987  87.8885006 112.8575017
 107.2239987  87.8885006 112.8575017 106.0269987  88.8155006 112.8575017
  97.1119987  79.7375006 114.7315017  98.0689987  79.7375006 114.7315017
  96.8719987  80.6645006 114.7315017  97.1509987  91.9185006 113.1005017
  98.1079987  91.9185006 113.1005017  96.9109987  92.8455006 113.1005017
  97.9759987  86.7985006 103.3385017  98.9329987  86.7985006 103.3385017
  97.7359987  87.7255006 103.3385017 105.8529987  79.4935006 113.6795017
 106.8099987  79.4935006 113.6795017 105.6129987  80.4205006 113.6795017
 106.3299987  79.3175006 104.7575017 107.2869987  79.3175006 104.7575017
 106.0899987  80.2445006 104.7575017 104.3069987  91.2795006 103.6235017
 105.2639987  91.2795006 103.6235017 104.0669987  92.2065006 103.6235017
 103.7879987  80.8615006 105.5825017 104.7449987  80.8615006 105.5825017
 103.5479987  81.7885006 105.5825017 104.3309987  81.8155006 114.7955017
 105.2879987  81.8155006 114.7955017 104.0909987  82.7425006 114.7955017
 104.7399987  77.8925006 106.5295017 105.6969987  77.8925006 106.5295017
 104.4999987  78.8195006 106.5295017 101.6669987  92.3325006 103.6025017
 102.6239987  92.3325006 103.6025017 101.4269987  93.2595006 103.6025017
  96.9129987  82.1415006 101.4265017  97.8699987  82.1415006 101.4265017
  96.6729987  83.0685006 101.4265017  97.7229987  76.8975006 110.0975017
  98.6799987  76.8975006 110.0975017  97.4829987  77.8245006 110.0975017
  96.6599987  90.8155006 106.2255017  97.6169987  90.8155006 106.2255017
  96.4199987  91.7425006 106.2255017  95.8879987  93.4595006 117.5595017
  96.8449987  93.4595006 117.5595017  95.6479987  94.3865006 117.5595017
 100.5409987  92.3715006 119.1585017 101.4979987  92.3715006 119.1585017
 100.3009987  93.2985006 119.1585017 104.6559987  91.9005006 100.6205017
 105.6129987  91.9005006 100.6205017 104.4159987  92.8275006 100.6205017
 107.5889987  90.7125006 117.8075017 108.5459987  90.7125006 117.8075017
 107.3489987  91.6395006 117.8075017  95.8069987  87.2295006 118.5565017
  96.7639987  87.2295006 118.5565017  95.5669987  88.1565006 118.5565017
 102.4759987  87.2225006 117.9465017 103.4329987  87.2225006 117.9465017
 102.2359987  88.1495006 117.9465017  96.7689987  84.4755006 117.9485017
  97.7259987  84.4755006 117.9485017  96.5289987  85.4025006 117.9485017
 101.3229987  85.5775006 102.9405017 102.2799987  85.5775006 102.9405017
 101.0829987  86.5045006 102.9405017 100.6189987  83.4255006 115.2975017
 101.5759987  83.4255006 115.2975017 100.3789987  84.3525006 115.2975017
 105.6599987  85.8755006 118.5625017 106.6169987  85.8755006 118.5625017
 105.4199987  86.8025006 118.5625017 100.9949987  80.8105006 116.3565017
 101.9519987  80.8105006 116.3565017 100.7549987  81.7375006 116.3565017
 101.4079987  79.1705006 113.8875017 102.3649987  79.1705006 113.8875017
 101.1679987  80.0975006 113.8875017 102.9779987  84.6425006 114.1305017
 103.9349987  84.6425006 114.1305017 102.7379987  85.5695006 114.1305017
 107.3939987  82.4415006 119.2125017 108.3509987  82.4415006 119.2125017
 107.1539987  83.3685006 119.2125017  99.4479987  82.0525006 118.2705017
 100.4049987  82.0525006 118.2705017  99.2079987  82.9795006 118.2705017
 102.2169987  76.6195006 114.2885017 103.1739987  76.6195006 114.2885017
 101.9769987  77.5465006 114.2885017 103.4799987  80.9455006 117.8895017
 104.4369987  80.9455006 117.8895017 103.2399987  81.8725006 117.8895017
 106.1369987  80.0495006 116.9465017 107.0939987  80.0495006 116.9465017
 105.8969987  80.9765006 116.9465017 107.7729987  78.7475006 118.8865017
 108.7299987  78.7475006 118.8865017 107.5329987  79.6745006 118.8865017
  97.5829987  79.9785006 118.0115017  98.5399987  79.9785006 118.0115017
  97.3429987  80.9055006 118.0115017 102.4129987  75.9815006 116.9835017
 103.3699987  75.9815006 116.9835017 102.1729987  76.9085006 116.9835017
 102.7789987  77.6125006 119.0695017 103.7359987  77.6125006 119.0695017
 102.5389987  78.5395006 119.0695017  94.5779987  94.5005006 106.7125017
  95.5349987  94.5005006 106.7125017  94.3379987  95.4275006 106.7125017
  95.4029987  92.6175006 108.5655017  96.3599987  92.6175006 108.5655017
  95.1629987  93.5445006 108.5655017  95.4639987  85.6675006 111.0555017
  96.4209987  85.6675006 111.0555017  95.2239987  86.5945006 111.0555017
  95.0819987  81.0045006 117.2275017  96.0389987  81.0045006 117.2275017
  94.8419987  81.9315006 117.2275017  96.2789987  79.2835006 110.0635017
  97.2359987  79.2835006 110.0635017  96.0389987  80.2105006 110.0635017
  94.5679987  82.2655006 111.1095017  95.5249987  82.2655006 111.1095017
  94.3279987  83.1925006 111.1095017  94.9379987  78.5975006 105.2325017
  95.8949987  78.5975006 105.2325017  94.6979987  79.5245006 105.2325017
  94.8859987  77.2195006 113.4895017  95.8429987  77.2195006 113.4895017
  94.6459987  78.1465006 113.4895017  97.1129987  90.4175006 117.6595017
  98.0699987  90.4175006 117.6595017  96.8729987  91.3445006 117.6595017
 100.0349987  91.4035006 113.9375017 100.9919987  91.4035006 113.9375017
  99.7949987  92.3305006 113.9375017 104.3149987  92.9735006 116.8875017
 105.2719987  92.9735006 116.8875017 104.0749987  93.9005006 116.8875017
 106.7129987  94.1675006 116.0675017 107.6699987  94.1675006 116.0675017
 106.4729987  95.0945006 116.0675017  97.4579987  94.6875006 113.9525017
  98.4149987  94.6875006 113.9525017  97.2179987  95.6145006 113.9525017
  99.9099987  94.2425006 112.9925017 100.8669987  94.2425006 112.9925017
  99.6699987  95.1695006 112.9925017 104.5969987  94.1405006 112.1675017
 105.5539987  94.1405006 112.1675017 104.3569987  95.0675006 112.1675017
 106.9489987  93.0105006 113.1545017 107.9059987  93.0105006 113.1545017
 106.7089987  93.9375006 113.1545017  96.8779987  93.3165006 110.8425017
  97.8349987  93.3165006 110.8425017  96.6379987  94.2435006 110.8425017
  98.9869987  92.0055006 109.4895017  99.9439987  92.0055006 109.4895017
  98.7469987  92.9325006 109.4895017 101.5319987  92.4955006 110.3735017
 102.4889987  92.4955006 110.3735017 101.2919987  93.4225006 110.3735017
 104.9969987  78.1305006 109.4965017 105.9539987  78.1305006 109.4965017
 104.7569987  79.0575006 109.4965017  97.3849987  76.7695006 107.3825017
  98.3419987  76.7695006 107.3825017  97.1449987  77.6965006 107.3825017
 101.9319987  76.6395006 107.1515017 102.8889987  76.6395006 107.1515017
 101.6919987  77.5665006 107.1515017 107.3989987  76.6505006 108.9375017
 108.3559987  76.6505006 108.9375017 107.1589987  77.5775006 108.9375017
  96.0839987  92.4735006 104.0875017  97.0409987  92.4735006 104.0875017
  95.8439987  93.4005006 104.0875017 103.1159987  78.7275006 104.0085017
 104.0729987  78.7275006 104.0085017 102.8759987  79.6545006 104.0085017
  97.2909987  77.3075006 116.8325017  98.2479987  77.3075006 116.8325017
  97.0509987  78.2345006 116.8325017  99.2969987  76.6805006 118.4445017
 100.2539987  76.6805006 118.4445017  99.0569987  77.6075006 118.4445017
  -0.0900013  76.0435006 118.6345017   0.8669987  76.0435006 118.6345017
  -0.3300013  76.9705006 118.6345017  12.1709987 104.7885006 107.2925017
  13.1279987 104.7885006 107.2925017  11.9309987 105.7155006 107.2925017
  11.0629987 104.0365006 110.7445017  12.0199987 104.0365006 110.7445017
  10.8229987 104.9635006 110.7445017   3.4799987 103.6515006 112.2595017
   4.4369987 103.6515006 112.2595017   3.2399987 104.5785006 112.2595017
  14.6329987 106.7935006 108.9415017  15.5899987 106.7935006 108.9415017
  14.3929987 107.7205006 108.9415017   4.4579987 107.5845006 111.2115017
   5.4149987 107.5845006 111.2115017   4.2179987 108.5115006 111.2115017
   1.0289987 101.8105006 106.2485017   1.9859987 101.8105006 106.2485017
   0.7889987 102.7375006 106.2485017   1.6589987 103.8775006 108.3695017
   2.6159987 103.8775006 108.3695017   1.4189987 104.8045006 108.3695017
   9.4329987 106.4065006 111.2295017  10.3899987 106.4065006 111.2295017
   9.1929987 107.3335006 111.2295017  18.0679987  98.0685006 111.9475017
  19.0249987  98.0685006 111.9475017  17.8279987  98.9955006 111.9475017
  12.6129987 100.8885006 111.5045017  13.5699987 100.8885006 111.5045017
  12.3729987 101.8155006 111.5045017   5.7319987  98.9705006 108.7255017
   6.6889987  98.9705006 108.7255017   5.4919987  99.8975006 108.7255017
  13.4749987  99.0625006 107.1135017  14.4319987  99.0625006 107.1135017
  13.2349987  99.9895006 107.1135017   2.5009987 101.4175006 109.3625017
   3.4579987 101.4175006 109.3625017   2.2609987 102.3445006 109.3625017
   7.5169987 102.9495006 108.7655017   8.4739987 102.9495006 108.7655017
   7.2769987 103.8765006 108.7655017  18.5029987  99.5015006 114.2075017
  19.4599987  99.5015006 114.2075017  18.2629987 100.4285006 114.2075017
   4.6299987  97.8805006 112.7935017   5.5869987  97.8805006 112.7935017
   4.3899987  98.8075006 112.7935017  11.9729987 107.3835006 106.3325017
  12.9299987 107.3835006 106.3325017  11.7329987 108.3105006 106.3325017
   7.1639987 105.5355006 113.0665017   8.1209987 105.5355006 113.0665017
   6.9239987 106.4625006 113.0665017  15.2609987  98.4005006 109.1015017
  16.2179987  98.4005006 109.1015017  15.0209987  99.3275006 109.1015017
   4.2029987  99.7165006 110.8065017   5.1599987  99.7165006 110.8065017
   3.9629987 100.6435006 110.8065017   5.5919987 107.5475006 113.7715017
   6.5489987 107.5475006 113.7715017   5.3519987 108.4745006 113.7715017
   1.6789987 107.0855006 104.6965017   2.6359987 107.0855006 104.6965017
   1.4389987 108.0125006 104.6965017  15.6099987  97.0925006 112.7805017
  16.5669987  97.0925006 112.7805017  15.3699987  98.0195006 112.7805017
   8.5939987  95.2075006 110.2435017   9.5509987  95.2075006 110.2435017
   8.3539987  96.1345006 110.2435017  16.2649987 106.9655006 114.9725017
  17.2219987 106.9655006 114.9725017  16.0249987 107.8925006 114.9725017
  10.8819987 104.0005006 104.7655017  11.8389987 104.0005006 104.7655017
  10.6419987 104.9275006 104.7655017  18.2559987 103.4185006 113.0455017
  19.2129987 103.4185006 113.0455017  18.0159987 104.3455006 113.0455017
  14.2859987 104.1845006 105.6795017  15.2429987 104.1845006 105.6795017
  14.0459987 105.1115006 105.6795017  14.2379987 102.3825006 114.7795017
  15.1949987 102.3825006 114.7795017  13.9979987 103.3095006 114.7795017
   5.9379987 104.8945006 107.5715017   6.8949987 104.8945006 107.5715017
   5.6979987 105.8215006 107.5715017   6.2759987 103.6425006 111.2435017
   7.2329987 103.6425006 111.2435017   6.0359987 104.5695006 111.2435017
   6.6629987   0.0115006 116.0295017   7.6199987   0.0115006 116.0295017
   6.4229987   0.9385006 116.0295017  13.2019987 103.3755006 103.3645017
  14.1589987 103.3755006 103.3645017  12.9619987 104.3025006 103.3645017
   4.1329987 104.2175006 115.1525017   5.0899987 104.2175006 115.1525017
   3.8929987 105.1445006 115.1525017  16.8869987  95.1445006 103.2165017
  17.8439987  95.1445006 103.2165017  16.6469987  96.0715006 103.2165017
   4.9329987 103.9355006 105.2055017   5.8899987 103.9355006 105.2055017
   4.6929987 104.8625006 105.2055017   1.0529987 106.3095006 114.0535017
   2.0099987 106.3095006 114.0535017   0.8129987 107.2365006 114.0535017
  16.1299987 101.2345006 117.0415017  17.0869987 101.2345006 117.0415017
  15.8899987 102.1615006 117.0415017   3.2639987 107.6005006 115.0345017
   4.2209987 107.6005006 115.0345017   3.0239987 108.5275006 115.0345017
   5.9359987  96.1135006 110.9845017   6.8929987  96.1135006 110.9845017
   5.6959987  97.0405006 110.9845017  10.5889987  95.8085006 114.3835017
  11.5459987  95.8085006 114.3835017  10.3489987  96.7355006 114.3835017
  13.8849987  99.6085006 115.2545017  14.8419987  99.6085006 115.2545017
  13.6449987 100.5355006 115.2545017   6.0439987 101.0795006 112.2075017
   7.0009987 101.0795006 112.2075017   5.8039987 102.0065006 112.2075017
   5.9839987 101.2355006 107.0995017   6.9409987 101.2355006 107.0995017
   5.7439987 102.1625006 107.0995017  11.5059987 101.6765006 105.8415017
  12.4629987 101.6765006 105.8415017  11.2659987 102.6035006 105.8415017
  10.5939987 101.9105006 117.3295017  11.5509987 101.9105006 117.3295017
  10.3539987 102.8375006 117.3295017  12.5519987 101.1805006 108.7055017
  13.5089987 101.1805006 108.7055017  12.3119987 102.1075006 108.7055017
   3.7049987 101.3475006 113.9535017   4.6619987 101.3475006 113.9535017
   3.4649987 102.2745006 113.9535017   0.4009987  97.8025006 108.2195017
   1.3579987  97.8025006 108.2195017   0.1609987  98.7295006 108.2195017
   1.8279987  99.2125006 103.3695017   2.7849987  99.2125006 103.3695017
   1.5879987 100.1395006 103.3695017  11.7649987 102.7845006 113.3015017
  12.7219987 102.7845006 113.3015017  11.5249987 103.7115006 113.3015017
   8.5599987  98.7435006 108.1205017   9.5169987  98.7435006 108.1205017
   8.3199987  99.6705006 108.1205017   3.3929987 100.3075006 106.9345017
   4.3499987 100.3075006 106.9345017   3.1529987 101.2345006 106.9345017
   6.9989987 100.3495006 104.5895017   7.9559987 100.3495006 104.5895017
   6.7589987 101.2765006 104.5895017  12.9709987  97.9775006 111.3645017
  13.9279987  97.9775006 111.3645017  12.7309987  98.9045006 111.3645017
   3.8489987 106.1665006 117.2535017   4.8059987 106.1665006 117.2535017
   3.6089987 107.0935006 117.2535017   9.8569987 101.5065006 110.0085017
  10.8139987 101.5065006 110.0085017   9.6169987 102.4335006 110.0085017
   4.8489987  97.6625006 106.4125017   5.8059987  97.6625006 106.4125017
   4.6089987  98.5895006 106.4125017   8.4939987  99.8465006 112.4195017
   9.4509987  99.8465006 112.4195017   8.2539987 100.7735006 112.4195017
   9.0859987 106.0925006 104.1095017  10.0429987 106.0925006 104.1095017
   8.8459987 107.0195006 104.1095017  16.2419987 105.2615006 112.8975017
  17.1989987 105.2615006 112.8975017  16.0019987 106.1885006 112.8975017
  10.5369987 105.6275006 115.4645017  11.4939987 105.6275006 115.4645017
  10.2969987 106.5545006 115.4645017  13.6709987 100.7335006 103.9225017
  14.6279987 100.7335006 103.9225017  13.4309987 101.6605006 103.9225017
   4.1599987 105.4185006 109.8375017   5.1169987 105.4185006 109.8375017
   3.9199987 106.3455006 109.8375017  11.2329987 107.5345006 103.2275017
  12.1899987 107.5345006 103.2275017  10.9929987 108.4615006 103.2275017
   1.1709987 103.8565006 115.1995017   2.1279987 103.8565006 115.1995017
   0.9309987 104.7835006 115.1995017   8.1959987 103.4385006 117.3685017
   9.1529987 103.4385006 117.3685017   7.9559987 104.3655006 117.3685017
  18.5109987 100.9585006 103.7415017  19.4679987 100.9585006 103.7415017
  18.2709987 101.8855006 103.7415017  18.5479987 106.7705006 116.5175017
  19.5049987 106.7705006 116.5175017  18.3079987 107.6975006 116.5175017
  14.0339987 104.5775006 111.2025017  14.9909987 104.5775006 111.2025017
  13.7939987 105.5045006 111.2025017   7.9689987 106.5035006 106.7795017
   8.9259987 106.5035006 106.7795017   7.7289987 107.4305006 106.7795017
  11.9719987 106.8295006 112.9175017  12.9289987 106.8295006 112.9175017
  11.7319987 107.7565006 112.9175017  14.2249987 107.7875006 101.9375017
  15.1819987 107.7875006 101.9375017  13.9849987 108.7145006 101.9375017
   2.8079987  98.5965006 114.7375017   3.7649987  98.5965006 114.7375017
   2.5679987  99.5235006 114.7375017  15.0849987 106.4065006 104.1725017
  16.0419987 106.4065006 104.1725017  14.8449987 107.3335006 104.1725017
   3.7409987 105.6815006 103.4395017   4.6979987 105.6815006 103.4395017
   3.5009987 106.6085006 103.4395017  11.5529987  98.3645006 113.6705017
  12.5099987  98.3645006 113.6705017  11.3129987  99.2915006 113.6705017
  12.3379987  97.9585006 104.7505017  13.2949987  97.9585006 104.7505017
  12.0979987  98.8855006 104.7505017   9.5059987  99.7195006 105.5625017
  10.4629987  99.7195006 105.5625017   9.2659987 100.6465006 105.5625017
  10.0809987 100.7155006 114.7765017  11.0379987 100.7155006 114.7765017
   9.8409987 101.6425006 114.7765017  10.3889987  96.7655006 106.4865017
  11.3459987  96.7655006 106.4865017  10.1489987  97.6925006 106.4865017
   6.0679987  97.8995006 103.1445017   7.0249987  97.8995006 103.1445017
   5.8279987  98.8265006 103.1445017  16.2759987  98.5905006 115.6245017
  17.2329987  98.5905006 115.6245017  16.0359987  99.5175006 115.6245017
  14.8759987 102.3715006 109.6555017  15.8329987 102.3715006 109.6555017
  14.6359987 103.2985006 109.6555017   3.4419987  95.7685006 110.0925017
   4.3989987  95.7685006 110.0925017   3.2019987  96.6955006 110.0925017
   1.5449987 106.0765006 118.4835017   2.5019987 106.0765006 118.4835017
   1.3049987 107.0035006 118.4835017   5.9399987 106.3445006 100.6845017
   6.8969987 106.3445006 100.6845017   5.6999987 107.2715006 100.6845017
   8.2789987 106.0525006 117.8905017   9.2359987 106.0525006 117.8905017
   8.0389987 106.9795006 117.8905017  13.8859987 105.9695006 115.3335017
  14.8429987 105.9695006 115.3335017  13.6459987 106.8965006 115.3335017
   2.3669987 103.3065006 117.9105017   3.3239987 103.3065006 117.9105017
   2.1269987 104.2335006 117.9105017   7.0719987 104.4665006 102.9735017
   8.0289987 104.4665006 102.9735017   6.8319987 105.3935006 102.9735017
   6.3429987 102.2835006 115.2885017   7.2999987 102.2835006 115.2885017
   6.1029987 103.2105006 115.2885017   8.1689987 102.6075006 101.2145017
   9.1259987 102.6075006 101.2145017   7.9289987 103.5345006 101.2145017
  11.3869987 104.8215006 118.5575017  12.3439987 104.8215006 118.5575017
  11.1469987 105.7485006 118.5575017   6.7329987  99.6525006 116.3535017
   7.6899987  99.6525006 116.3535017   6.4929987 100.5795006 116.3535017
   7.1309987  98.0305006 113.8855017   8.0879987  98.0305006 113.8855017
   6.8909987  98.9575006 113.8855017   8.6929987 103.5155006 114.1365017
   9.6499987 103.5155006 114.1365017   8.4529987 104.4425006 114.1365017
  13.0779987 101.2805006 119.1065017  14.0349987 101.2805006 119.1065017
  12.8379987 102.2075006 119.1065017  14.4139987 104.0705006 117.2375017
  15.3709987 104.0705006 117.2375017  14.1739987 104.9975006 117.2375017
   5.1809987 100.9025006 118.2615017   6.1379987 100.9025006 118.2615017
   4.9409987 101.8295006 118.2615017   7.9159987  95.4795006 114.3025017
   8.8729987  95.4795006 114.3025017   7.6759987  96.4065006 114.3025017
   9.1959987  99.7985006 117.8925017  10.1529987  99.7985006 117.8925017
   8.9559987 100.7255006 117.8925017  11.9139987  98.9335006 116.9675017
  12.8709987  98.9335006 116.9675017  11.6739987  99.8605006 116.9675017
  13.5099987  97.5635006 118.9075017  14.4669987  97.5635006 118.9075017
  13.2699987  98.4905006 118.9075017   3.3269987  98.8265006 118.0095017
   4.2839987  98.8265006 118.0095017   3.0869987  99.7535006 118.0095017
   8.1329987  94.8335006 116.9745017   9.0899987  94.8335006 116.9745017
   7.8929987  95.7605006 116.9745017   8.5029987  96.4695006 119.0725017
   9.4599987  96.4695006 119.0725017   8.2629987  97.3965006 119.0725017
   1.6969987 107.9785006 101.6265017   2.6539987 107.9785006 101.6265017
   1.4569987 108.9055006 101.6265017  16.5939987 107.5685006 119.0925017
  17.5509987 107.5685006 119.0925017  16.3539987 108.4955006 119.0925017
  18.0099987 105.8405006 104.5375017  18.9669987 105.8405006 104.5375017
  17.7699987 106.7675006 104.5375017  18.3629987 103.9785006 106.4295017
  19.3199987 103.9785006 106.4295017  18.1229987 104.9055006 106.4295017
  18.1079987 106.7145006 111.3995017  19.0649987 106.7145006 111.3995017
  17.8679987 107.6415006 111.3995017  18.6829987 103.8675006 102.8005017
  19.6399987 103.8675006 102.8005017  18.4429987 104.7945006 102.8005017
  16.1839987 102.4615006 107.0055017  17.1409987 102.4615006 107.0055017
  15.9439987 103.3885006 107.0055017   1.1749987 104.5095006 111.0365017
   2.1319987 104.5095006 111.0365017   0.9349987 105.4365006 111.0365017
  17.0279987 104.4545006 116.6615017  17.9849987 104.4545006 116.6615017
  16.7879987 105.3815006 116.6615017  18.5369987 102.3355006 117.3485017
  19.4939987 102.3355006 117.3485017  18.2969987 103.2625006 117.3485017
  15.8489987 100.0535006 105.4815017  16.8059987 100.0535006 105.4815017
  15.6089987 100.9805006 105.4815017  16.4809987 100.5965006 110.9065017
  17.4379987 100.5965006 110.9065017  16.2409987 101.5235006 110.9065017
  16.5449987 101.3185006 113.6925017  17.5019987 101.3185006 113.6925017
  16.3049987 102.2455006 113.6925017   0.8829987  99.8095006 117.1235017
   1.8399987  99.8095006 117.1235017   0.6429987 100.7365006 117.1235017
  18.8129987  95.3645006 119.0425017  19.7699987  95.3645006 119.0425017
  18.5729987  96.2915006 119.0425017  16.4989987  97.3255006 105.5065017
  17.4559987  97.3255006 105.5065017  16.2589987  98.2525006 105.5065017
   2.0849987  98.1675006 110.0495017   3.0419987  98.1675006 110.0495017
   1.8449987  99.0945006 110.0495017   0.8739987 101.1045006 111.2655017
   1.8309987 101.1045006 111.2655017   0.6339987 102.0315006 111.2655017
  18.3429987  97.4705006 117.3945017  19.2999987  97.4705006 117.3945017
  18.1029987  98.3975006 117.3945017   0.8919987  97.3795006 105.2305017
   1.8489987  97.3795006 105.2305017   0.6519987  98.3065006 105.2305017
 108.3279987  96.0575006 113.5165017 109.2849987  96.0575006 113.5165017
 108.0879987  96.9845006 113.5165017  17.3559987  95.5665006 115.2305017
  18.3129987  95.5665006 115.2305017  17.1159987  96.4935006 115.2305017
  10.7489987  96.9935006 109.5205017  11.7059987  96.9935006 109.5205017
  10.5089987  97.9205006 109.5205017  15.8879987  95.0585006 109.6135017
  16.8449987  95.0585006 109.6135017  15.6479987  95.9855006 109.6135017
  17.5679987  96.2745006 107.9085017  18.5249987  96.2745006 107.9085017
  17.3279987  97.2015006 107.9085017   3.1209987  95.6305006 107.3365017
   4.0779987  95.6305006 107.3365017   2.8809987  96.5575006 107.3365017
   1.9599987  95.4035006 103.1555017   2.9169987  95.4035006 103.1555017
   1.7199987  96.3305006 103.1555017   7.6189987  95.5955006 107.1535017
   8.5759987  95.5955006 107.1535017   7.3789987  96.5225006 107.1535017
  13.2829987  95.5735006 108.7925017  14.2399987  95.5735006 108.7925017
  13.0429987  96.5005006 108.7925017  14.5739987  95.5925006 104.4745017
  15.5309987  95.5925006 104.4745017  14.3339987  96.5195006 104.4745017
   3.7659987  97.3315006 101.5755017   4.7229987  97.3315006 101.5755017
   3.5259987  98.2585006 101.5755017   8.7039987  97.5975006 104.0235017
   9.6609987  97.5975006 104.0235017   8.4639987  98.5245006 104.0235017
   2.9949987  96.1635006 116.8265017   3.9519987  96.1635006 116.8265017
   2.7549987  97.0905006 116.8265017   5.0099987  95.5445006 118.4435017
   5.9669987  95.5445006 118.4435017   4.7699987  96.4715006 118.4435017
  13.4179987  94.8415006 118.6075017  14.3749987  94.8415006 118.6075017
  13.1779987  95.7685006 118.6075017  31.0219987 104.7835006 107.2915017
  31.9789987 104.7835006 107.2915017  30.7819987 105.7105006 107.2915017
  29.9179987 104.0315006 110.7395017  30.8749987 104.0315006 110.7395017
  29.6779987 104.9585006 110.7395017  22.2879987 103.6735006 112.2835017
  23.2449987 103.6735006 112.2835017  22.0479987 104.6005006 112.2835017
  33.4899987 106.7935006 108.9435017  34.4469987 106.7935006 108.9435017
  33.2499987 107.7205006 108.9435017  23.3269987 107.5905006 111.2135017
  24.2839987 107.5905006 111.2135017  23.0869987 108.5175006 111.2135017
  19.8449987 101.7035006 106.2695017  20.8019987 101.7035006 106.2695017
  19.6049987 102.6305006 106.2695017  20.5489987 103.9395006 108.4105017
  21.5059987 103.9395006 108.4105017  20.3089987 104.8665006 108.4105017
  28.2889987 106.4085006 111.2095017  29.2459987 106.4085006 111.2095017
  28.0489987 107.3355006 111.2095017  37.1139987  97.6115006 111.9175017
  38.0709987  97.6115006 111.9175017  36.8739987  98.5385006 111.9175017
  31.4289987 100.8795006 111.5085017  32.3859987 100.8795006 111.5085017
  31.1889987 101.8065006 111.5085017  24.5919987  98.9725006 108.7365017
  25.5489987  98.9725006 108.7365017  24.3519987  99.8995006 108.7365017
  32.3189987  99.0655006 107.0875017  33.2759987  99.0655006 107.0875017
  32.0789987  99.9925006 107.0875017  21.2139987 101.3835006 109.4795017
  22.1709987 101.3835006 109.4795017  20.9739987 102.3105006 109.4795017
  26.3729987 102.9475006 108.7785017  27.3299987 102.9475006 108.7785017
  26.1329987 103.8745006 108.7785017  37.6019987  99.4295006 114.6795017
  38.5589987  99.4295006 114.6795017  37.3619987 100.3565006 114.6795017
  23.4779987  97.8735006 112.7825017  24.4349987  97.8735006 112.7825017
  23.2379987  98.8005006 112.7825017  30.8149987 107.3865006 106.3395017
  31.7719987 107.3865006 106.3395017  30.5749987 108.3135006 106.3395017
  26.0049987 105.5355006 113.0395017  26.9619987 105.5355006 113.0395017
  25.7649987 106.4625006 113.0395017  34.1139987  98.3785006 109.0655017
  35.0709987  98.3785006 109.0655017  33.8739987  99.3055006 109.0655017
  23.0419987  99.7425006 110.7905017  23.9989987  99.7425006 110.7905017
  22.8019987 100.6695006 110.7905017  24.4469987 107.5525006 113.7825017
  25.4039987 107.5525006 113.7825017  24.2069987 108.4795006 113.7825017
  20.4729987 107.0975006 104.7165017  21.4299987 107.0975006 104.7165017
  20.2329987 108.0245006 104.7165017  34.2869987  97.7515006 111.9775017
  35.2439987  97.7515006 111.9775017  34.0469987  98.6785006 111.9775017
  27.4469987  95.2045006 110.2405017  28.4039987  95.2045006 110.2405017
  27.2069987  96.1315006 110.2405017  35.1399987 106.9605006 114.9775017
  36.0969987 106.9605006 114.9775017  34.8999987 107.8875006 114.9775017
  29.7279987 104.0015006 104.7425017  30.6849987 104.0015006 104.7425017
  29.4879987 104.9285006 104.7425017  37.1329987 103.4565006 113.0655017
  38.0899987 103.4565006 113.0655017  36.8929987 104.3835006 113.0655017
  33.1399987 104.1855006 105.6745017  34.0969987 104.1855006 105.6745017
  32.8999987 105.1125006 105.6745017  33.0299987 102.3815006 114.8115017
  33.9869987 102.3815006 114.8115017  32.7899987 103.3085006 114.8115017
  24.7739987 104.8645006 107.5835017  25.7309987 104.8645006 107.5835017
  24.5339987 105.7915006 107.5835017  25.1129987 103.6455006 111.2405017
  26.0699987 103.6455006 111.2405017  24.8729987 104.5725006 111.2405017
  25.4829987   0.0145006 116.0435017  26.4399987   0.0145006 116.0435017
  25.2429987   0.9415006 116.0435017  32.0179987 103.3995006 103.3665017
  32.9749987 103.3995006 103.3665017  31.7779987 104.3265006 103.3665017
  22.9989987 104.2205006 115.1425017  23.9559987 104.2205006 115.1425017
  22.7589987 105.1475006 115.1425017  35.7179987  95.1365006 103.1895017
  36.6749987  95.1365006 103.1895017  35.4779987  96.0635006 103.1895017
  23.7749987 103.9125006 105.2105017  24.7319987 103.9125006 105.2105017
  23.5349987 104.8395006 105.2105017  19.8069987 106.3095006 114.0725017
  20.7639987 106.3095006 114.0725017  19.5669987 107.2365006 114.0725017
  34.9319987 101.2175006 117.0735017  35.8889987 101.2175006 117.0735017
  34.6919987 102.1445006 117.0735017  22.1249987 107.5695006 115.0115017
  23.0819987 107.5695006 115.0115017  21.8849987 108.4965006 115.0115017
  24.7939987  96.0995006 111.0025017  25.7509987  96.0995006 111.0025017
  24.5539987  97.0265006 111.0025017  29.4189987  95.7985006 114.3705017
  30.3759987  95.7985006 114.3705017  29.1789987  96.7255006 114.3705017
  32.7149987  99.5905006 115.2435017  33.6719987  99.5905006 115.2435017
  32.4749987 100.5175006 115.2435017  29.1469987  98.2945006 101.7215017
  30.1039987  98.2945006 101.7215017  28.9069987  99.2215006 101.7215017
  24.8949987 101.0745006 112.2095017  25.8519987 101.0745006 112.2095017
  24.6549987 102.0015006 112.2095017  24.8549987 101.2295006 107.0965017
  25.8119987 101.2295006 107.0965017  24.6149987 102.1565006 107.0965017
  29.4529987 101.9155006 117.3295017  30.4099987 101.9155006 117.3295017
  29.2129987 102.8425006 117.3295017  31.3919987 101.1825006 108.7035017
  32.3489987 101.1825006 108.7035017  31.1519987 102.1095006 108.7035017
  22.5399987 101.3535006 113.9435017  23.4969987 101.3535006 113.9435017
  22.2999987 102.2805006 113.9435017  19.1829987  98.4585006 107.8805017
  20.1399987  98.4585006 107.8805017  18.9429987  99.3855006 107.8805017
  30.6259987 102.7725006 113.2955017  31.5829987 102.7725006 113.2955017
  30.3859987 103.6995006 113.2955017  27.4209987  98.7395006 108.1125017
  28.3779987  98.7395006 108.1125017  27.1809987  99.6665006 108.1125017
  22.2329987 100.3145006 106.9715017  23.1899987 100.3145006 106.9715017
  21.9929987 101.2415006 106.9715017  25.8549987 100.3785006 104.6365017
  26.8119987 100.3785006 104.6365017  25.6149987 101.3055006 104.6365017
  31.7529987  97.9905006 111.3285017  32.7099987  97.9905006 111.3285017
  31.5129987  98.9175006 111.3285017  24.5519987 101.5765006 102.1865017
  25.5089987 101.5765006 102.1865017  24.3119987 102.5035006 102.1865017
  22.7209987 106.1835006 117.2405017  23.6779987 106.1835006 117.2405017
  22.4809987 107.1105006 117.2405017  28.7099987 101.5035006 110.0065017
  29.6669987 101.5035006 110.0065017  28.4699987 102.4305006 110.0065017
  23.7179987  97.6535006 106.4415017  24.6749987  97.6535006 106.4415017
  23.4779987  98.5805006 106.4415017  27.3489987  99.8475006 112.4205017
  28.3059987  99.8475006 112.4205017  27.1089987 100.7745006 112.4205017
  27.9449987 106.0995006 104.1175017  28.9019987 106.0995006 104.1175017
  27.7049987 107.0265006 104.1175017  35.0889987 105.2865006 112.9095017
  36.0459987 105.2865006 112.9095017  34.8489987 106.2135006 112.9095017
  31.8019987  98.8645006 102.3645017  32.7589987  98.8645006 102.3645017
  31.5619987  99.7915006 102.3645017  29.4039987 106.2825006 115.3505017
  30.3609987 106.2825006 115.3505017  29.1639987 107.2095006 115.3505017
  32.5129987 100.7905006 103.9995017  33.4699987 100.7905006 103.9995017
  32.2729987 101.7175006 103.9995017  23.0099987 105.4115006 109.8505017
  23.9669987 105.4115006 109.8505017  22.7699987 106.3385006 109.8505017
  30.0569987 107.5435006 103.1865017  31.0139987 107.5435006 103.1865017
  29.8169987 108.4705006 103.1865017  20.0379987 103.8525006 115.1895017
  20.9949987 103.8525006 115.1895017  19.7979987 104.7795006 115.1895017
  27.0409987 103.4105006 117.3805017  27.9979987 103.4105006 117.3805017
  26.8009987 104.3375006 117.3805017  37.3969987 100.9515006 103.7085017
  38.3539987 100.9515006 103.7085017  37.1569987 101.8785006 103.7085017
  37.4049987 106.7715006 116.5185017  38.3619987 106.7715006 116.5185017
  37.1649987 107.6985006 116.5185017  32.8949987 104.5715006 111.2125017
  33.8519987 104.5715006 111.2125017  32.6549987 105.4985006 111.2125017
  21.1719987 103.8055006 101.8005017  22.1289987 103.8055006 101.8005017
  20.9319987 104.7325006 101.8005017  26.8679987 106.5075006 106.8235017
  27.8249987 106.5075006 106.8235017  26.6279987 107.4345006 106.8235017
  30.8319987 106.8075006 112.8765017  31.7889987 106.8075006 112.8765017
  30.5919987 107.7345006 112.8765017  33.0779987 107.7695006 101.9855017
  34.0349987 107.7695006 101.9855017  32.8379987 108.6965006 101.9855017
  21.6829987  98.5985006 114.7315017  22.6399987  98.5985006 114.7315017
  21.4429987  99.5255006 114.7315017  33.9319987 106.4225006 104.2145017
  34.8889987 106.4225006 104.2145017  33.6919987 107.3495006 104.2145017
  22.5719987 105.6785006 103.3245017  23.5289987 105.6785006 103.3245017
  22.3319987 106.6055006 103.3245017  30.3719987  98.3825006 113.6895017
  31.3289987  98.3825006 113.6895017  30.1319987  99.3095006 113.6895017
  31.1699987  97.9605006 104.7805017  32.1269987  97.9605006 104.7805017
  30.9299987  98.8875006 104.7805017  28.3749987  99.7085006 105.6045017
  29.3319987  99.7085006 105.6045017  28.1349987 100.6355006 105.6045017
  28.9499987 100.7065006 114.7735017  29.9069987 100.7065006 114.7735017
  28.7099987 101.6335006 114.7735017  29.2479987  96.7675006 106.5125017
  30.2049987  96.7675006 106.5125017  29.0079987  97.6945006 106.5125017
  24.9229987  97.8405006 103.2265017  25.8799987  97.8405006 103.2265017
  24.6829987  98.7675006 103.2265017  35.1419987  98.6185006 115.6485017
  36.0989987  98.6185006 115.6485017  34.9019987  99.5455006 115.6485017
  33.6229987 102.5055006 109.5925017  34.5799987 102.5055006 109.5925017
  33.3829987 103.4325006 109.5925017  22.2979987  95.7525006 110.0975017
  23.2549987  95.7525006 110.0975017  22.0579987  96.6795006 110.0975017
  20.4299987 106.0755006 118.4675017  21.3869987 106.0755006 118.4675017
  20.1899987 107.0025006 118.4675017  27.0889987 106.0595006 117.9185017
  28.0459987 106.0595006 117.9185017  26.8489987 106.9865006 117.9185017
  30.2389987 107.4385006 100.4005017  31.1959987 107.4385006 100.4005017
  29.9989987 108.3655006 100.4005017  32.7469987 105.9655006 115.3435017
  33.7039987 105.9655006 115.3435017  32.5069987 106.8925006 115.3435017
  21.2729987 103.3445006 117.9175017  22.2299987 103.3445006 117.9175017
  21.0329987 104.2715006 117.9175017  25.9319987 104.4435006 102.9855017
  26.8889987 104.4435006 102.9855017  25.6919987 105.3705006 102.9855017
  25.1929987 102.2775006 115.2845017  26.1499987 102.2775006 115.2845017
  24.9529987 103.2045006 115.2845017  30.2479987 104.8015006 118.5575017
  31.2049987 104.8015006 118.5575017  30.0079987 105.7285006 118.5575017
  25.5889987  99.6525006 116.3525017  26.5459987  99.6525006 116.3525017
  25.3489987 100.5795006 116.3525017  25.9869987  98.0295006 113.8865017
  26.9439987  98.0295006 113.8865017  25.7469987  98.9565006 113.8865017
  27.5449987 103.5105006 114.1345017  28.5019987 103.5105006 114.1345017
  27.3049987 104.4375006 114.1345017  31.9399987 101.2565006 119.0885017
  32.8969987 101.2565006 119.0885017  31.6999987 102.1835006 119.0885017
  33.2749987 104.0825006 117.2725017  34.2319987 104.0825006 117.2725017
  33.0349987 105.0095006 117.2725017  24.0449987 100.8945006 118.2665017
  25.0019987 100.8945006 118.2665017  23.8049987 101.8215006 118.2665017
  26.7799987  95.4645006 114.2925017  27.7369987  95.4645006 114.2925017
  26.5399987  96.3915006 114.2925017  28.0499987  99.7945006 117.8915017
  29.0069987  99.7945006 117.8915017  27.8099987 100.7215006 117.8915017
  30.7639987  98.9785006 117.0095017  31.7209987  98.9785006 117.0095017
  30.5239987  99.9055006 117.0095017  32.3659987  97.5785006 118.9235017
  33.3229987  97.5785006 118.9235017  32.1259987  98.5055006 118.9235017
  22.1419987  98.8205006 118.0005017  23.0989987  98.8205006 118.0005017
  21.9019987  99.7475006 118.0005017  26.9919987  94.8365006 116.9815017
  27.9489987  94.8365006 116.9815017  26.7519987  95.7635006 116.9815017
  27.3589987  96.4715006 119.0725017  28.3159987  96.4715006 119.0725017
  27.1189987  97.3985006 119.0725017  20.9509987 107.6415006 102.2965017
  21.9079987 107.6415006 102.2965017  20.7109987 108.5685006 102.2965017
  35.4509987 107.5705006 119.0925017  36.4079987 107.5705006 119.0925017
  35.2109987 108.4975006 119.0925017  36.8409987 105.8765006 104.6015017
  37.7979987 105.8765006 104.6015017  36.6009987 106.8035006 104.6015017
  37.2279987 103.9585006 106.4345017  38.1849987 103.9585006 106.4345017
  36.9879987 104.8855006 106.4345017  36.9629987 106.7155006 111.4005017
  37.9199987 106.7155006 111.4005017  36.7229987 107.6425006 111.4005017
  37.5329987 103.8395006 102.8185017  38.4899987 103.8395006 102.8185017
  37.2929987 104.7665006 102.8185017  35.9349987 101.0335006 101.3845017
  36.8919987 101.0335006 101.3845017  35.6949987 101.9605006 101.3845017
  35.0309987 102.4625006 107.0055017  35.9879987 102.4625006 107.0055017
  34.7909987 103.3895006 107.0055017  20.0319987 104.5375006 111.0525017
  20.9889987 104.5375006 111.0525017  19.7919987 105.4645006 111.0525017
  35.8829987 104.4485006 116.6675017  36.8399987 104.4485006 116.6675017
  35.6429987 105.3755006 116.6675017  37.3809987 102.3345006 117.3965017
  38.3379987 102.3345006 117.3965017  37.1409987 103.2615006 117.3965017
  34.7169987 100.0495006 105.4955017  35.6739987 100.0495006 105.4955017
  34.4769987 100.9765006 105.4955017  34.9769987 100.7455006 110.6445017
  35.9339987 100.7455006 110.6445017  34.7369987 101.6725006 110.6445017
  35.3239987 101.4795006 114.0495017  36.2809987 101.4795006 114.0495017
  35.0839987 102.4065006 114.0495017  19.6509987  99.8485006 117.2045017
  20.6079987  99.8485006 117.2045017  19.4109987 100.7755006 117.2045017
  37.6939987  95.3675006 119.0645017  38.6509987  95.3675006 119.0645017
  37.4539987  96.2945006 119.0645017  35.3789987  97.3165006 105.4925017
  36.3359987  97.3165006 105.4925017  35.1389987  98.2435006 105.4925017
  20.8559987  98.1395006 110.0645017  21.8129987  98.1395006 110.0645017
  20.6159987  99.0665006 110.0645017  19.1439987 101.1285006 111.1125017
  20.1009987 101.1285006 111.1125017  18.9039987 102.0555006 111.1125017
  37.2009987  97.4625006 117.4165017  38.1579987  97.4625006 117.4165017
  36.9609987  98.3895006 117.4165017  19.4979987  97.4185006 105.1575017
  20.4549987  97.4185006 105.1575017  19.2579987  98.3455006 105.1575017
  19.4629987  96.0745006 113.4895017  20.4199987  96.0745006 113.4895017
  19.2229987  97.0015006 113.4895017  36.7159987  95.3995006 115.6135017
  37.6729987  95.3995006 115.6135017  36.4759987  96.3265006 115.6135017
  29.5999987  96.9995006 109.5215017  30.5569987  96.9995006 109.5215017
  29.3599987  97.9265006 109.5215017  34.7539987  95.0385006 109.6065017
  35.7109987  95.0385006 109.6065017  34.5139987  95.9655006 109.6065017
  36.4139987  96.2845006 107.8905017  37.3709987  96.2845006 107.8905017
  36.1739987  97.2115006 107.8905017  21.9649987  95.6365006 107.3635017
  22.9219987  95.6365006 107.3635017  21.7249987  96.5635006 107.3635017
  20.8009987  95.4075006 103.1875017  21.7579987  95.4075006 103.1875017
  20.5609987  96.3345006 103.1875017  26.4679987  95.5455006 107.1635017
  27.4249987  95.5455006 107.1635017  26.2279987  96.4725006 107.1635017
  32.1199987  95.5765006 108.7815017  33.0769987  95.5765006 108.7815017
  31.8799987  96.5035006 108.7815017  33.4289987  95.5955006 104.4575017
  34.3859987  95.5955006 104.4575017  33.1889987  96.5225006 104.4575017
  27.5919987  97.5885006 104.0485017  28.5489987  97.5885006 104.0485017
  27.3519987  98.5155006 104.0485017  21.8679987  96.1625006 116.8315017
  22.8249987  96.1625006 116.8315017  21.6279987  97.0895006 116.8315017
  23.8719987  95.5345006 118.4445017  24.8289987  95.5345006 118.4445017
  23.6319987  96.4615006 118.4445017  32.2699987  94.8475006 118.6245017
  33.2269987  94.8475006 118.6245017  32.0299987  95.7745006 118.6245017
  49.8639987 104.7835006 107.2955017  50.8209987 104.7835006 107.2955017
  49.6239987 105.7105006 107.2955017  48.7399987 104.0485006 110.7615017
  49.6969987 104.0485006 110.7615017  48.4999987 104.9755006 110.7615017
  41.1529987 103.6725006 112.2805017  42.1099987 103.6725006 112.2805017
  40.9129987 104.5995006 112.2805017  52.3439987 106.8075006 108.9455017
  53.3009987 106.8075006 108.9455017  52.1039987 107.7345006 108.9455017
  42.1839987 107.5875006 111.2155017  43.1409987 107.5875006 111.2155017
  41.9439987 108.5145006 111.2155017  38.7089987 101.7065006 106.2785017
  39.6659987 101.7065006 106.2785017  38.4689987 102.6335006 106.2785017
  39.4169987 103.9545006 108.3995017  40.3739987 103.9545006 108.3995017
  39.1769987 104.8815006 108.3995017  47.1349987 106.3875006 111.2435017
  48.0919987 106.3875006 111.2435017  46.8949987 107.3145006 111.2435017
  55.7809987  98.0675006 111.9475017  56.7379987  98.0675006 111.9475017
  55.5409987  98.9945006 111.9475017  50.3599987 100.8855006 111.5395017
  51.3169987 100.8855006 111.5395017  50.1199987 101.8125006 111.5395017
  43.4479987  98.9715006 108.7345017  44.4049987  98.9715006 108.7345017
  43.2079987  99.8985006 108.7345017  51.2819987  98.6815006 106.9735017
  52.2389987  98.6815006 106.9735017  51.0419987  99.6085006 106.9735017
  40.4159987 101.4465006 109.3435017  41.3729987 101.4465006 109.3435017
  40.1759987 102.3735006 109.3435017  45.2309987 102.9505006 108.7685017
  46.1879987 102.9505006 108.7685017  44.9909987 103.8775006 108.7685017
  56.2149987  99.5005006 114.2075017  57.1719987  99.5005006 114.2075017
  55.9749987 100.4275006 114.2075017  42.3369987  97.8785006 112.7825017
  43.2939987  97.8785006 112.7825017  42.0969987  98.8055006 112.7825017
  49.6799987 107.3845006 106.3355017  50.6369987 107.3845006 106.3355017
  49.4399987 108.3115006 106.3355017  44.8999987 105.5435006 113.1315017
  45.8569987 105.5435006 113.1315017  44.6599987 106.4705006 113.1315017
  52.9669987  98.3985006 109.1065017  53.9239987  98.3985006 109.1065017
  52.7269987  99.3255006 109.1065017  41.9109987  99.7165006 110.8085017
  42.8679987  99.7165006 110.8085017  41.6709987 100.6435006 110.8085017
  43.3009987 107.5435006 113.7765017  44.2579987 107.5435006 113.7765017
  43.0609987 108.4705006 113.7765017  39.3129987 107.0735006 104.7255017
  40.2699987 107.0735006 104.7255017  39.0729987 108.0005006 104.7255017
  53.3229987  97.0915006 112.7815017  54.2799987  97.0915006 112.7815017
  53.0829987  98.0185006 112.7815017  46.3029987  95.2035006 110.2415017
  47.2599987  95.2035006 110.2415017  46.0629987  96.1305006 110.2415017
  53.9919987 106.9575006 114.9785017  54.9489987 106.9575006 114.9785017
  53.7519987 107.8845006 114.9785017  48.5889987 104.0295006 104.7635017
  49.5459987 104.0295006 104.7635017  48.3489987 104.9565006 104.7635017
  48.6589987 102.5155006 101.7835017  49.6159987 102.5155006 101.7835017
  48.4189987 103.4425006 101.7835017  55.9689987 103.4185006 113.0455017
  56.9259987 103.4185006 113.0455017  55.7289987 104.3455006 113.0455017
  52.0189987 104.2265006 105.6805017  52.9759987 104.2265006 105.6805017
  51.7789987 105.1535006 105.6805017  51.9549987 102.3745006 114.7825017
  52.9119987 102.3745006 114.7825017  51.7149987 103.3015006 114.7825017
  43.6329987 104.8705006 107.5925017  44.5899987 104.8705006 107.5925017
  43.3929987 105.7975006 107.5925017  43.9869987 103.6375006 111.2535017
  44.9439987 103.6375006 111.2535017  43.7469987 104.5645006 111.2535017
  44.3659987  -0.0254994 116.0225017  45.3229987  -0.0254994 116.0225017
  44.1259987   0.9015006 116.0225017  50.9009987 103.3645006 103.3355017
  51.8579987 103.3645006 103.3355017  50.6609987 104.2915006 103.3355017
  41.8699987 104.2315006 115.1395017  42.8269987 104.2315006 115.1395017
  41.6299987 105.1585006 115.1395017  54.6339987  95.1565006 103.2435017
  55.5909987  95.1565006 103.2435017  54.3939987  96.0835006 103.2435017
  42.6229987 103.9015006 105.1885017  43.5799987 103.9015006 105.1885017
  42.3829987 104.8285006 105.1885017  38.6629987 106.3105006 114.0755017
  39.6199987 106.3105006 114.0755017  38.4229987 107.2375006 114.0755017
  53.8419987 101.2335006 117.0415017  54.7989987 101.2335006 117.0415017
  53.6019987 102.1605006 117.0415017  40.9989987 107.5655006 115.0135017
  41.9559987 107.5655006 115.0135017  40.7589987 108.4925006 115.0135017
  43.6499987  96.0995006 111.0025017  44.6069987  96.0995006 111.0025017
  43.4099987  97.0265006 111.0025017  48.2949987  95.7915006 114.3665017
  49.2519987  95.7915006 114.3665017  48.0549987  96.7185006 114.3665017
  51.5969987  99.6085006 115.2545017  52.5539987  99.6085006 115.2545017
  51.3569987 100.5355006 115.2545017  43.7479987 101.0715006 112.2155017
  44.7049987 101.0715006 112.2155017  43.5079987 101.9985006 112.2155017
  43.7079987 101.2325006 107.0875017  44.6649987 101.2325006 107.0875017
  43.4679987 102.1595006 107.0875017  49.0739987 101.6265006 105.7315017
  50.0309987 101.6265006 105.7315017  48.8339987 102.5535006 105.7315017
  48.2919987 101.9295006 117.3315017  49.2489987 101.9295006 117.3315017
  48.0519987 102.8565006 117.3315017  49.6329987 101.0465006 108.9985017
  50.5899987 101.0465006 108.9985017  49.3929987 101.9735006 108.9985017
  41.4169987 101.3395006 113.9485017  42.3739987 101.3395006 113.9485017
  41.1769987 102.2665006 113.9485017  38.0449987  98.4595006 107.8535017
  39.0019987  98.4595006 107.8535017  37.8049987  99.3865006 107.8535017
  39.3189987  99.2065006 103.2615017  40.2759987  99.2065006 103.2615017
  39.0789987 100.1335006 103.2615017  49.4629987 102.7785006 113.2995017
  50.4199987 102.7785006 113.2995017  49.2229987 103.7055006 113.2995017
  46.2699987  98.7335006 108.1185017  47.2269987  98.7335006 108.1185017
  46.0299987  99.6605006 108.1185017  41.1069987 100.3185006 106.9275017
  42.0639987 100.3185006 106.9275017  40.8669987 101.2455006 106.9275017
  44.7179987 100.3415006 104.5815017  45.6749987 100.3415006 104.5815017
  44.4779987 101.2685006 104.5815017  50.6809987  97.9565006 111.3785017
  51.6379987  97.9565006 111.3785017  50.4409987  98.8835006 111.3785017
  41.5909987 106.1785006 117.2395017  42.5479987 106.1785006 117.2395017
  41.3509987 107.1055006 117.2395017  47.3979987 101.4865006 110.0325017
  48.3549987 101.4865006 110.0325017  47.1579987 102.4135006 110.0325017
  42.5689987  97.6625006 106.4205017  43.5259987  97.6625006 106.4205017
  42.3289987  98.5895006 106.4205017  46.2119987  99.8435006 112.4155017
  47.1689987  99.8435006 112.4155017  45.9719987 100.7705006 112.4155017
  46.7999987 106.0575006 104.0955017  47.7569987 106.0575006 104.0955017
  46.5599987 106.9845006 104.0955017  53.9529987 105.2635006 112.8985017
  54.9099987 105.2635006 112.8985017  53.7129987 106.1905006 112.8985017
  48.5339987 106.3795006 115.3465017  49.4909987 106.3795006 115.3465017
  48.2939987 107.3065006 115.3465017  51.4039987 100.7235006 103.8745017
  52.3609987 100.7235006 103.8745017  51.1639987 101.6505006 103.8745017
  41.8719987 105.4155006 109.8575017  42.8289987 105.4155006 109.8575017
  41.6319987 106.3425006 109.8575017  48.9229987 107.5425006 103.2305017
  49.8799987 107.5425006 103.2305017  48.6829987 108.4695006 103.2305017
  38.8919987 103.8645006 115.2075017  39.8489987 103.8645006 115.2075017
  38.6519987 104.7915006 115.2075017  45.9319987 103.4855006 117.3245017
  46.8889987 103.4855006 117.3245017  45.6919987 104.4125006 117.3245017
  56.2609987 106.7715006 116.5175017  57.2179987 106.7715006 116.5175017
  56.0209987 107.6985006 116.5175017  51.7449987 104.5815006 111.2205017
  52.7019987 104.5815006 111.2205017  51.5049987 105.5085006 111.2205017
  40.0719987 103.6915006 101.9585017  41.0289987 103.6915006 101.9585017
  39.8319987 104.6185006 101.9585017  45.7259987 106.5025006 106.8255017
  46.6829987 106.5025006 106.8255017  45.4859987 107.4295006 106.8255017
  49.6669987 106.7925006 112.8615017  50.6239987 106.7925006 112.8615017
  49.4269987 107.7195006 112.8615017  40.5389987  98.5965006 114.7235017
  41.4959987  98.5965006 114.7235017  40.2989987  99.5235006 114.7235017
  52.7779987 106.3915006 104.1965017  53.7349987 106.3915006 104.1965017
  52.5379987 107.3185006 104.1965017  41.4549987 105.6755006 103.4115017
  42.4119987 105.6755006 103.4115017  41.2149987 106.6025006 103.4115017
  49.2619987  98.3655006 113.6695017  50.2189987  98.3655006 113.6695017
  49.0219987  99.2925006 113.6695017  50.0239987  97.9525006 104.7205017
  50.9809987  97.9525006 104.7205017  49.7839987  98.8795006 104.7205017
  47.2049987  99.7155006 105.5665017  48.1619987  99.7155006 105.5665017
  46.9649987 100.6425006 105.5665017  47.7939987 100.7265006 114.7775017
  48.7509987 100.7265006 114.7775017  47.5539987 101.6535006 114.7775017
  48.1049987  96.7535006 106.4875017  49.0619987  96.7535006 106.4875017
  47.8649987  97.6805006 106.4875017  43.7969987  97.8855006 103.1725017
  44.7539987  97.8855006 103.1725017  43.5569987  98.8125006 103.1725017
  53.9889987  98.5895006 115.6295017  54.9459987  98.5895006 115.6295017
  53.7489987  99.5165006 115.6295017  52.5639987 102.4225006 109.8395017
  53.5209987 102.4225006 109.8395017  52.3239987 103.3495006 109.8395017
  41.1579987  95.7505006 110.0995017  42.1149987  95.7505006 110.0995017
  40.9179987  96.6775006 110.0995017  39.2879987 106.0755006 118.4655017
  40.2449987 106.0755006 118.4655017  39.0479987 107.0025006 118.4655017
  43.6899987 106.4815006 100.6515017  44.6469987 106.4815006 100.6515017
  43.4499987 107.4085006 100.6515017  45.9049987 106.0685006 118.0655017
  46.8619987 106.0685006 118.0655017  45.6649987 106.9955006 118.0655017
  51.5929987 105.9625006 115.3445017  52.5499987 105.9625006 115.3445017
  51.3529987 106.8895006 115.3445017  40.1399987 103.3495006 117.9225017
  41.0969987 103.3495006 117.9225017  39.8999987 104.2765006 117.9225017
  44.1049987 102.3285006 115.3135017  45.0619987 102.3285006 115.3135017
  43.8649987 103.2555006 115.3135017  49.0869987 104.8005006 118.5375017
  50.0439987 104.8005006 118.5375017  48.8469987 105.7275006 118.5375017
  44.4379987  99.6485006 116.3545017  45.3949987  99.6485006 116.3545017
  44.1979987 100.5755006 116.3545017  44.8429987  98.0295006 113.8865017
  45.7999987  98.0295006 113.8865017  44.6029987  98.9565006 113.8865017
  46.4459987 103.5585006 114.1465017  47.4029987 103.5585006 114.1465017
  46.2059987 104.4855006 114.1465017  50.7919987 101.2775006 119.1085017
  51.7489987 101.2775006 119.1085017  50.5519987 102.2045006 119.1085017
  52.1329987 104.0625006 117.2395017  53.0899987 104.0625006 117.2395017
  51.8929987 104.9895006 117.2395017  42.8939987 100.8815006 118.2705017
  43.8509987 100.8815006 118.2705017  42.6539987 101.8085006 118.2705017
  45.6369987  95.4685006 114.2935017  46.5939987  95.4685006 114.2935017
  45.3969987  96.3955006 114.2935017  46.9089987  99.8005006 117.8915017
  47.8659987  99.8005006 117.8915017  46.6689987 100.7275006 117.8915017
  49.6249987  98.9345006 116.9685017  50.5819987  98.9345006 116.9685017
  49.3849987  99.8615006 116.9685017  51.2209987  97.5635006 118.9075017
  52.1779987  97.5635006 118.9075017  50.9809987  98.4905006 118.9075017
  41.0059987  98.8215006 118.0015017  41.9629987  98.8215006 118.0015017
  40.7659987  99.7485006 118.0015017  45.8479987  94.8365006 116.9835017
  46.8049987  94.8365006 116.9835017  45.6079987  95.7635006 116.9835017
  46.2149987  96.4705006 119.0725017  47.1719987  96.4705006 119.0725017
  45.9749987  97.3975006 119.0725017  54.3059987 107.5675006 119.0925017
  55.2629987 107.5675006 119.0925017  54.0659987 108.4945006 119.0925017
  55.6909987 105.8725006 104.5855017  56.6479987 105.8725006 104.5855017
  55.4509987 106.7995006 104.5855017  56.1209987 103.9745006 106.4175017
  57.0779987 103.9745006 106.4175017  55.8809987 104.9015006 106.4175017
  55.8199987 106.7145006 111.3985017  56.7769987 106.7145006 111.3985017
  55.5799987 107.6415006 111.3985017  54.1579987 102.4765006 107.0665017
  55.1149987 102.4765006 107.0665017  53.9179987 103.4035006 107.0665017
  38.9069987 104.6135006 111.0495017  39.8639987 104.6135006 111.0495017
  38.6669987 105.5405006 111.0495017  54.7399987 104.4525006 116.6615017
  55.6969987 104.4525006 116.6615017  54.4999987 105.3795006 116.6615017
  56.2489987 102.3355006 117.3485017  57.2059987 102.3355006 117.3485017
  56.0089987 103.2625006 117.3485017  53.5979987 100.0325006 105.4025017
  54.5549987 100.0325006 105.4025017  53.3579987 100.9595006 105.4025017
  54.1999987 100.5805006 110.9135017  55.1569987 100.5805006 110.9135017
  53.9599987 101.5075006 110.9135017  54.2599987 101.3155006 113.6935017
  55.2169987 101.3155006 113.6935017  54.0199987 102.2425006 113.6935017
  38.5079987  99.8575006 117.2635017  39.4649987  99.8575006 117.2635017
  38.2679987 100.7845006 117.2635017  56.5249987  95.3645006 119.0425017
  57.4819987  95.3645006 119.0425017  56.2849987  96.2915006 119.0425017
  54.2689987  97.3115006 105.4895017  55.2259987  97.3115006 105.4895017
  54.0289987  98.2385006 105.4895017  39.7609987  98.1345006 110.0105017
  40.7179987  98.1345006 110.0105017  39.5209987  99.0615006 110.0105017
  38.3029987 101.8845006 110.4685017  39.2599987 101.8845006 110.4685017
  38.0629987 102.8115006 110.4685017  56.0549987  97.4705006 117.3945017
  57.0119987  97.4705006 117.3945017  55.8149987  98.3975006 117.3945017
  38.3529987  97.3995006 105.1625017  39.3099987  97.3995006 105.1625017
  38.1129987  98.3265006 105.1625017  38.3599987  96.0545006 113.5145017
  39.3169987  96.0545006 113.5145017  38.1199987  96.9815006 113.5145017
  55.0679987  95.5665006 115.2305017  56.0249987  95.5665006 115.2305017
  54.8279987  96.4935006 115.2305017  48.4529987  96.9885006 109.5325017
  49.4099987  96.9885006 109.5325017  48.2129987  97.9155006 109.5325017
  53.5999987  95.0595006 109.6165017  54.5569987  95.0595006 109.6165017
  53.3599987  95.9865006 109.6165017  55.2779987  96.2715006 107.9145017
  56.2349987  96.2715006 107.9145017  55.0379987  97.1985006 107.9145017
  40.8199987  95.6245006 107.3885017  41.7769987  95.6245006 107.3885017
  40.5799987  96.5515006 107.3885017  39.5869987  95.3985006 103.1285017
  40.5439987  95.3985006 103.1285017  39.3469987  96.3255006 103.1285017
  45.3239987  95.5445006 107.1625017  46.2809987  95.5445006 107.1625017
  45.0839987  96.4715006 107.1625017  50.9929987  95.5775006 108.7945017
  51.9499987  95.5775006 108.7945017  50.7529987  96.5045006 108.7945017
  52.2989987  95.6225006 104.5255017  53.2559987  95.6225006 104.5255017
  52.0589987  96.5495006 104.5255017  46.4099987  97.5975006 104.0175017
  47.3669987  97.5975006 104.0175017  46.1699987  98.5245006 104.0175017
  40.7219987  96.1635006 116.8295017  41.6789987  96.1635006 116.8295017
  40.4819987  97.0905006 116.8295017  42.7279987  95.5375006 118.4435017
  43.6849987  95.5375006 118.4435017  42.4879987  96.4645006 118.4435017
  51.1299987  94.8415006 118.6075017  52.0869987  94.8415006 118.6075017
  50.8899987  95.7685006 118.6075017  68.7459987 104.7835006 107.2735017
  69.7029987 104.7835006 107.2735017  68.5059987 105.7105006 107.2735017
  67.6259987 104.0335006 110.7405017  68.5829987 104.0335006 110.7405017
  67.3859987 104.9605006 110.7405017  59.9999987 103.6735006 112.2835017
  60.9569987 103.6735006 112.2835017  59.7599987 104.6005006 112.2835017
  71.2019987 106.7935006 108.9415017  72.1589987 106.7935006 108.9415017
  70.9619987 107.7205006 108.9415017  61.0379987 107.5905006 111.2125017
  61.9949987 107.5905006 111.2125017  60.7979987 108.5175006 111.2125017
  57.5679987 101.7095006 106.2345017  58.5249987 101.7095006 106.2345017
  57.3279987 102.6365006 106.2345017  58.2559987 103.9315006 108.3935017
  59.2129987 103.9315006 108.3935017  58.0159987 104.8585006 108.3935017
  65.9999987 106.4065006 111.2095017  66.9569987 106.4065006 111.2095017
  65.7599987 107.3335006 111.2095017  74.6349987  98.0715006 111.9475017
  75.5919987  98.0715006 111.9475017  74.3949987  98.9985006 111.9475017
  69.1809987 100.8865006 111.5035017  70.1379987 100.8865006 111.5035017
  68.9409987 101.8135006 111.5035017  62.3009987  98.9745006 108.7395017
  63.2579987  98.9745006 108.7395017  62.0609987  99.9015006 108.7395017
  70.0419987  99.0605006 107.1115017  70.9989987  99.0605006 107.1115017
  69.8019987  99.9875006 107.1115017  58.9279987 101.3835006 109.4815017
  59.8849987 101.3835006 109.4815017  58.6879987 102.3105006 109.4815017
  64.0859987 102.9515006 108.7725017  65.0429987 102.9515006 108.7725017
  63.8459987 103.8785006 108.7725017  75.0799987  99.5165006 114.1965017
  76.0369987  99.5165006 114.1965017  74.8399987 100.4435006 114.1965017
  61.1909987  97.8735006 112.7825017  62.1479987  97.8735006 112.7825017
  60.9509987  98.8005006 112.7825017  68.5339987 107.3855006 106.3205017
  69.4909987 107.3855006 106.3205017  68.2939987 108.3125006 106.3205017
  63.7169987 105.5355006 113.0395017  64.6739987 105.5355006 113.0395017
  63.4769987 106.4625006 113.0395017  71.8279987  98.4035006 109.0985017
  72.7849987  98.4035006 109.0985017  71.5879987  99.3305006 109.0985017
  60.7519987  99.7425006 110.7905017  61.7089987  99.7425006 110.7905017
  60.5119987 100.6695006 110.7905017  62.1489987 107.5405006 113.7675017
  63.1059987 107.5405006 113.7675017  61.9089987 108.4675006 113.7675017
  58.2019987 107.0745006 104.7025017  59.1589987 107.0745006 104.7025017
  57.9619987 108.0015006 104.7025017  72.1469987  97.1815006 112.7565017
  73.1039987  97.1815006 112.7565017  71.9069987  98.1085006 112.7565017
  65.1559987  95.2055006 110.2415017  66.1129987  95.2055006 110.2415017
  64.9159987  96.1325006 110.2415017  72.8479987 106.9625006 114.9735017
  73.8049987 106.9625006 114.9735017  72.6079987 107.8895006 114.9735017
  67.4479987 104.0395006 104.7595017  68.4049987 104.0395006 104.7595017
  67.2079987 104.9665006 104.7595017  67.5129987 102.5115006 101.8125017
  68.4699987 102.5115006 101.8125017  67.2729987 103.4385006 101.8125017
  74.8259987 103.4195006 113.0395017  75.7829987 103.4195006 113.0395017
  74.5859987 104.3465006 113.0395017  70.8389987 104.1885006 105.6755017
  71.7959987 104.1885006 105.6755017  70.5989987 105.1155006 105.6755017
  70.8149987 102.3805006 114.7755017  71.7719987 102.3805006 114.7755017
  70.5749987 103.3075006 114.7755017  62.4909987 104.8655006 107.5775017
  63.4479987 104.8655006 107.5775017  62.2509987 105.7925006 107.5775017
  62.8259987 103.6455006 111.2405017  63.7829987 103.6455006 111.2405017
  62.5859987 104.5725006 111.2405017  63.1699987   0.0135006 116.0385017
  64.1269987   0.0135006 116.0385017  62.9299987   0.9405006 116.0385017
  69.7349987 103.4035006 103.3505017  70.6919987 103.4035006 103.3505017
  69.4949987 104.3305006 103.3505017  60.7079987 104.2205006 115.1425017
  61.6649987 104.2205006 115.1425017  60.4679987 105.1475006 115.1425017
  73.4299987  95.1305006 103.1675017  74.3869987  95.1305006 103.1675017
  73.1899987  96.0575006 103.1675017  61.4779987 103.9285006 105.2095017
  62.4349987 103.9285006 105.2095017  61.2379987 104.8555006 105.2095017
  57.5189987 106.3085006 114.0715017  58.4759987 106.3085006 114.0715017
  57.2789987 107.2355006 114.0715017  72.5729987 101.1955006 117.0935017
  73.5299987 101.1955006 117.0935017  72.3329987 102.1225006 117.0935017
  59.8369987 107.5705006 115.0125017  60.7939987 107.5705006 115.0125017
  59.5969987 108.4975006 115.0125017  62.5049987  96.1005006 111.0015017
  63.4619987  96.1005006 111.0015017  62.2649987  97.0275006 111.0015017
  67.1639987  95.7535006 114.3555017  68.1209987  95.7535006 114.3555017
  66.9239987  96.6805006 114.3555017  70.4489987  99.6075006 115.2495017
  71.4059987  99.6075006 115.2495017  70.2089987 100.5345006 115.2495017
  71.1529987 104.4285006 101.0505017  72.1099987 104.4285006 101.0505017
  70.9129987 105.3555006 101.0505017  62.6059987 101.0745006 112.2095017
  63.5629987 101.0745006 112.2095017  62.3659987 102.0015006 112.2095017
  62.5689987 101.2285006 107.1015017  63.5259987 101.2285006 107.1015017
  62.3289987 102.1555006 107.1015017  68.0829987 101.6825006 105.8525017
  69.0399987 101.6825006 105.8525017  67.8429987 102.6095006 105.8525017
  67.1639987 101.9125006 117.3245017  68.1209987 101.9125006 117.3245017
  66.9239987 102.8395006 117.3245017  69.1199987 101.1765006 108.7055017
  70.0769987 101.1765006 108.7055017  68.8799987 102.1035006 108.7055017
  60.2529987 101.3535006 113.9435017  61.2099987 101.3535006 113.9435017
  60.0129987 102.2805006 113.9435017  56.9009987  98.4695006 107.8775017
  57.8579987  98.4695006 107.8775017  56.6609987  99.3965006 107.8775017
  68.3369987 102.7755006 113.2995017  69.2939987 102.7755006 113.2995017
  68.0969987 103.7025006 113.2995017  65.1249987  98.7395006 108.1215017
  66.0819987  98.7395006 108.1215017  64.8849987  99.6665006 108.1215017
  59.9429987 100.3035006 106.9595017  60.8999987 100.3035006 106.9595017
  59.7029987 101.2305006 106.9595017  63.5689987 100.3405006 104.6015017
  64.5259987 100.3405006 104.6015017  63.3289987 101.2675006 104.6015017
  69.5429987  97.9385006 111.3705017  70.4999987  97.9385006 111.3705017
  69.3029987  98.8655006 111.3705017  62.3099987 101.5005006 102.1855017
  63.2669987 101.5005006 102.1855017  62.0699987 102.4275006 102.1855017
  60.4339987 106.1815006 117.2415017  61.3909987 106.1815006 117.2415017
  60.1939987 107.1085006 117.2415017  66.4229987 101.5045006 110.0065017
  67.3799987 101.5045006 110.0065017  66.1829987 102.4315006 110.0065017
  61.4239987  97.6515006 106.4245017  62.3809987  97.6515006 106.4245017
  61.1839987  98.5785006 106.4245017  65.0609987  99.8595006 112.4175017
  66.0179987  99.8595006 112.4175017  64.8209987 100.7865006 112.4175017
  72.8079987 105.2605006 112.9005017  73.7649987 105.2605006 112.9005017
  72.5679987 106.1875006 112.9005017  67.1179987 106.2765006 115.3485017
  68.0749987 106.2765006 115.3485017  66.8779987 107.2035006 115.3485017
  70.2169987 100.7575006 103.9765017  71.1739987 100.7575006 103.9765017
  69.9769987 101.6845006 103.9765017  60.7249987 105.4115006 109.8495017
  61.6819987 105.4115006 109.8495017  60.4849987 106.3385006 109.8495017
  57.7509987 103.8525006 115.1885017  58.7079987 103.8525006 115.1885017
  57.5109987 104.7795006 115.1885017  64.7529987 103.4075006 117.3805017
  65.7099987 103.4075006 117.3805017  64.5129987 104.3345006 117.3805017
  75.1279987 100.9625006 103.7055017  76.0849987 100.9625006 103.7055017
  74.8879987 101.8895006 103.7055017  75.1189987 106.7985006 116.5155017
  76.0759987 106.7985006 116.5155017  74.8789987 107.7255006 116.5155017
  70.6019987 104.5745006 111.2035017  71.5589987 104.5745006 111.2035017
  70.3619987 105.5015006 111.2035017  64.5789987 106.5145006 106.8345017
  65.5359987 106.5145006 106.8345017  64.3389987 107.4415006 106.8345017
  68.5459987 106.8075006 112.8785017  69.5029987 106.8075006 112.8785017
  68.3059987 107.7345006 112.8785017  70.7579987 107.7475006 101.9185017
  71.7149987 107.7475006 101.9185017  70.5179987 108.6745006 101.9185017
  59.3949987  98.5975006 114.7315017  60.3519987  98.5975006 114.7315017
  59.1549987  99.5245006 114.7315017  71.6279987 106.4015006 104.1805017
  72.5849987 106.4015006 104.1805017  71.3879987 107.3285006 104.1805017
  60.3249987 105.6945006 103.3795017  61.2819987 105.6945006 103.3795017
  60.0849987 106.6215006 103.3795017  68.1339987  98.3485006 113.6605017
  69.0909987  98.3485006 113.6605017  67.8939987  99.2755006 113.6605017
  68.9129987  97.9395006 104.7305017  69.8699987  97.9395006 104.7305017
  68.6729987  98.8665006 104.7305017  66.0899987  99.7115006 105.5615017
  67.0469987  99.7115006 105.5615017  65.8499987 100.6385006 105.5615017
  66.6559987 100.7095006 114.7735017  67.6129987 100.7095006 114.7735017
  66.4159987 101.6365006 114.7735017  66.9739987  96.7565006 106.5225017
  67.9309987  96.7565006 106.5225017  66.7339987  97.6835006 106.5225017
  62.6309987  97.8475006 103.2005017  63.5879987  97.8475006 103.2005017
  62.3909987  98.7745006 103.2005017  72.8359987  98.5905006 115.6235017
  73.7929987  98.5905006 115.6235017  72.5959987  99.5175006 115.6235017
  71.4429987 102.3715006 109.6565017  72.3999987 102.3715006 109.6565017
  71.2029987 103.2985006 109.6565017  60.0109987  95.7525006 110.0985017
  60.9679987  95.7525006 110.0985017  59.7709987  96.6795006 110.0985017
  58.1419987 106.0755006 118.4675017  59.0989987 106.0755006 118.4675017
  57.9019987 107.0025006 118.4675017  64.7929987 106.0395006 117.9285017
  65.7499987 106.0395006 117.9285017  64.5529987 106.9665006 117.9285017
  70.4459987 105.9705006 115.3325017  71.4029987 105.9705006 115.3325017
  70.2059987 106.8975006 115.3325017  58.9849987 103.3445006 117.9175017
  59.9419987 103.3445006 117.9175017  58.7449987 104.2715006 117.9175017
  62.9049987 102.2775006 115.2845017  63.8619987 102.2775006 115.2845017
  62.6649987 103.2045006 115.2845017  67.9559987 104.8085006 118.5635017
  68.9129987 104.8085006 118.5635017  67.7159987 105.7355006 118.5635017
  73.9789987 104.6475006 100.8355017  74.9359987 104.6475006 100.8355017
  73.7389987 105.5745006 100.8355017  63.3019987  99.6525006 116.3525017
  64.2589987  99.6525006 116.3525017  63.0619987 100.5795006 116.3525017
  63.6989987  98.0305006 113.8855017  64.6559987  98.0305006 113.8855017
  63.4589987  98.9575006 113.8855017  65.2569987 103.5105006 114.1345017
  66.2139987 103.5105006 114.1345017  65.0169987 104.4375006 114.1345017
  69.6479987 101.2775006 119.1115017  70.6049987 101.2775006 119.1115017
  69.4079987 102.2045006 119.1115017  70.9849987 104.0635006 117.2415017
  71.9419987 104.0635006 117.2415017  70.7449987 104.9905006 117.2415017
  61.7529987 100.8845006 118.2715017  62.7099987 100.8845006 118.2715017
  61.5129987 101.8115006 118.2715017  64.4939987  95.4685006 114.2925017
  65.4509987  95.4685006 114.2925017  64.2539987  96.3955006 114.2925017
  65.7649987  99.7975006 117.8905017  66.7219987  99.7975006 117.8905017
  65.5249987 100.7245006 117.8905017  68.4809987  98.9295006 116.9655017
  69.4379987  98.9295006 116.9655017  68.2409987  99.8565006 116.9655017
  70.0759987  97.5615006 118.9085017  71.0329987  97.5615006 118.9085017
  69.8359987  98.4885006 118.9085017  59.8529987  98.8205006 117.9995017
  60.8099987  98.8205006 117.9995017  59.6129987  99.7475006 117.9995017
  64.7049987  94.8365006 116.9825017  65.6619987  94.8365006 116.9825017
  64.4649987  95.7635006 116.9825017  65.0709987  96.4705006 119.0725017
  66.0279987  96.4705006 119.0725017  64.8309987  97.3975006 119.0725017
  58.1949987 107.8355006 101.5365017  59.1519987 107.8355006 101.5365017
  57.9549987 108.7625006 101.5365017  73.1629987 107.5695006 119.0935017
  74.1199987 107.5695006 119.0935017  72.9229987 108.4965006 119.0935017
  74.5539987 105.8555006 104.5705017  75.5109987 105.8555006 104.5705017
  74.3139987 106.7825006 104.5705017  74.9389987 103.9625006 106.4445017
  75.8959987 103.9625006 106.4445017  74.6989987 104.8895006 106.4445017
  74.6769987 106.7135006 111.3995017  75.6339987 106.7135006 111.3995017
  74.4369987 107.6405006 111.3995017  75.2489987 103.7735006 102.8715017
  76.2059987 103.7735006 102.8715017  75.0089987 104.7005006 102.8715017
  72.7589987 102.4595006 107.0035017  73.7159987 102.4595006 107.0035017
  72.5189987 103.3865006 107.0035017  57.7439987 104.5365006 111.0475017
  58.7009987 104.5365006 111.0475017  57.5039987 105.4635006 111.0475017
  73.5459987 104.5515006 116.6585017  74.5029987 104.5515006 116.6585017
  73.3059987 105.4785006 116.6585017  74.8039987 102.3645006 116.7285017
  75.7609987 102.3645006 116.7285017  74.5639987 103.2915006 116.7285017
  72.4319987 100.0645006 105.4975017  73.3889987 100.0645006 105.4975017
  72.1919987 100.9915006 105.4975017  73.0479987 100.5955006 110.9125017
  74.0049987 100.5955006 110.9125017  72.8079987 101.5225006 110.9125017
  73.1059987 101.3095006 113.6815017  74.0629987 101.3095006 113.6815017
  72.8659987 102.2365006 113.6815017  57.3629987  99.8485006 117.2045017
  58.3199987  99.8485006 117.2045017  57.1229987 100.7755006 117.2045017
  75.3849987  95.3605006 119.0475017  76.3419987  95.3605006 119.0475017
  75.1449987  96.2875006 119.0475017  73.0859987  97.3335006 105.5095017
  74.0429987  97.3335006 105.5095017  72.8459987  98.2605006 105.5095017
  58.5669987  98.1395006 110.0645017  59.5239987  98.1395006 110.0645017
  58.3269987  99.0665006 110.0645017  56.8569987 101.1295006 111.1135017
  57.8139987 101.1295006 111.1135017  56.6169987 102.0565006 111.1135017
  74.8459987  97.3615006 117.4475017  75.8029987  97.3615006 117.4475017
  74.6059987  98.2885006 117.4475017  74.9529987  97.3625006 102.0845017
  75.9099987  97.3625006 102.0845017  74.7129987  98.2895006 102.0845017
  57.2069987  97.4185006 105.1635017  58.1639987  97.4185006 105.1635017
  56.9669987  98.3455006 105.1635017  57.1749987  96.0735006 113.4925017
  58.1319987  96.0735006 113.4925017  56.9349987  97.0005006 113.4925017
  73.9029987  95.5535006 115.2725017  74.8599987  95.5535006 115.2725017
  73.6629987  96.4805006 115.2725017  67.3229987  97.0005006 109.5305017
  68.2799987  97.0005006 109.5305017  67.0829987  97.9275006 109.5305017
  72.4499987  95.0605006 109.6255017  73.4069987  95.0605006 109.6255017
  72.2099987  95.9875006 109.6255017  74.1379987  96.2795006 107.8835017
  75.0949987  96.2795006 107.8835017  73.8979987  97.2065006 107.8835017
  59.6869987  95.6355006 107.3725017  60.6439987  95.6355006 107.3725017
  59.4469987  96.5625006 107.3725017  58.4699987  95.3885006 103.1425017
  59.4269987  95.3885006 103.1425017  58.2299987  96.3155006 103.1425017
  64.1829987  95.5325006 107.1525017  65.1399987  95.5325006 107.1525017
  63.9429987  96.4595006 107.1525017  69.8589987  95.5635006 108.8045017
  70.8159987  95.5635006 108.8045017  69.6189987  96.4905006 108.8045017
  71.1459987  95.5935006 104.4415017  72.1029987  95.5935006 104.4415017
  70.9059987  96.5205006 104.4415017  60.2729987  97.2825006 101.6365017
  61.2299987  97.2825006 101.6365017  60.0329987  98.2095006 101.6365017
  59.5799987  96.1615006 116.8315017  60.5369987  96.1615006 116.8315017
  59.3399987  97.0885006 116.8315017  61.5849987  95.5355006 118.4445017
  62.5419987  95.5355006 118.4445017  61.3449987  96.4625006 118.4445017
  69.9879987  94.8185006 118.5775017  70.9449987  94.8185006 118.5775017
  69.7479987  95.7455006 118.5775017  87.5869987 104.7895006 107.3005017
  88.5439987 104.7895006 107.3005017  87.3469987 105.7165006 107.3005017
  86.4879987 104.0325006 110.7375017  87.4449987 104.0325006 110.7375017
  86.2479987 104.9595006 110.7375017  78.8549987 103.6725006 112.2825017
  79.8119987 103.6725006 112.2825017  78.6149987 104.5995006 112.2825017
  90.0549987 106.7955006 108.9415017  91.0119987 106.7955006 108.9415017
  89.8149987 107.7225006 108.9415017  79.8929987 107.5895006 111.2135017
  80.8499987 107.5895006 111.2135017  79.6529987 108.5165006 111.2135017
  76.4289987 101.7055006 106.2325017  77.3859987 101.7055006 106.2325017
  76.1889987 102.6325006 106.2325017  77.1129987 103.9425006 108.4145017
  78.0699987 103.9425006 108.4145017  76.8729987 104.8695006 108.4145017
  84.8569987 106.4085006 111.2105017  85.8139987 106.4085006 111.2105017
  84.6169987 107.3355006 111.2105017  93.4919987  98.0685006 111.9475017
  94.4489987  98.0685006 111.9475017  93.2519987  98.9955006 111.9475017
  88.0369987 100.8885006 111.5035017  88.9939987 100.8885006 111.5035017
  87.7969987 101.8155006 111.5035017  81.1589987  98.9735006 108.7345017
  82.1159987  98.9735006 108.7345017  80.9189987  99.9005006 108.7345017
  88.8989987  99.0635006 107.1125017  89.8559987  99.0635006 107.1125017
  88.6589987  99.9905006 107.1125017  77.7829987 101.3825006 109.4755017
  78.7399987 101.3825006 109.4755017  77.5429987 102.3095006 109.4755017
  82.9439987 102.9505006 108.7655017  83.9009987 102.9505006 108.7655017
  82.7039987 103.8775006 108.7655017  93.9269987  99.5025006 114.2075017
  94.8839987  99.5025006 114.2075017  93.6869987 100.4295006 114.2075017
  80.0569987  97.8685006 112.7695017  81.0139987  97.8685006 112.7695017
  79.8169987  98.7955006 112.7695017  87.3959987 107.3805006 106.3325017
  88.3529987 107.3805006 106.3325017  87.1559987 108.3075006 106.3325017
  82.5739987 105.5355006 113.0395017  83.5309987 105.5355006 113.0395017
  82.3339987 106.4625006 113.0395017  90.6849987  98.4005006 109.1015017
  91.6419987  98.4005006 109.1015017  90.4449987  99.3275006 109.1015017
  79.6079987  99.7435006 110.7895017  80.5649987  99.7435006 110.7895017
  79.3679987 100.6705006 110.7895017  81.0049987 107.5405006 113.7675017
  81.9619987 107.5405006 113.7675017  80.7649987 108.4675006 113.7675017
  77.0389987 107.0755006 104.6995017  77.9959987 107.0755006 104.6995017
  76.7989987 108.0025006 104.6995017  91.0299987  97.0965006 112.7775017
  91.9869987  97.0965006 112.7775017  90.7899987  98.0235006 112.7775017
  84.0149987  95.2035006 110.2405017  84.9719987  95.2035006 110.2405017
  83.7749987  96.1305006 110.2405017  91.7079987 106.9585006 114.9755017
  92.6649987 106.9585006 114.9755017  91.4679987 107.8855006 114.9755017
  86.3069987 103.9985006 104.7495017  87.2639987 103.9985006 104.7495017
  86.0669987 104.9255006 104.7495017  93.6799987 103.4185006 113.0455017
  94.6369987 103.4185006 113.0455017  93.4399987 104.3455006 113.0455017
  89.7109987 104.1755006 105.6675017  90.6679987 104.1755006 105.6675017
  89.4709987 105.1025006 105.6675017  89.6649987 102.3775006 114.7795017
  90.6219987 102.3775006 114.7795017  89.4249987 103.3045006 114.7795017
  81.3429987 104.8675006 107.5845017  82.2999987 104.8675006 107.5845017
  81.1029987 105.7945006 107.5845017  81.6809987 103.6445006 111.2405017
  82.6379987 103.6445006 111.2405017  81.4409987 104.5715006 111.2405017
  82.0289987   0.0155006 116.0375017  82.9859987   0.0155006 116.0375017
  81.7889987   0.9425006 116.0375017  88.6099987 103.3715006 103.3565017
  89.5669987 103.3715006 103.3565017  88.3699987 104.2985006 103.3565017
  79.5709987 104.2295006 115.1235017  80.5279987 104.2295006 115.1235017
  79.3309987 105.1565006 115.1235017  92.3009987  95.1325006 103.2275017
  93.2579987  95.1325006 103.2275017  92.0609987  96.0595006 103.2275017
  80.3519987 103.8945006 105.1455017  81.3089987 103.8945006 105.1455017
  80.1119987 104.8215006 105.1455017  76.3739987 106.2985006 114.0745017
  77.3309987 106.2985006 114.0745017  76.1339987 107.2255006 114.0745017
  91.5539987 101.2335006 117.0415017  92.5109987 101.2335006 117.0415017
  91.3139987 102.1605006 117.0415017  78.6899987 107.5735006 115.0095017
  79.6469987 107.5735006 115.0095017  78.4499987 108.5005006 115.0095017
  81.3619987  96.1025006 110.9975017  82.3189987  96.1025006 110.9975017
  81.1219987  97.0295006 110.9975017  86.0079987  95.7915006 114.3665017
  86.9649987  95.7915006 114.3665017  85.7679987  96.7185006 114.3665017
  89.3089987  99.6085006 115.2545017  90.2659987  99.6085006 115.2545017
  89.0689987 100.5355006 115.2545017  81.4619987 101.0745006 112.2105017
  82.4189987 101.0745006 112.2105017  81.2219987 102.0015006 112.2105017
  81.4209987 101.2425006 107.0725017  82.3779987 101.2425006 107.0725017
  81.1809987 102.1695006 107.0725017  86.9259987 101.6755006 105.8445017
  87.8829987 101.6755006 105.8445017  86.6859987 102.6025006 105.8445017
  86.0199987 101.9125006 117.3245017  86.9769987 101.9125006 117.3245017
  85.7799987 102.8395006 117.3245017  87.9759987 101.1805006 108.7055017
  88.9329987 101.1805006 108.7055017  87.7359987 102.1075006 108.7055017
  79.1249987 101.3485006 113.9375017  80.0819987 101.3485006 113.9375017
  78.8849987 102.2755006 113.9375017  82.5159987  98.8565006 100.8125017
  83.4729987  98.8565006 100.8125017  82.2759987  99.7835006 100.8125017
  75.7529987  98.4645006 107.8875017  76.7099987  98.4645006 107.8875017
  75.5129987  99.3915006 107.8875017  77.0499987  99.1995006 103.2665017
  78.0069987  99.1995006 103.2665017  76.8099987 100.1265006 103.2665017
  87.1929987 102.7765006 113.2985017  88.1499987 102.7765006 113.2985017
  86.9529987 103.7035006 113.2985017  83.9829987  98.7415006 108.1205017
  84.9399987  98.7415006 108.1205017  83.7429987  99.6685006 108.1205017
  78.8169987 100.3375006 106.9415017  79.7739987 100.3375006 106.9415017
  78.5769987 101.2645006 106.9415017  82.4389987 100.3605006 104.5875017
  83.3959987 100.3605006 104.5875017  82.1989987 101.2875006 104.5875017
  88.3959987  97.9785006 111.3615017  89.3529987  97.9785006 111.3615017
  88.1559987  98.9055006 111.3615017  79.2889987 106.2325006 117.2325017
  80.2459987 106.2325006 117.2325017  79.0489987 107.1595006 117.2325017
  85.2779987 101.5055006 110.0085017  86.2349987 101.5055006 110.0085017
  85.0379987 102.4325006 110.0085017  80.2869987  97.6635006 106.4225017
  81.2439987  97.6635006 106.4225017  80.0469987  98.5905006 106.4225017
  83.9169987  99.8455006 112.4205017  84.8739987  99.8455006 112.4205017
  83.6769987 100.7725006 112.4205017  84.5409987 106.0265006 104.1265017
  85.4979987 106.0265006 104.1265017  84.3009987 106.9535006 104.1265017
  91.6649987 105.2615006 112.8975017  92.6219987 105.2615006 112.8975017
  91.4249987 106.1885006 112.8975017  85.9739987 106.2765006 115.3485017
  86.9309987 106.2765006 115.3485017  85.7339987 107.2035006 115.3485017
  89.0909987 100.7445006 103.9215017  90.0479987 100.7445006 103.9215017
  88.8509987 101.6715006 103.9215017  79.5789987 105.4115006 109.8525017
  80.5359987 105.4115006 109.8525017  79.3389987 106.3385006 109.8525017
  86.6279987 107.5315006 103.2725017  87.5849987 107.5315006 103.2725017
  86.3879987 108.4585006 103.2725017  76.6169987 103.8515006 115.1875017
  77.5739987 103.8515006 115.1875017  76.3769987 104.7785006 115.1875017
  83.6099987 103.4075006 117.3805017  84.5669987 103.4075006 117.3805017
  83.3699987 104.3345006 117.3805017  93.9599987 100.9685006 103.6755017
  94.9169987 100.9685006 103.6755017  93.7199987 101.8955006 103.6755017
  93.9739987 106.7725006 116.5185017  94.9309987 106.7725006 116.5185017
  93.7339987 107.6995006 116.5185017  89.4579987 104.5745006 111.2045017
  90.4149987 104.5745006 111.2045017  89.2179987 105.5015006 111.2045017
  83.4359987 106.5095006 106.8225017  84.3929987 106.5095006 106.8225017
  83.1959987 107.4365006 106.8225017  87.4019987 106.8075006 112.8785017
  88.3589987 106.8075006 112.8785017  87.1619987 107.7345006 112.8785017
  78.2569987  98.5865006 114.7125017  79.2139987  98.5865006 114.7125017
  78.0169987  99.5135006 114.7125017  90.5129987 106.3855006 104.1575017
  91.4699987 106.3855006 104.1575017  90.2729987 107.3125006 104.1575017
  79.2069987 105.6795006 103.3745017  80.1639987 105.6795006 103.3745017
  78.9669987 106.6065006 103.3745017  86.9769987  98.3635006 113.6705017
  87.9339987  98.3635006 113.6705017  86.7369987  99.2905006 113.6705017
  87.7649987  97.9595006 104.7295017  88.7219987  97.9595006 104.7295017
  87.5249987  98.8865006 104.7295017  84.9349987  99.7175006 105.5755017
  85.8919987  99.7175006 105.5755017  84.6949987 100.6445006 105.5755017
  85.5059987 100.7115006 114.7755017  86.4629987 100.7115006 114.7755017
  85.2659987 101.6385006 114.7755017  85.8169987  96.7545006 106.4945017
  86.7739987  96.7545006 106.4945017  85.5769987  97.6815006 106.4945017
  81.5039987  97.8905006 103.1785017  82.4609987  97.8905006 103.1785017
  81.2639987  98.8175006 103.1785017  91.7009987  98.5885006 115.6245017
  92.6579987  98.5885006 115.6245017  91.4609987  99.5155006 115.6245017
  90.2999987 102.3715006 109.6555017  91.2569987 102.3715006 109.6555017
  90.0599987 103.2985006 109.6555017  78.8669987  95.7535006 110.0995017
  79.8239987  95.7535006 110.0995017  78.6269987  96.6805006 110.0995017
  76.9969987 106.0905006 118.4625017  77.9539987 106.0905006 118.4625017
  76.7569987 107.0175006 118.4625017  83.6489987 106.0395006 117.9275017
  84.6059987 106.0395006 117.9275017  83.4089987 106.9665006 117.9275017
  89.3159987 105.9655006 115.3435017  90.2729987 105.9655006 115.3435017
  89.0759987 106.8925006 115.3435017  78.1559987 103.6035006 117.9195017
  79.1129987 103.6035006 117.9195017  77.9159987 104.5305006 117.9195017
  82.4819987 104.3965006 102.9595017  83.4389987 104.3965006 102.9595017
  82.2419987 105.3235006 102.9595017  81.7579987 102.2775006 115.2845017
  82.7149987 102.2775006 115.2845017  81.5179987 103.2045006 115.2845017
  86.8109987 104.8085006 118.5625017  87.7679987 104.8085006 118.5625017
  86.5709987 105.7355006 118.5625017  82.1559987  99.6535006 116.3525017
  83.1129987  99.6535006 116.3525017  81.9159987 100.5805006 116.3525017
  82.5549987  98.0295006 113.8865017  83.5119987  98.0295006 113.8865017
  82.3149987  98.9565006 113.8865017  84.1129987 103.5105006 114.1345017
  85.0699987 103.5105006 114.1345017  83.8729987 104.4375006 114.1345017
  88.5039987 101.2775006 119.1075017  89.4609987 101.2775006 119.1075017
  88.2639987 102.2045006 119.1075017  89.8439987 104.0625006 117.2395017
  90.8009987 104.0625006 117.2395017  89.6039987 104.9895006 117.2395017
  80.6109987 100.8825006 118.2735017  81.5679987 100.8825006 118.2735017
  80.3709987 101.8095006 118.2735017  83.3509987  95.4675006 114.2915017
  84.3079987  95.4675006 114.2915017  83.1109987  96.3945006 114.2915017
  84.6219987  99.7985006 117.8905017  85.5789987  99.7985006 117.8905017
  84.3819987 100.7255006 117.8905017  87.3379987  98.9335006 116.9675017
  88.2949987  98.9335006 116.9675017  87.0979987  99.8605006 116.9675017
  88.9339987  97.5635006 118.9075017  89.8909987  97.5635006 118.9075017
  88.6939987  98.4905006 118.9075017  78.7619987  98.8105006 118.0065017
  79.7189987  98.8105006 118.0065017  78.5219987  99.7375006 118.0065017
  83.5599987  94.8365006 116.9835017  84.5169987  94.8365006 116.9835017
  83.3199987  95.7635006 116.9835017  83.9269987  96.4705006 119.0725017
  84.8839987  96.4705006 119.0725017  83.6869987  97.3975006 119.0725017
  77.3339987 107.7545006 101.6385017  78.2909987 107.7545006 101.6385017
  77.0939987 108.6815006 101.6385017  92.0179987 107.5685006 119.0925017
  92.9749987 107.5685006 119.0925017  91.7779987 108.4955006 119.0925017
  93.4189987 105.8585006 104.5545017  94.3759987 105.8585006 104.5545017
  93.1789987 106.7855006 104.5545017  93.7989987 103.9485006 106.4155017
  94.7559987 103.9485006 106.4155017  93.5589987 104.8755006 106.4155017
  93.5319987 106.7145006 111.3995017  94.4889987 106.7145006 111.3995017
  93.2919987 107.6415006 111.3995017  91.6139987 102.4555006 107.0055017
  92.5709987 102.4555006 107.0055017  91.3739987 103.3825006 107.0055017
  76.5989987 104.5355006 111.0485017  77.5559987 104.5355006 111.0485017
  76.3589987 105.4625006 111.0485017  92.4529987 104.4535006 116.6615017
  93.4099987 104.4535006 116.6615017  92.2129987 105.3805006 116.6615017
  93.9609987 102.3355006 117.3485017  94.9179987 102.3355006 117.3485017
  93.7209987 103.2625006 117.3485017  91.2939987 100.0575006 105.4815017
  92.2509987 100.0575006 105.4815017  91.0539987 100.9845006 105.4815017
  91.9049987 100.5955006 110.9065017  92.8619987 100.5955006 110.9065017
  91.6649987 101.5225006 110.9065017  91.9699987 101.3165006 113.6915017
  92.9269987 101.3165006 113.6915017  91.7299987 102.2435006 113.6915017
  76.2719987  99.4315006 116.8145017  77.2289987  99.4315006 116.8145017
  76.0319987 100.3585006 116.8145017  94.2369987  95.3645006 119.0425017
  95.1939987  95.3645006 119.0425017  93.9969987  96.2915006 119.0425017
  91.9309987  97.3335006 105.5225017  92.8879987  97.3335006 105.5225017
  91.6909987  98.2605006 105.5225017  77.4259987  98.1395006 110.0625017
  78.3829987  98.1395006 110.0625017  77.1859987  99.0665006 110.0625017
  75.7059987 101.1355006 111.0925017  76.6629987 101.1355006 111.0925017
  75.4659987 102.0625006 111.0925017  93.7669987  97.4705006 117.3945017
  94.7239987  97.4705006 117.3945017  93.5269987  98.3975006 117.3945017
  93.7589987  97.3785006 102.0525017  94.7159987  97.3785006 102.0525017
  93.5189987  98.3055006 102.0525017  76.0649987  97.4125006 105.1655017
  77.0219987  97.4125006 105.1655017  75.8249987  98.3395006 105.1655017
  76.0339987  96.0775006 113.4875017  76.9909987  96.0775006 113.4875017
  75.7939987  97.0045006 113.4875017  92.7809987  95.5635006 115.2285017
  93.7379987  95.5635006 115.2285017  92.5409987  96.4905006 115.2285017
  86.1779987  96.9975006 109.5295017  87.1349987  96.9975006 109.5295017
  85.9379987  97.9245006 109.5295017  91.3119987  95.0605006 109.6105017
  92.2689987  95.0605006 109.6105017  91.0719987  95.9875006 109.6105017
  92.9949987  96.2785006 107.8955017  93.9519987  96.2785006 107.8955017
  92.7549987  97.2055006 107.8955017  78.5389987  95.6275006 107.3745017
  79.4959987  95.6275006 107.3745017  78.2989987  96.5545006 107.3745017
  77.3029987  95.4055006 103.0855017  78.2599987  95.4055006 103.0855017
  77.0629987  96.3325006 103.0855017  83.0319987  95.5485006 107.1605017
  83.9889987  95.5485006 107.1605017  82.7919987  96.4755006 107.1605017
  88.7049987  95.5735006 108.7965017  89.6619987  95.5735006 108.7965017
  88.4649987  96.5005006 108.7965017  89.9929987  95.6105006 104.4785017
  90.9499987  95.6105006 104.4785017  89.7529987  96.5375006 104.4785017
  84.1329987  97.5785006 104.0255017  85.0899987  97.5785006 104.0255017
  83.8929987  98.5055006 104.0255017  78.4389987  96.1635006 116.8365017
  79.3959987  96.1635006 116.8365017  78.1989987  97.0905006 116.8365017
  80.4469987  95.5295006 118.4475017  81.4039987  95.5295006 118.4475017
  80.2069987  96.4565006 118.4475017  88.8429987  94.8415006 118.6065017
  89.7999987  94.8415006 118.6065017  88.6029987  95.7685006 118.6065017
 106.5049987 104.9415006 107.2185017 107.4619987 104.9415006 107.2185017
 106.2649987 105.8685006 107.2185017 105.3069987 104.0365006 110.7315017
 106.2639987 104.0365006 110.7315017 105.0669987 104.9635006 110.7315017
  97.7119987 103.6735006 112.2835017  98.6689987 103.6735006 112.2835017
  97.4719987 104.6005006 112.2835017  98.7499987 107.5895006 111.2115017
  99.7069987 107.5895006 111.2115017  98.5099987 108.5165006 111.2115017
  95.2889987 101.7045006 106.2205017  96.2459987 101.7045006 106.2205017
  95.0489987 102.6315006 106.2205017  95.9679987 103.9365006 108.4005017
  96.9249987 103.9365006 108.4005017  95.7279987 104.8635006 108.4005017
 103.7199987 106.4215006 111.1925017 104.6769987 106.4215006 111.1925017
 103.4799987 107.3485006 111.1925017 106.2099987 100.6505006 111.4375017
 107.1669987 100.6505006 111.4375017 105.9699987 101.5775006 111.4375017
 100.0169987  98.9745006 108.7385017 100.9739987  98.9745006 108.7385017
  99.7769987  99.9015006 108.7385017 107.7069987  99.6195006 106.7475017
 108.6639987  99.6195006 106.7475017 107.4669987 100.5465006 106.7475017
  96.6379987 101.3825006 109.4755017  97.5949987 101.3825006 109.4755017
  96.3979987 102.3095006 109.4755017 101.8209987 102.9565006 108.7485017
 102.7779987 102.9565006 108.7485017 101.5809987 103.8835006 108.7485017
  98.9029987  97.8725006 112.7815017  99.8599987  97.8725006 112.7815017
  98.6629987  98.7995006 112.7815017 106.2359987 107.3625006 106.3285017
 107.1929987 107.3625006 106.3285017 105.9959987 108.2895006 106.3285017
 101.4319987 105.5355006 113.0395017 102.3889987 105.5355006 113.0395017
 101.1919987 106.4625006 113.0395017  98.4649987  99.7425006 110.7895017
  99.4219987  99.7425006 110.7895017  98.2249987 100.6695006 110.7895017
  99.8609987 107.5405006 113.7675017 100.8179987 107.5405006 113.7675017
  99.6209987 108.4675006 113.7675017  96.0009987 107.1705006 104.6085017
  96.9579987 107.1705006 104.6085017  95.7609987 108.0975006 104.6085017
 102.8779987  95.2045006 110.2475017 103.8349987  95.2045006 110.2475017
 102.6379987  96.1315006 110.2475017 105.1589987 103.9955006 104.7355017
 106.1159987 103.9955006 104.7355017 104.9189987 104.9225006 104.7355017
 105.0869987 102.1215006 101.8045017 106.0439987 102.1215006 101.8045017
 104.8469987 103.0485006 101.8045017 100.1889987 104.8715006 107.5825017
 101.1459987 104.8715006 107.5825017  99.9489987 105.7985006 107.5825017
 100.5339987 103.6435006 111.2435017 101.4909987 103.6435006 111.2435017
 100.2939987 104.5705006 111.2435017 100.8849987   0.0135006 116.0355017
 101.8419987   0.0135006 116.0355017 100.6449987   0.9405006 116.0355017
 107.5179987 103.4095006 103.4005017 108.4749987 103.4095006 103.4005017
 107.2779987 104.3365006 103.4005017  98.4229987 104.2205006 115.1425017
  99.3799987 104.2205006 115.1425017  98.1829987 105.1475006 115.1425017
  99.1879987 103.9085006 105.1795017 100.1449987 103.9085006 105.1795017
  98.9479987 104.8355006 105.1795017  95.2319987 106.3095006 114.0715017
  96.1889987 106.3095006 114.0715017  94.9919987 107.2365006 114.0715017
  97.5489987 107.5705006 115.0125017  98.5059987 107.5705006 115.0125017
  97.3089987 108.4975006 115.0125017 100.2289987  96.1205006 110.9815017
 101.1859987  96.1205006 110.9815017  99.9889987  97.0475006 110.9815017
 104.9019987  95.7735006 114.3845017 105.8589987  95.7735006 114.3845017
 104.6619987  96.7005006 114.3845017 100.3089987 101.0735006 112.2095017
 101.2659987 101.0735006 112.2095017 100.0689987 102.0005006 112.2095017
 100.2989987 101.2335006 107.0955017 101.2559987 101.2335006 107.0955017
 100.0589987 102.1605006 107.0955017 105.6269987 101.4715006 105.3585017
 106.5839987 101.4715006 105.3585017 105.3869987 102.3985006 105.3585017
 104.8949987 101.9385006 117.3585017 105.8519987 101.9385006 117.3585017
 104.6549987 102.8655006 117.3585017 106.8299987 101.0185006 108.8165017
 107.7869987 101.0185006 108.8165017 106.5899987 101.9455006 108.8165017
  97.9639987 101.3545006 113.9435017  98.9209987 101.3545006 113.9435017
  97.7239987 102.2815006 113.9435017  94.6099987  98.4625006 107.8855017
  95.5669987  98.4625006 107.8855017  94.3699987  99.3895006 107.8855017
  95.9019987  99.2345006 103.3045017  96.8589987  99.2345006 103.3045017
  95.6619987 100.1615006 103.3045017 106.0389987 102.7735006 113.3125017
 106.9959987 102.7735006 113.3125017 105.7989987 103.7005006 113.3125017
 102.8559987  98.7655006 108.1185017 103.8129987  98.7655006 108.1185017
 102.6159987  99.6925006 108.1185017  97.6689987 100.3205006 106.9625017
  98.6259987 100.3205006 106.9625017  97.4289987 101.2475006 106.9625017
 101.2929987 100.3635006 104.6275017 102.2499987 100.3635006 104.6275017
 101.0529987 101.2905006 104.6275017 107.2409987  97.9275006 111.4165017
 108.1979987  97.9275006 111.4165017 107.0009987  98.8545006 111.4165017
  99.9859987 101.5505006 102.1625017 100.9429987 101.5505006 102.1625017
  99.7459987 102.4775006 102.1625017  98.1449987 106.1835006 117.2395017
  99.1019987 106.1835006 117.2395017  97.9049987 107.1105006 117.2395017
 104.1139987 101.5125006 109.9465017 105.0709987 101.5125006 109.9465017
 103.8739987 102.4395006 109.9465017  99.1499987  97.6505006 106.4485017
 100.1069987  97.6505006 106.4485017  98.9099987  98.5775006 106.4485017
 102.7569987  99.8445006 112.4205017 103.7139987  99.8445006 112.4205017
 102.5169987 100.7715006 112.4205017 103.4059987 106.0075006 104.1005017
 104.3629987 106.0075006 104.1005017 103.1659987 106.9345006 104.1005017
 107.1619987  98.8795006 102.3225017 108.1189987  98.8795006 102.3225017
 106.9219987  99.8065006 102.3225017 104.8379987 106.2715006 115.3395017
 105.7949987 106.2715006 115.3395017 104.5979987 107.1985006 115.3395017
   0.1399987 100.9025006 104.0265017   1.0969987 100.9025006 104.0265017
  -0.1000013 101.8295006 104.0265017  98.4259987 105.4125006 109.8375017
  99.3829987 105.4125006 109.8375017  98.1859987 106.3395006 109.8375017
 105.4859987 107.4815006 103.2325017 106.4429987 107.4815006 103.2325017
 105.2459987 108.4085006 103.2325017  95.4629987 103.8525006 115.1885017
  96.4199987 103.8525006 115.1885017  95.2229987 104.7795006 115.1885017
 102.4679987 103.4065006 117.3795017 103.4249987 103.4065006 117.3795017
 102.2279987 104.3335006 117.3795017 102.3009987 106.4925006 106.8325017
 103.2579987 106.4925006 106.8325017 102.0609987 107.4195006 106.8325017
 106.2609987 106.8015006 112.8705017 107.2179987 106.8015006 112.8705017
 106.0209987 107.7285006 112.8705017  97.1119987  98.5945006 114.7305017
  98.0689987  98.5945006 114.7305017  96.8719987  99.5215006 114.7305017
  98.0049987 105.6885006 103.3745017  98.9619987 105.6885006 103.3745017
  97.7649987 106.6155006 103.3745017 105.8529987  98.3525006 113.6785017
 106.8099987  98.3525006 113.6785017 105.6129987  99.2795006 113.6785017
 106.3299987  98.2045006 104.7555017 107.2869987  98.2045006 104.7555017
 106.0899987  99.1315006 104.7555017 103.7419987  99.7165006 105.6015017
 104.6989987  99.7165006 105.6015017 103.5019987 100.6435006 105.6015017
 104.3349987 100.6705006 114.7895017 105.2919987 100.6705006 114.7895017
 104.0949987 101.5975006 114.7895017 104.6989987  96.7465006 106.4925017
 105.6559987  96.7465006 106.4925017 104.4589987  97.6735006 106.4925017
 100.3389987  97.8655006 103.1945017 101.2959987  97.8655006 103.1945017
 100.0989987  98.7925006 103.1945017  97.7249987  95.7535006 110.0995017
  98.6819987  95.7535006 110.0995017  97.4849987  96.6805006 110.0995017
  95.8539987 106.0755006 118.4675017  96.8109987 106.0755006 118.4675017
  95.6139987 107.0025006 118.4675017 102.4919987 106.0395006 117.9345017
 103.4489987 106.0395006 117.9345017 102.2519987 106.9665006 117.9345017
  96.6969987 103.3445006 117.9175017  97.6539987 103.3445006 117.9175017
  96.4569987 104.2715006 117.9175017 101.4039987 104.4645006 102.9775017
 102.3609987 104.4645006 102.9775017 101.1639987 105.3915006 102.9775017
 100.6169987 102.2775006 115.2845017 101.5739987 102.2775006 115.2845017
 100.3769987 103.2045006 115.2845017 102.4029987 102.7645006 101.1745017
 103.3599987 102.7645006 101.1745017 102.1629987 103.6915006 101.1745017
 105.6719987 104.8105006 118.5925017 106.6289987 104.8105006 118.5925017
 105.4319987 105.7375006 118.5925017 101.0119987  99.6525006 116.3525017
 101.9689987  99.6525006 116.3525017 100.7719987 100.5795006 116.3525017
 101.4079987  98.0265006 113.8865017 102.3649987  98.0265006 113.8865017
 101.1679987  98.9535006 113.8865017 102.9869987 103.5105006 114.1355017
 103.9439987 103.5105006 114.1355017 102.7469987 104.4375006 114.1355017
 107.3909987 101.2965006 119.2125017 108.3479987 101.2965006 119.2125017
 107.1509987 102.2235006 119.2125017  99.4599987 100.8845006 118.2755017
 100.4169987 100.8845006 118.2755017  99.2199987 101.8115006 118.2755017
 102.2149987  95.4735006 114.2915017 103.1719987  95.4735006 114.2915017
 101.9749987  96.4005006 114.2915017 103.4739987  99.8025006 117.8915017
 104.4309987  99.8025006 117.8915017 103.2339987 100.7295006 117.8915017
 106.1369987  98.9055006 116.9475017 107.0939987  98.9055006 116.9475017
 105.8969987  99.8325006 116.9475017 107.7729987  97.6075006 118.8865017
 108.7299987  97.6075006 118.8865017 107.5329987  98.5345006 118.8865017
  97.5649987  98.8205006 118.0005017  98.5219987  98.8205006 118.0005017
  97.3249987  99.7475006 118.0005017 102.4069987  94.8515006 116.9825017
 103.3639987  94.8515006 116.9825017 102.1669987  95.7785006 116.9825017
 102.7799987  96.4675006 119.0685017 103.7369987  96.4675006 119.0685017
 102.5399987  97.3945006 119.0685017  95.9029987 107.9625006 101.7185017
  96.8599987 107.9625006 101.7185017  95.6629987 108.8895006 101.7185017
  95.4549987 104.5355006 111.0505017  96.4119987 104.5355006 111.0505017
  95.2149987 105.4625006 111.0505017  95.0749987  99.8485006 117.2045017
  96.0319987  99.8485006 117.2045017  94.8349987 100.7755006 117.2045017
  96.2799987  98.1395006 110.0645017  97.2369987  98.1395006 110.0645017
  96.0399987  99.0665006 110.0645017  94.5679987 101.1285006 111.1125017
  95.5249987 101.1285006 111.1125017  94.3279987 102.0555006 111.1125017
  94.9179987  97.4755006 105.2415017  95.8749987  97.4755006 105.2415017
  94.6779987  98.4025006 105.2415017  94.8829987  96.0745006 113.4905017
  95.8399987  96.0745006 113.4905017  94.6429987  97.0015006 113.4905017
 105.0079987  96.9915006 109.5025017 105.9649987  96.9915006 109.5025017
 104.7679987  97.9185006 109.5025017  97.3909987  95.6295006 107.3725017
  98.3479987  95.6295006 107.3725017  97.1509987  96.5565006 107.3725017
 101.9119987  95.5185006 107.1455017 102.8689987  95.5185006 107.1455017
 101.6719987  96.4455006 107.1455017 107.4479987  95.5105006 108.9535017
 108.4049987  95.5105006 108.9535017 107.2079987  96.4375006 108.9535017
  98.0209987  97.3415006 101.6145017  98.9779987  97.3415006 101.6145017
  97.7809987  98.2685006 101.6145017 103.0049987  97.5465006 104.0735017
 103.9619987  97.5465006 104.0735017 102.7649987  98.4735006 104.0735017
  97.2929987  96.1715006 116.8365017  98.2499987  96.1715006 116.8365017
  97.0529987  97.0985006 116.8365017  99.2979987  95.5335006 118.4455017
 100.2549987  95.5335006 118.4455017  99.0579987  96.4605006 118.4455017
  -0.0770013  94.9195006 118.6395017   0.8799987  94.9195006 118.6395017
  -0.3170013  95.8465006 118.6395017  12.1999987  10.4795006 126.1065017
  13.1569987  10.4795006 126.1065017  11.9599987  11.4065006 126.1065017
  11.0689987   9.7425006 129.5935017  12.0259987   9.7425006 129.5935017
  10.8289987  10.6695006 129.5935017   3.4659987   9.3825006 131.1395017
   4.4229987   9.3825006 131.1395017   3.2259987  10.3095006 131.1395017
  14.7699987  12.6875006 127.8725017  15.7269987  12.6875006 127.8725017
  14.5299987  13.6145006 127.8725017   4.3409987  13.8485006 129.6725017
   5.2979987  13.8485006 129.6725017   4.1009987  14.7755006 129.6725017
   1.0779987   7.5265006 125.0695017   2.0349987   7.5265006 125.0695017
   0.8379987   8.4535006 125.0695017   1.6859987   9.6145006 127.2485017
   2.6429987   9.6145006 127.2485017   1.4459987  10.5415006 127.2485017
  11.8829987  17.8375006 128.1065017  12.8399987  17.8375006 128.1065017
  11.6429987  18.7645006 128.1065017   9.4479987  12.1545006 130.0355017
  10.4049987  12.1545006 130.0355017   9.2079987  13.0815006 130.0355017
  18.0829987   3.7625006 130.7995017  19.0399987   3.7625006 130.7995017
  17.8429987   4.6895006 130.7995017  12.6129987   6.5995006 130.3635017
  13.5699987   6.5995006 130.3635017  12.3729987   7.5265006 130.3635017
   5.7229987   4.5445006 127.6515017   6.6799987   4.5445006 127.6515017
   5.4829987   5.4715006 127.6515017  13.4769987   4.7805006 125.9665017
  14.4339987   4.7805006 125.9665017  13.2369987   5.7075006 125.9665017
   2.5619987   7.1575006 128.2255017   3.5189987   7.1575006 128.2255017
   2.3219987   8.0845006 128.2255017   7.5359987   8.6505006 127.5755017
   8.4929987   8.6505006 127.5755017   7.2959987   9.5775006 127.5755017
  18.5069987   5.2245006 133.0535017  19.4639987   5.2245006 133.0535017
  18.2669987   6.1515006 133.0535017   4.6329987   3.5975006 131.6605017
   5.5899987   3.5975006 131.6605017   4.3929987   4.5245006 131.6605017
  11.9369987  13.0835006 125.1825017  12.8939987  13.0835006 125.1825017
  11.6969987  14.0105006 125.1825017   7.1519987  11.2385006 131.8945017
   8.1089987  11.2385006 131.8945017   6.9119987  12.1655006 131.8945017
  15.2659987   4.1045006 127.9465017  16.2229987   4.1045006 127.9465017
  15.0259987   5.0315006 127.9465017   4.1889987   5.4685006 129.6375017
   5.1459987   5.4685006 129.6375017   3.9489987   6.3955006 129.6375017
   5.5859987  13.2365006 132.6775017   6.5429987  13.2365006 132.6775017
   5.3459987  14.1635006 132.6775017   1.7099987  12.8815006 123.4715017
   2.6669987  12.8815006 123.4715017   1.4699987  13.8085006 123.4715017
  15.2949987  14.5215006 130.2395017  16.2519987  14.5215006 130.2395017
  15.0549987  15.4485006 130.2395017  15.6339987   2.7945006 131.6785017
  16.5909987   2.7945006 131.6785017  15.3939987   3.7215006 131.6785017
   8.5599987   0.9645006 128.9555017   9.5169987   0.9645006 128.9555017
   8.3199987   1.8915006 128.9555017  13.5459987  16.3075006 126.8415017
  14.5029987  16.3075006 126.8415017  13.3059987  17.2345006 126.8415017
  14.7479987  14.2345006 125.3505017  15.7049987  14.2345006 125.3505017
  14.5079987  15.1615006 125.3505017  16.4139987  12.8125006 133.8435017
  17.3709987  12.8125006 133.8435017  16.1739987  13.7395006 133.8435017
  10.8409987   9.7105006 123.6095017  11.7979987   9.7105006 123.6095017
  10.6009987  10.6375006 123.6095017  10.9369987   8.2605006 120.6245017
  11.8939987   8.2605006 120.6245017  10.6969987   9.1875006 120.6245017
  18.2539987   9.1205006 131.8815017  19.2109987   9.1205006 131.8815017
  18.0139987  10.0475006 131.8815017  14.3109987   9.9395006 124.5315017
  15.2679987   9.9395006 124.5315017  14.0709987  10.8665006 124.5315017
  14.2239987   8.0435006 133.5325017  15.1809987   8.0435006 133.5325017
  13.9839987   8.9705006 133.5325017   5.9429987  10.5895006 126.4445017
   6.8999987  10.5895006 126.4445017   5.7029987  11.5165006 126.4445017
   7.2589987  13.9935006 129.1245017   8.2159987  13.9935006 129.1245017
   7.0189987  14.9205006 129.1245017   6.2799987   9.3425006 130.0835017
   7.2369987   9.3425006 130.0835017   6.0399987  10.2695006 130.0835017
  12.6539987  14.9035006 130.8145017  13.6109987  14.9035006 130.8145017
  12.4139987  15.8305006 130.8145017   7.1629987  13.7065006 134.7925017
   8.1199987  13.7065006 134.7925017   6.9229987  14.6335006 134.7925017
  13.1759987   9.1245006 122.2085017  14.1329987   9.1245006 122.2085017
  12.9359987  10.0515006 122.2085017   4.1179987   9.9555006 134.0085017
   5.0749987   9.9555006 134.0085017   3.8779987  10.8825006 134.0085017
  10.8979987  15.8505006 125.6695017  11.8549987  15.8505006 125.6695017
  10.6579987  16.7775006 125.6695017   5.4279987  15.7715006 135.5825017
   6.3849987  15.7715006 135.5825017   5.1879987  16.6985006 135.5825017
  16.9189987   0.8985006 122.0645017  17.8759987   0.8985006 122.0645017
  16.6789987   1.8255006 122.0645017   4.8159987   9.8055006 124.0515017
   5.7729987   9.8055006 124.0515017   4.5759987  10.7325006 124.0515017
  18.0269987  15.2145006 120.4425017  18.9839987  15.2145006 120.4425017
  17.7869987  16.1415006 120.4425017   1.1279987  12.0125006 132.8615017
   2.0849987  12.0125006 132.8615017   0.8879987  12.9395006 132.8615017
   1.0089987  14.9115006 129.4545017   1.9659987  14.9115006 129.4545017
   0.7689987  15.8385006 129.4545017  19.0369987  15.4535006 135.3615017
  19.9939987  15.4535006 135.3615017  18.7969987  16.3805006 135.3615017
   9.9649987  15.0525006 134.2615017  10.9219987  15.0525006 134.2615017
   9.7249987  15.9795006 134.2615017  10.3799987  18.7725006 124.0865017
  11.3369987  18.7725006 124.0865017  10.1399987  19.6995006 124.0865017
   4.0259987  17.6265006 125.8775017   4.9829987  17.6265006 125.8775017
   3.7859987  18.5535006 125.8775017  13.4449987  17.9775006 121.0685017
  14.4019987  17.9775006 121.0685017  13.2049987  18.9045006 121.0685017
  13.1339987  17.9045006 123.8335017  14.0909987  17.9045006 123.8335017
  12.8939987  18.8315006 123.8335017  16.1349987   7.0035006 135.6825017
  17.0919987   7.0035006 135.6825017  15.8949987   7.9305006 135.6825017
   3.2779987  13.3595006 133.9005017   4.2349987  13.3595006 133.9005017
   3.0379987  14.2865006 133.9005017   6.0049987   1.9075006 129.8015017
   6.9619987   1.9075006 129.8015017   5.7649987   2.8345006 129.8015017
  10.6059987   1.5495006 133.2825017  11.5629987   1.5495006 133.2825017
  10.3659987   2.4765006 133.2825017  13.8639987   5.2935006 134.0945017
  14.8209987   5.2935006 134.0945017  13.6239987   6.2205006 134.0945017
  14.6319987  10.1565006 119.9595017  15.5889987  10.1565006 119.9595017
  14.3919987  11.0835006 119.9595017  10.2329987   4.0685006 120.5355017
  11.1899987   4.0685006 120.5355017   9.9929987   4.9955006 120.5355017
   6.0339987   6.7845006 131.0485017   6.9909987   6.7845006 131.0485017
   5.7939987   7.7115006 131.0485017   6.0019987   6.6605006 126.3735017
   6.9589987   6.6605006 126.3735017   5.7619987   7.5875006 126.3735017
  11.4999987   7.4175006 124.7305017  12.4569987   7.4175006 124.7305017
  11.2599987   8.3445006 124.7305017  10.5829987   7.4045006 135.9695017
  11.5399987   7.4045006 135.9695017  10.3429987   8.3315006 135.9695017
  12.5529987   6.9005006 127.5705017  13.5099987   6.9005006 127.5705017
  12.3129987   7.8275006 127.5705017   3.7169987   7.0605006 132.8355017
   4.6739987   7.0605006 132.8355017   3.4769987   7.9875006 132.8355017
   7.0749987   4.5015006 119.6535017   8.0319987   4.5015006 119.6535017
   6.8349987   5.4285006 119.6535017   0.4479987   3.4725006 127.0715017
   1.4049987   3.4725006 127.0715017   0.2079987   4.3995006 127.0715017
   1.8209987   4.9385006 122.2575017   2.7779987   4.9385006 122.2575017
   1.5809987   5.8655006 122.2575017  11.7689987   8.5145006 132.1855017
  12.7259987   8.5145006 132.1855017  11.5289987   9.4415006 132.1855017
   8.5569987   4.5015006 126.9725017   9.5139987   4.5015006 126.9725017
   8.3169987   5.4285006 126.9725017   3.4489987   6.0705006 125.7485017
   4.4059987   6.0705006 125.7485017   3.2089987   6.9975006 125.7485017
   7.0799987   5.9965006 123.4125017   8.0369987   5.9965006 123.4125017
   6.8399987   6.9235006 123.4125017  12.9819987   3.6755006 130.2115017
  13.9389987   3.6755006 130.2115017  12.7419987   4.6025006 130.2115017
   5.7149987   7.2535006 121.0705017   6.6719987   7.2535006 121.0705017
   5.4749987   8.1805006 121.0705017  16.2209987  19.3425006 136.4965017
  17.1779987  19.3425006 136.4965017  15.9809987  20.2695006 136.4965017
   3.7059987  11.8095006 136.0865017   4.6629987  11.8095006 136.0865017
   3.4659987  12.7365006 136.0865017   9.8399987   7.2245006 128.8485017
  10.7969987   7.2245006 128.8485017   9.5999987   8.1515006 128.8485017
   4.8439987   3.3935006 125.2555017   5.8009987   3.3935006 125.2555017
   4.6039987   4.3205006 125.2555017   8.4949987   5.5565006 131.2905017
   9.4519987   5.5565006 131.2905017   8.2549987   6.4835006 131.2905017
   9.0829987  11.7795006 122.9725017  10.0399987  11.7795006 122.9725017
   8.8429987  12.7065006 122.9725017  16.2339987  10.9785006 131.7765017
  17.1909987  10.9785006 131.7765017  15.9939987  11.9055006 131.7765017
  12.9309987   4.6025006 121.1445017  13.8879987   4.6025006 121.1445017
  12.6909987   5.5295006 121.1445017  10.5289987  12.0325006 134.1485017
  11.4859987  12.0325006 134.1485017  10.2889987  12.9595006 134.1485017
  13.6479987   6.5065006 122.7935017  14.6049987   6.5065006 122.7935017
  13.4079987   7.4335006 122.7935017   4.1709987  11.1505006 128.7445017
   5.1279987  11.1505006 128.7445017   3.9309987  12.0775006 128.7445017
  11.1839987  13.2565006 122.0005017  12.1409987  13.2565006 122.0005017
  10.9439987  14.1835006 122.0005017   1.2039987   9.5615006 134.0095017
   2.1609987   9.5615006 134.0095017   0.9639987  10.4885006 134.0095017
   8.3429987   9.4945006 135.7755017   9.2999987   9.4945006 135.7755017
   8.1029987  10.4215006 135.7755017  12.8679987  14.4885006 134.1745017
  13.8249987  14.4885006 134.1745017  12.6279987  15.4155006 134.1745017
  18.5419987   6.6685006 122.5505017  19.4989987   6.6685006 122.5505017
  18.3019987   7.5955006 122.5505017  18.5169987  12.5105006 135.3525017
  19.4739987  12.5105006 135.3525017  18.2769987  13.4375006 135.3525017
  16.8159987  15.4885006 122.9605017  17.7729987  15.4885006 122.9605017
  16.5759987  16.4155006 122.9605017  14.0269987  10.3185006 130.0165017
  14.9839987  10.3185006 130.0165017  13.7869987  11.2455006 130.0165017
   6.5699987  14.6185006 126.1535017   7.5269987  14.6185006 126.1535017
   6.3299987  15.5455006 126.1535017   2.3059987   9.4405006 120.7945017
   3.2629987   9.4405006 120.7945017   2.0659987  10.3675006 120.7945017
   7.9699987  12.2845006 125.6725017   8.9269987  12.2845006 125.6725017
   7.7299987  13.2115006 125.6725017   8.4359987  16.4685006 132.0455017
   9.3929987  16.4685006 132.0455017   8.1959987  17.3955006 132.0455017
   6.6629987  17.2895006 125.2165017   7.6199987  17.2895006 125.2165017
   6.4229987  18.2165006 125.2165017  11.9949987  12.5095006 131.7095017
  12.9519987  12.5095006 131.7095017  11.7549987  13.4365006 131.7095017
  14.2719987  13.5325006 120.7925017  15.2289987  13.5325006 120.7925017
  14.0319987  14.4595006 120.7925017  14.6979987  17.0825006 134.2055017
  15.6549987  17.0825006 134.2055017  14.4579987  18.0095006 134.2055017
  18.7469987  17.9095006 121.0355017  19.7039987  17.9095006 121.0355017
  18.5069987  18.8365006 121.0355017   2.8169987   4.3515006 133.6275017
   3.7739987   4.3515006 133.6275017   2.5769987   5.2785006 133.6275017
  15.0689987  12.1755006 123.0275017  16.0259987  12.1755006 123.0275017
  14.8289987  13.1025006 123.0275017   2.4629987  16.1135006 132.0015017
   3.4199987  16.1135006 132.0015017   2.2229987  17.0405006 132.0015017
   8.3909987  14.6175006 119.2725017   9.3479987  14.6175006 119.2725017
   8.1509987  15.5445006 119.2725017   7.2239987  14.1495006 121.7265017
   8.1809987  14.1495006 121.7265017   6.9839987  15.0765006 121.7265017
   3.7029987  11.3735006 122.2195017   4.6599987  11.3735006 122.2195017
   3.4629987  12.3005006 122.2195017  11.5669987   4.0835006 132.5175017
  12.5239987   4.0835006 132.5175017  11.3269987   5.0105006 132.5175017
  12.3279987   3.6525006 123.6115017  13.2849987   3.6525006 123.6115017
  12.0879987   4.5795006 123.6115017   9.9969987  15.8195006 122.4475017
  10.9539987  15.8195006 122.4475017   9.7569987  16.7465006 122.4475017
   9.5129987   5.4405006 124.4485017  10.4699987   5.4405006 124.4485017
   9.2729987   6.3675006 124.4485017  10.0899987   6.4185006 133.5725017
  11.0469987   6.4185006 133.5725017   9.8499987   7.3455006 133.5725017
  10.4029987   2.4785006 125.3615017  11.3599987   2.4785006 125.3615017
  10.1629987   3.4055006 125.3615017   7.3789987  16.8555006 122.4575017
   8.3359987  16.8555006 122.4575017   7.1389987  17.7825006 122.4575017
   6.0469987   3.5775006 122.0485017   7.0039987   3.5775006 122.0485017
   5.8069987   4.5045006 122.0485017  16.2739987   4.2785006 134.4055017
  17.2309987   4.2785006 134.4055017  16.0339987   5.2055006 134.4055017
  14.8749987   8.0945006 128.5085017  15.8319987   8.0945006 128.5085017
  14.6349987   9.0215006 128.5085017   4.2949987  14.0065006 121.0995017
   5.2519987  14.0065006 121.0995017   4.0549987  14.9335006 121.0995017
   2.5849987   6.6975006 120.2985017   3.5419987   6.6975006 120.2985017
   2.3449987   7.6245006 120.2985017  15.9409987  17.3375006 130.1535017
  16.8979987  17.3375006 130.1535017  15.7009987  18.2645006 130.1535017
   3.2329987   1.6635006 128.8225017   4.1899987   1.6635006 128.8225017
   2.9929987   2.5905006 128.8225017   2.3859987  15.4015006 125.1125017
   3.3429987  15.4015006 125.1125017   2.1459987  16.3285006 125.1125017
   1.4769987  18.0225006 136.3205017   2.4339987  18.0225006 136.3205017
   1.2369987  18.9495006 136.3205017  10.3969987  16.4725006 119.4075017
  11.3539987  16.4725006 119.4075017  10.1569987  17.3995006 119.4075017
  14.9679987  16.2305006 119.6055017  15.9249987  16.2305006 119.6055017
  14.7279987  17.1575006 119.6055017   5.8649987  12.1695006 119.4355017
   6.8219987  12.1695006 119.4355017   5.6249987  13.0965006 119.4355017
  11.2829987  13.2575006 119.1995017  12.2399987  13.2575006 119.1995017
  11.0429987  14.1845006 119.1995017  13.9259987  11.7405006 134.1735017
  14.8829987  11.7405006 134.1735017  13.6859987  12.6675006 134.1735017
   7.0649987  10.1675006 121.8215017   8.0219987  10.1675006 121.8215017
   6.8249987  11.0945006 121.8215017   6.3639987   8.0125006 134.1585017
   7.3209987   8.0125006 134.1585017   6.1239987   8.9395006 134.1585017
   8.1279987   8.3895006 120.0495017   9.0849987   8.3895006 120.0495017
   7.8879987   9.3165006 120.0495017  17.4909987  10.7265006 119.4785017
  18.4479987  10.7265006 119.4785017  17.2509987  11.6535006 119.4785017
   6.5209987   5.4585006 135.0655017   7.4779987   5.4585006 135.0655017
   6.2809987   6.3855006 135.0655017   7.1319987   3.7355006 132.7575017
   8.0889987   3.7355006 132.7575017   6.8919987   4.6625006 132.7575017
   8.6929987   9.2095006 132.9775017   9.6499987   9.2095006 132.9775017
   8.4529987  10.1365006 132.9775017  14.2779987   9.6035006 135.4975017
  15.2349987   9.6035006 135.4975017  14.0379987  10.5305006 135.4975017
   8.0109987   1.2545006 133.0165017   8.9679987   1.2545006 133.0165017
   7.7709987   2.1815006 133.0165017  11.9089987   4.6555006 135.8005017
  12.8659987   4.6555006 135.8005017  11.6689987   5.5825006 135.8005017
   8.7079987 108.4825006 136.0145017   9.6649987 108.4825006 136.0145017
   8.4679987 109.4095006 136.0145017   7.9809987  19.0905006 121.1085017
   8.9379987  19.0905006 121.1085017   7.7409987  20.0175006 121.1085017
   1.5779987  13.7195006 120.5395017   2.5349987  13.7195006 120.5395017
   1.3379987  14.6465006 120.5395017 108.0959987  19.1335006 125.5715017
 109.0529987  19.1335006 125.5715017 107.8559987  20.0605006 125.5715017
   1.5119987  17.3435006 127.5325017   2.4689987  17.3435006 127.5325017
   1.2719987  18.2705006 127.5325017  18.6629987  17.9965006 130.3645017
  19.6199987  17.9965006 130.3645017  18.4229987  18.9235006 130.3645017
  18.2659987  17.5865006 133.2885017  19.2229987  17.5865006 133.2885017
  18.0259987  18.5135006 133.2885017  17.9899987  11.6315006 123.4265017
  18.9469987  11.6315006 123.4265017  17.7499987  12.5585006 123.4265017
  18.3599987   9.7015006 125.2915017  19.3169987   9.7015006 125.2915017
  18.1199987  10.6285006 125.2915017  18.1149987  12.4135006 130.2705017
  19.0719987  12.4135006 130.2705017  17.8749987  13.3405006 130.2705017
  16.6589987  15.2995006 132.5625017  17.6159987  15.2995006 132.5625017
  16.4189987  16.2265006 132.5625017  18.6629987   9.5395006 121.6915017
  19.6199987   9.5395006 121.6915017  18.4229987  10.4665006 121.6915017
  17.0299987   6.7835006 120.2135017  17.9869987   6.7835006 120.2135017
  16.7899987   7.7105006 120.2135017  16.1759987   8.1875006 125.8595017
  17.1329987   8.1875006 125.8595017  15.9359987   9.1145006 125.8595017
   1.1749987  10.2485006 129.9175017   2.1319987  10.2485006 129.9175017
   0.9349987  11.1755006 129.9175017  17.0249987   9.9965006 135.0855017
  17.9819987   9.9965006 135.0855017  16.7849987  10.9235006 135.0855017
  18.5689987   8.0865006 136.1085017  19.5259987   8.0865006 136.1085017
  18.3289987   9.0135006 136.1085017  16.2559987   4.2585006 119.3705017
  17.2129987   4.2585006 119.3705017  16.0159987   5.1855006 119.3705017
  15.8349987   5.7785006 124.2965017  16.7919987   5.7785006 124.2965017
  15.5949987   6.7055006 124.2965017  16.4799987   6.3335006 129.7545017
  17.4369987   6.3335006 129.7545017  16.2399987   7.2605006 129.7545017
  16.5299987   7.0575006 132.5405017  17.4869987   7.0575006 132.5405017
  16.2899987   7.9845006 132.5405017   0.8559987   5.5575006 136.0175017
   1.8129987   5.5575006 136.0175017   0.6159987   6.4845006 136.0175017
  16.4969987   3.0585006 124.3445017  17.4539987   3.0585006 124.3445017
  16.2569987   3.9855006 124.3445017   2.0489987   3.9345006 128.9175017
   3.0059987   3.9345006 128.9175017   1.8089987   4.8615006 128.9175017
   0.8809987   6.8355006 130.1215017   1.8379987   6.8355006 130.1215017
   0.6409987   7.7625006 130.1215017  18.4159987   3.2175006 136.0655017
  19.3729987   3.2175006 136.0655017  18.1759987   4.1445006 136.0655017
  18.3509987   3.1185006 120.9325017  19.3079987   3.1185006 120.9325017
  18.1109987   4.0455006 120.9325017   0.8769987   3.0315006 124.0785017
   1.8339987   3.0315006 124.0785017   0.6369987   3.9585006 124.0785017
  15.3879987  18.0765006 125.9875017  16.3449987  18.0765006 125.9875017
  15.1479987  19.0035006 125.9875017 108.3419987   1.9035006 132.4065017
 109.2989987   1.9035006 132.4065017 108.1019987   2.8305006 132.4065017
   2.8359987  15.1065006 136.4505017   3.7929987  15.1065006 136.4505017
   2.5959987  16.0335006 136.4505017   5.7349987  15.9745006 132.7585017
   6.6919987  15.9745006 132.7585017   5.4949987  16.9015006 132.7585017
  10.0219987  17.6335006 135.4935017  10.9789987  17.6335006 135.4935017
   9.7819987  18.5605006 135.4935017  12.3849987  18.6815006 135.0035017
  13.3419987  18.6815006 135.0035017  12.1449987  19.6085006 135.0035017
  17.4389987   1.4285006 134.0235017  18.3959987   1.4285006 134.0235017
  17.1989987   2.3555006 134.0235017   3.1449987  19.2395006 132.8075017
   4.1019987  19.2395006 132.8075017   2.9049987  20.1665006 132.8075017
   5.6339987  18.8175006 131.8245017   6.5909987  18.8175006 131.8245017
   5.3939987  19.7445006 131.8245017  10.3379987  18.7145006 131.0195017
  11.2949987  18.7145006 131.0195017  10.0979987  19.6415006 131.0195017
  12.6389987  17.5575006 132.0095017  13.5959987  17.5575006 132.0095017
  12.3989987  18.4845006 132.0095017  15.2169987  19.1225006 132.2785017
  16.1739987  19.1225006 132.2785017  14.9769987  20.0495006 132.2785017
   2.6349987  17.8945006 129.7725017   3.5919987  17.8945006 129.7725017
   2.3949987  18.8215006 129.7725017   4.6819987  16.5835006 128.3695017
   5.6389987  16.5835006 128.3695017   4.4419987  17.5105006 128.3695017
   7.2699987  17.0575006 129.2405017   8.2269987  17.0575006 129.2405017
   7.0299987  17.9845006 129.2405017  10.7429987   2.7455006 128.3785017
  11.6999987   2.7455006 128.3785017  10.5029987   3.6725006 128.3785017
  15.9639987   1.0805006 128.6415017  16.9209987   1.0805006 128.6415017
  15.7239987   2.0075006 128.6415017  17.5979987   1.9945006 126.7605017
  18.5549987   1.9945006 126.7605017  17.3579987   2.9215006 126.7605017
   3.1099987   1.3455006 126.1615017   4.0669987   1.3455006 126.1615017
   2.8699987   2.2725006 126.1615017   2.1929987   1.4875006 122.3395017
   3.1499987   1.4875006 122.3395017   1.9529987   2.4145006 122.3395017
   7.6319987   1.3045006 126.0015017   8.5889987   1.3045006 126.0015017
   7.3919987   2.2315006 126.0015017  13.2229987   1.3265006 127.6505017
  14.1799987   1.3265006 127.6505017  12.9829987   2.2535006 127.6505017
  14.5769987   1.3525006 123.3935017  15.5339987   1.3525006 123.3935017
  14.3369987   2.2795006 123.3935017   1.9159987  17.0695006 122.9455017
   2.8729987  17.0695006 122.9455017   1.6759987  17.9965006 122.9455017
   3.7349987   3.0415006 120.4285017   4.6919987   3.0415006 120.4285017
   3.4949987   3.9685006 120.4285017   8.7199987   3.3185006 122.8885017
   9.6769987   3.3185006 122.8885017   8.4799987   4.2455006 122.8885017
  10.6769987  18.3375006 121.3185017  11.6339987  18.3375006 121.3185017
  10.4369987  19.2645006 121.3185017  17.3899987  17.8635006 124.0215017
  18.3469987  17.8635006 124.0215017  17.1499987  18.7905006 124.0215017
   3.0169987   1.8595006 135.6865017   3.9739987   1.8595006 135.6865017
   2.7769987   2.7865006 135.6865017   3.5799987  18.0015006 119.9065017
   4.5369987  18.0015006 119.9065017   3.3399987  18.9285006 119.9065017
  16.8069987  16.7105006 135.9015017  17.7639987  16.7105006 135.9015017
  16.5669987  17.6375006 135.9015017  31.0929987  10.4525006 126.0885017
  32.0499987  10.4525006 126.0885017  30.8529987  11.3795006 126.0885017
  29.9639987   9.7265006 129.5835017  30.9209987   9.7265006 129.5835017
  29.7239987  10.6535006 129.5835017  22.2569987   9.4235006 131.1665017
  23.2139987   9.4235006 131.1665017  22.0169987  10.3505006 131.1665017
  33.6249987  12.6735006 127.8685017  34.5819987  12.6735006 127.8685017
  33.3849987  13.6005006 127.8685017  23.2119987  13.8555006 129.6625017
  24.1689987  13.8555006 129.6625017  22.9719987  14.7825006 129.6625017
  19.8549987   7.4325006 125.1265017  20.8119987   7.4325006 125.1265017
  19.6149987   8.3595006 125.1265017  20.5469987   9.6475006 127.2565017
  21.5039987   9.6475006 127.2565017  20.3069987  10.5745006 127.2565017
  30.7389987  17.8375006 128.1065017  31.6959987  17.8375006 128.1065017
  30.4989987  18.7645006 128.1065017  28.3059987  12.1565006 130.0335017
  29.2629987  12.1565006 130.0335017  28.0659987  13.0835006 130.0335017
  36.9339987   3.7625006 130.7995017  37.8909987   3.7625006 130.7995017
  36.6939987   4.6895006 130.7995017  31.5079987   6.6075006 130.3435017
  32.4649987   6.6075006 130.3435017  31.2679987   7.5345006 130.3435017
  24.6099987   4.6845006 127.5705017  25.5669987   4.6845006 127.5705017
  24.3699987   5.6115006 127.5705017  32.3329987   4.8465006 125.9995017
  33.2899987   4.8465006 125.9995017  32.0929987   5.7735006 125.9995017
  21.1999987   7.0995006 128.3295017  22.1569987   7.0995006 128.3295017
  20.9599987   8.0265006 128.3295017  26.4059987   8.6615006 127.5865017
  27.3629987   8.6615006 127.5865017  26.1659987   9.5885006 127.5865017
  37.3639987   5.2275006 133.0555017  38.3209987   5.2275006 133.0555017
  37.1239987   6.1545006 133.0555017  23.4869987   3.5955006 131.6575017
  24.4439987   3.5955006 131.6575017  23.2469987   4.5225006 131.6575017
  30.7969987  13.0685006 125.1835017  31.7539987  13.0685006 125.1835017
  30.5569987  13.9955006 125.1835017  26.0179987  11.2615006 131.8945017
  26.9749987  11.2615006 131.8945017  25.7779987  12.1885006 131.8945017
  34.1089987   4.1275006 127.9505017  35.0659987   4.1275006 127.9505017
  33.8689987   5.0545006 127.9505017  22.8809987   5.3495006 129.5555017
  23.8379987   5.3495006 129.5555017  22.6409987   6.2765006 129.5555017
  24.4329987  13.2535006 132.6845017  25.3899987  13.2535006 132.6845017
  24.1929987  14.1805006 132.6845017  20.5339987  12.8675006 123.4965017
  21.4909987  12.8675006 123.4965017  20.2939987  13.7945006 123.4965017
  34.1509987  14.5215006 130.2395017  35.1079987  14.5215006 130.2395017
  33.9109987  15.4485006 130.2395017  34.4869987   2.7965006 131.6775017
  35.4439987   2.7965006 131.6775017  34.2469987   3.7235006 131.6775017
  27.4149987   0.9665006 128.9585017  28.3719987   0.9665006 128.9585017
  27.1749987   1.8935006 128.9585017  32.4019987  16.3075006 126.8425017
  33.3589987  16.3075006 126.8425017  32.1619987  17.2345006 126.8425017
  33.6049987  14.2445006 125.3485017  34.5619987  14.2445006 125.3485017
  33.3649987  15.1715006 125.3485017  35.2699987  12.8125006 133.8435017
  36.2269987  12.8125006 133.8435017  35.0299987  13.7395006 133.8435017
  29.7459987   9.7275006 123.6235017  30.7029987   9.7275006 123.6235017
  29.5059987  10.6545006 123.6235017  29.7879987   8.2625006 120.6255017
  30.7449987   8.2625006 120.6255017  29.5479987   9.1895006 120.6255017
  37.1149987   9.1215006 131.8835017  38.0719987   9.1215006 131.8835017
  36.8749987  10.0485006 131.8835017  33.1619987   9.9565006 124.5085017
  34.1189987   9.9565006 124.5085017  32.9219987  10.8835006 124.5085017
  33.0829987   8.0445006 133.5345017  34.0399987   8.0445006 133.5345017
  32.8429987   8.9715006 133.5345017  24.7869987  10.5975006 126.4445017
  25.7439987  10.5975006 126.4445017  24.5469987  11.5245006 126.4445017
  26.1169987  13.9935006 129.1245017  27.0739987  13.9935006 129.1245017
  25.8769987  14.9205006 129.1245017  25.1069987   9.3915006 130.0585017
  26.0639987   9.3915006 130.0585017  24.8669987  10.3185006 130.0585017
  31.5139987  14.9015006 130.8155017  32.4709987  14.9015006 130.8155017
  31.2739987  15.8285006 130.8155017  26.0209987  13.7075006 134.7895017
  26.9779987  13.7075006 134.7895017  25.7809987  14.6345006 134.7895017
  32.0369987   9.1195006 122.2135017  32.9939987   9.1195006 122.2135017
  31.7969987  10.0465006 122.2135017  22.9749987   9.9605006 134.0085017
  23.9319987   9.9605006 134.0085017  22.7349987  10.8875006 134.0085017
  29.7549987  15.8505006 125.6705017  30.7119987  15.8505006 125.6705017
  29.5149987  16.7775006 125.6705017  24.2809987  15.7675006 135.5835017
  25.2379987  15.7675006 135.5835017  24.0409987  16.6945006 135.5835017
  35.7729987   0.8925006 122.0645017  36.7299987   0.8925006 122.0645017
  35.5329987   1.8195006 122.0645017  23.7629987   9.6225006 124.0595017
  24.7199987   9.6225006 124.0595017  23.5229987  10.5495006 124.0595017
  36.8819987  15.2155006 120.4425017  37.8389987  15.2155006 120.4425017
  36.6419987  16.1425006 120.4425017  19.8619987  12.0435006 132.9025017
  20.8189987  12.0435006 132.9025017  19.6219987  12.9705006 132.9025017
  19.6089987  14.7785006 129.7295017  20.5659987  14.7785006 129.7295017
  19.3689987  15.7055006 129.7295017  37.8919987  15.4525006 135.3605017
  38.8489987  15.4525006 135.3605017  37.6519987  16.3795006 135.3605017
  28.8249987  15.0565006 134.2595017  29.7819987  15.0565006 134.2595017
  28.5849987  15.9835006 134.2595017  29.2369987  18.7685006 124.0865017
  30.1939987  18.7685006 124.0865017  28.9969987  19.6955006 124.0865017
  22.8769987  17.6375006 125.8925017  23.8339987  17.6375006 125.8925017
  22.6369987  18.5645006 125.8925017  32.3009987  17.9775006 121.0685017
  33.2579987  17.9775006 121.0685017  32.0609987  18.9045006 121.0685017
  31.9889987  17.9045006 123.8335017  32.9459987  17.9045006 123.8335017
  31.7489987  18.8315006 123.8335017  34.9919987   7.0035006 135.6825017
  35.9489987   7.0035006 135.6825017  34.7519987   7.9305006 135.6825017
  22.1089987  13.3545006 133.9055017  23.0659987  13.3545006 133.9055017
  21.8689987  14.2815006 133.9055017  24.8859987   1.9295006 129.7975017
  25.8429987   1.9295006 129.7975017  24.6459987   2.8565006 129.7975017
  29.4619987   1.5515006 133.2835017  30.4189987   1.5515006 133.2835017
  29.2219987   2.4785006 133.2835017  32.7209987   5.2945006 134.0945017
  33.6779987   5.2945006 134.0945017  32.4809987   6.2215006 134.0945017
  33.4869987  10.1585006 119.9605017  34.4439987  10.1585006 119.9605017
  33.2469987  11.0855006 119.9605017  29.0519987   4.0645006 120.4985017
  30.0089987   4.0645006 120.4985017  28.8119987   4.9915006 120.4985017
  24.7879987   6.6735006 130.1995017  25.7449987   6.6735006 130.1995017
  24.5479987   7.6005006 130.1995017  24.8589987   6.9535006 125.9465017
  25.8159987   6.9535006 125.9465017  24.6189987   7.8805006 125.9465017
  30.4379987   7.4685006 124.7735017  31.3949987   7.4685006 124.7735017
  30.1979987   8.3955006 124.7735017  29.4559987   7.3985006 135.9715017
  30.4129987   7.3985006 135.9715017  29.2159987   8.3255006 135.9715017
  31.3759987   6.8685006 127.5845017  32.3329987   6.8685006 127.5845017
  31.1359987   7.7955006 127.5845017  22.1809987   7.1235006 132.8385017
  23.1379987   7.1235006 132.8385017  21.9409987   8.0505006 132.8385017
  25.9269987   4.4375006 119.6045017  26.8839987   4.4375006 119.6045017
  25.6869987   5.3645006 119.6045017  19.1749987   4.2085006 126.7365017
  20.1319987   4.2085006 126.7365017  18.9349987   5.1355006 126.7365017
  20.4629987   4.9275006 122.1435017  21.4199987   4.9275006 122.1435017
  20.2229987   5.8545006 122.1435017  30.6539987   8.5145006 132.1975017
  31.6109987   8.5145006 132.1975017  30.4139987   9.4415006 132.1975017
  27.4189987   4.4755006 126.9795017  28.3759987   4.4755006 126.9795017
  27.1789987   5.4025006 126.9795017  22.2429987   6.0475006 125.8455017
  23.1999987   6.0475006 125.8455017  22.0029987   6.9745006 125.8455017
  25.8779987   6.0785006 123.4855017  26.8349987   6.0785006 123.4855017
  25.6379987   7.0055006 123.4855017  31.8369987   3.6855006 130.2065017
  32.7939987   3.6855006 130.2065017  31.5969987   4.6125006 130.2065017
  24.5719987   7.2505006 121.0565017  25.5289987   7.2505006 121.0565017
  24.3319987   8.1775006 121.0565017  35.0769987  19.3425006 136.4965017
  36.0339987  19.3425006 136.4965017  34.8369987  20.2695006 136.4965017
  22.5559987  11.8365006 136.0725017  23.5129987  11.8365006 136.0725017
  22.3159987  12.7635006 136.0725017  28.7449987   7.2305006 128.8515017
  29.7019987   7.2305006 128.8515017  28.5049987   8.1575006 128.8515017
  23.7079987   3.3685006 125.2845017  24.6649987   3.3685006 125.2845017
  23.4679987   4.2955006 125.2845017  27.3489987   5.5615006 131.2745017
  28.3059987   5.5615006 131.2745017  27.1089987   6.4885006 131.2745017
  27.9359987  11.7915006 122.9675017  28.8929987  11.7915006 122.9675017
  27.6959987  12.7185006 122.9675017  35.0929987  10.9795006 131.7805017
  36.0499987  10.9795006 131.7805017  34.8529987  11.9065006 131.7805017
  31.7779987   4.5995006 121.1365017  32.7349987   4.5995006 121.1365017
  31.5379987   5.5265006 121.1365017  29.3879987  12.0315006 134.1485017
  30.3449987  12.0315006 134.1485017  29.1479987  12.9585006 134.1485017
  32.4959987   6.5335006 122.8405017  33.4529987   6.5335006 122.8405017
  32.2559987   7.4605006 122.8405017  23.0269987  11.1655006 128.7435017
  23.9839987  11.1655006 128.7435017  22.7869987  12.0925006 128.7435017
  30.0419987  13.2555006 122.0005017  30.9989987  13.2555006 122.0005017
  29.8019987  14.1825006 122.0005017  19.9959987   9.6035006 134.0505017
  20.9529987   9.6035006 134.0505017  19.7559987  10.5305006 134.0505017
  27.4029987   9.5875006 135.8235017  28.3599987   9.5875006 135.8235017
  27.1629987  10.5145006 135.8235017  31.7239987  14.4845006 134.1725017
  32.6809987  14.4845006 134.1725017  31.4839987  15.4115006 134.1725017
  37.3959987   6.6685006 122.5525017  38.3529987   6.6685006 122.5525017
  37.1559987   7.5955006 122.5525017  37.3729987  12.5095006 135.3495017
  38.3299987  12.5095006 135.3495017  37.1329987  13.4365006 135.3495017
  35.6709987  15.4875006 122.9615017  36.6279987  15.4875006 122.9615017
  35.4309987  16.4145006 122.9615017  32.8749987  10.3355006 129.9765017
  33.8319987  10.3355006 129.9765017  32.6349987  11.2625006 129.9765017
  25.4139987  14.6255006 126.1535017  26.3709987  14.6255006 126.1535017
  25.1739987  15.5525006 126.1535017  21.1749987   9.4715006 120.7245017
  22.1319987   9.4715006 120.7245017  20.9349987  10.3985006 120.7245017
  26.8369987  12.2905006 125.6815017  27.7939987  12.2905006 125.6815017
  26.5969987  13.2175006 125.6815017  27.2919987  16.4685006 132.0455017
  28.2489987  16.4685006 132.0455017  27.0519987  17.3955006 132.0455017
  25.5099987  17.2915006 125.2175017  26.4669987  17.2915006 125.2175017
  25.2699987  18.2185006 125.2175017  30.8509987  12.5085006 131.7085017
  31.8079987  12.5085006 131.7085017  30.6109987  13.4355006 131.7085017
  33.1289987  13.5285006 120.7955017  34.0859987  13.5285006 120.7955017
  32.8889987  14.4555006 120.7955017  33.5539987  17.0825006 134.2055017
  34.5109987  17.0825006 134.2055017  33.3139987  18.0095006 134.2055017
  37.6039987  17.9085006 121.0355017  38.5609987  17.9085006 121.0355017
  37.3639987  18.8355006 121.0355017  21.6729987   4.3325006 133.6525017
  22.6299987   4.3325006 133.6525017  21.4329987   5.2595006 133.6525017
  33.9239987  12.1775006 123.0295017  34.8809987  12.1775006 123.0295017
  33.6839987  13.1045006 123.0295017  21.3189987  16.1125006 132.0015017
  22.2759987  16.1125006 132.0015017  21.0789987  17.0395006 132.0015017
  27.2469987  14.6175006 119.2725017  28.2039987  14.6175006 119.2725017
  27.0069987  15.5445006 119.2725017  26.0659987  14.1485006 121.7285017
  27.0229987  14.1485006 121.7285017  25.8259987  15.0755006 121.7285017
  22.5789987  11.3955006 122.2195017  23.5359987  11.3955006 122.2195017
  22.3389987  12.3225006 122.2195017  30.4249987   4.0835006 132.5145017
  31.3819987   4.0835006 132.5145017  30.1849987   5.0105006 132.5145017
  31.1819987   3.6685006 123.6195017  32.1389987   3.6685006 123.6195017
  30.9419987   4.5955006 123.6195017  28.8529987  15.8195006 122.4475017
  29.8099987  15.8195006 122.4475017  28.6129987  16.7465006 122.4475017
  28.4089987   5.4015006 124.4485017  29.3659987   5.4015006 124.4485017
  28.1689987   6.3285006 124.4485017  28.9709987   6.4215006 133.5605017
  29.9279987   6.4215006 133.5605017  28.7309987   7.3485006 133.5605017
  29.2599987   2.4775006 125.3615017  30.2169987   2.4775006 125.3615017
  29.0199987   3.4045006 125.3615017  26.2339987  16.8545006 122.4595017
  27.1909987  16.8545006 122.4595017  25.9939987  17.7815006 122.4595017
  24.9089987   3.5815006 122.0325017  25.8659987   3.5815006 122.0325017
  24.6689987   4.5085006 122.0325017  35.1309987   4.2785006 134.4055017
  36.0879987   4.2785006 134.4055017  34.8909987   5.2055006 134.4055017
  33.7139987   8.0905006 128.7005017  34.6709987   8.0905006 128.7005017
  33.4739987   9.0175006 128.7005017  23.1419987  14.0115006 121.1005017
  24.0989987  14.0115006 121.1005017  22.9019987  14.9385006 121.1005017
  21.4829987   6.6855006 120.2325017  22.4399987   6.6855006 120.2325017
  21.2429987   7.6125006 120.2325017  34.7979987  17.3375006 130.1545017
  35.7549987  17.3375006 130.1545017  34.5579987  18.2645006 130.1545017
  22.0599987   1.6675006 128.8275017  23.0169987   1.6675006 128.8275017
  21.8199987   2.5945006 128.8275017  21.2499987  15.3895006 125.1025017
  22.2069987  15.3895006 125.1025017  21.0099987  16.3165006 125.1025017
  20.3579987  18.0645006 136.3295017  21.3149987  18.0645006 136.3295017
  20.1179987  18.9915006 136.3295017  29.2529987  16.4725006 119.4065017
  30.2099987  16.4725006 119.4065017  29.0129987  17.3995006 119.4065017
  33.8239987  16.2305006 119.6055017  34.7809987  16.2305006 119.6055017
  33.5839987  17.1575006 119.6055017  24.7219987  12.1645006 119.4395017
  25.6789987  12.1645006 119.4395017  24.4819987  13.0915006 119.4395017
  30.1389987  13.2575006 119.1995017  31.0959987  13.2575006 119.1995017
  29.8989987  14.1845006 119.1995017  32.7809987  11.7405006 134.1735017
  33.7379987  11.7405006 134.1735017  32.5409987  12.6675006 134.1735017
  25.9339987  10.1625006 121.8205017  26.8909987  10.1625006 121.8205017
  25.6939987  11.0895006 121.8205017  25.3419987   8.5775006 135.0005017
  26.2989987   8.5775006 135.0005017  25.1019987   9.5045006 135.0005017
  26.9919987   8.3665006 120.0455017  27.9489987   8.3665006 120.0455017
  26.7519987   9.2935006 120.0455017  36.3459987  10.7245006 119.4755017
  37.3029987  10.7245006 119.4755017  36.1059987  11.6515006 119.4755017
  25.3899987   5.4565006 135.0775017  26.3469987   5.4565006 135.0775017
  25.1499987   6.3835006 135.0775017  25.9979987   3.7165006 132.7585017
  26.9549987   3.7165006 132.7585017  25.7579987   4.6435006 132.7585017
  27.6259987   9.2635006 133.0265017  28.5829987   9.2635006 133.0265017
  27.3859987  10.1905006 133.0265017  33.1359987   9.6035006 135.4965017
  34.0929987   9.6035006 135.4965017  32.8959987  10.5305006 135.4965017
  26.8659987   1.2535006 133.0225017  27.8229987   1.2535006 133.0225017
  26.6259987   2.1805006 133.0225017  30.7699987   4.6435006 135.7985017
  31.7269987   4.6435006 135.7985017  30.5299987   5.5705006 135.7985017
  27.5649987 108.4795006 136.0145017  28.5219987 108.4795006 136.0145017
  27.3249987 109.4065006 136.0145017  26.8369987  19.0805006 121.1125017
  27.7939987  19.0805006 121.1125017  26.5969987  20.0075006 121.1125017
  20.3989987  13.6935006 120.5775017  21.3559987  13.6935006 120.5775017
  20.1589987  14.6205006 120.5775017  19.1549987  19.0765006 125.5665017
  20.1119987  19.0765006 125.5665017  18.9149987  20.0035006 125.5665017
  19.9829987  17.1935006 127.4215017  20.9399987  17.1935006 127.4215017
  19.7429987  18.1205006 127.4215017  37.5189987  17.9965006 130.3645017
  38.4759987  17.9965006 130.3645017  37.2789987  18.9235006 130.3645017
  37.1219987  17.5865006 133.2885017  38.0789987  17.5865006 133.2885017
  36.8819987  18.5135006 133.2885017  36.8349987  11.6305006 123.4335017
  37.7919987  11.6305006 123.4335017  36.5949987  12.5575006 123.4335017
  37.2269987   9.7355006 125.2885017  38.1839987   9.7355006 125.2885017
  36.9869987  10.6625006 125.2885017  36.9719987  12.4155006 130.2715017
  37.9289987  12.4155006 130.2715017  36.7319987  13.3425006 130.2715017
  35.5159987  15.2995006 132.5635017  36.4729987  15.2995006 132.5635017
  35.2759987  16.2265006 132.5635017  37.5199987   9.5395006 121.6915017
  38.4769987   9.5395006 121.6915017  37.2799987  10.4665006 121.6915017
  35.8899987   6.7825006 120.2155017  36.8469987   6.7825006 120.2155017
  35.6499987   7.7095006 120.2155017  35.2569987   8.1365006 125.8315017
  36.2139987   8.1365006 125.8315017  35.0169987   9.0635006 125.8315017
  20.0409987  10.2805006 129.9065017  20.9979987  10.2805006 129.9065017
  19.8009987  11.2075006 129.9065017  35.8809987   9.9975006 135.0815017
  36.8379987   9.9975006 135.0815017  35.6409987  10.9245006 135.0815017
  37.4259987   8.0865006 136.1055017  38.3829987   8.0865006 136.1055017
  37.1859987   9.0135006 136.1055017  35.1109987   4.2595006 119.3705017
  36.0679987   4.2595006 119.3705017  34.8709987   5.1865006 119.3705017
  34.6889987   5.8005006 124.3265017  35.6459987   5.8005006 124.3265017
  34.4489987   6.7275006 124.3265017  35.3339987   6.3325006 129.7475017
  36.2909987   6.3325006 129.7475017  35.0939987   7.2595006 129.7475017
  35.3969987   7.0625006 132.5465017  36.3539987   7.0625006 132.5465017
  35.1569987   7.9895006 132.5465017  19.6519987   5.5535006 136.0585017
  20.6089987   5.5535006 136.0585017  19.4119987   6.4805006 136.0585017
  35.3499987   3.0655006 124.3495017  36.3069987   3.0655006 124.3495017
  35.1099987   3.9925006 124.3495017  20.8109987   3.8925006 128.9245017
  21.7679987   3.8925006 128.9245017  20.5709987   4.8195006 128.9245017
  19.1429987   6.8545006 129.9715017  20.0999987   6.8545006 129.9715017
  18.9029987   7.7815006 129.9715017  37.2719987   3.2175006 136.0655017
  38.2289987   3.2175006 136.0655017  37.0319987   4.1445006 136.0655017
  37.2079987   3.1185006 120.9335017  38.1649987   3.1185006 120.9335017
  36.9679987   4.0455006 120.9335017  19.4929987   3.0925006 124.0605017
  20.4499987   3.0925006 124.0605017  19.2529987   4.0195006 124.0605017
  34.2449987  18.0745006 125.9885017  35.2019987  18.0745006 125.9885017
  34.0049987  19.0015006 125.9885017  19.4609987   1.8255006 132.3435017
  20.4179987   1.8255006 132.3435017  19.2209987   2.7525006 132.3435017
  21.6899987  15.0965006 136.4455017  22.6469987  15.0965006 136.4455017
  21.4499987  16.0235006 136.4455017  24.5939987  15.9745006 132.7585017
  25.5509987  15.9745006 132.7585017  24.3539987  16.9015006 132.7585017
  28.8769987  17.6345006 135.4935017  29.8339987  17.6345006 135.4935017
  28.6369987  18.5615006 135.4935017  31.2409987  18.6815006 135.0025017
  32.1979987  18.6815006 135.0025017  31.0009987  19.6085006 135.0025017
  36.2949987   1.4275006 134.0235017  37.2519987   1.4275006 134.0235017
  36.0549987   2.3545006 134.0235017  22.0209987  19.2295006 132.7745017
  22.9779987  19.2295006 132.7745017  21.7809987  20.1565006 132.7745017
  24.4779987  18.8065006 131.8185017  25.4349987  18.8065006 131.8185017
  24.2379987  19.7335006 131.8185017  29.1939987  18.7145006 131.0195017
  30.1509987  18.7145006 131.0195017  28.9539987  19.6415006 131.0195017
  31.4949987  17.5575006 132.0095017  32.4519987  17.5575006 132.0095017
  31.2549987  18.4845006 132.0095017  34.0739987  19.1235006 132.2795017
  35.0309987  19.1235006 132.2795017  33.8339987  20.0505006 132.2795017
  21.4539987  17.8735006 129.7155017  22.4109987  17.8735006 129.7155017
  21.2139987  18.8005006 129.7155017  23.5489987  16.5855006 128.3695017
  24.5059987  16.5855006 128.3695017  23.3089987  17.5125006 128.3695017
  26.1409987  17.0655006 129.2445017  27.0979987  17.0655006 129.2445017
  25.9009987  17.9925006 129.2445017  29.6009987   2.7465006 128.3805017
  30.5579987   2.7465006 128.3805017  29.3609987   3.6735006 128.3805017
  34.8209987   1.0805006 128.6395017  35.7779987   1.0805006 128.6395017
  34.5809987   2.0075006 128.6395017  36.4539987   1.9925006 126.7605017
  37.4109987   1.9925006 126.7605017  36.2139987   2.9195006 126.7605017
  21.9269987   1.3285006 126.2185017  22.8839987   1.3285006 126.2185017
  21.6869987   2.2555006 126.2185017  21.0309987   1.5195006 122.3685017
  21.9879987   1.5195006 122.3685017  20.7909987   2.4465006 122.3685017
  26.4869987   1.3035006 126.0035017  27.4439987   1.3035006 126.0035017
  26.2469987   2.2305006 126.0035017  32.0789987   1.3265006 127.6505017
  33.0359987   1.3265006 127.6505017  31.8389987   2.2535006 127.6505017
  33.4329987   1.3495006 123.3915017  34.3899987   1.3495006 123.3915017
  33.1929987   2.2765006 123.3915017  20.6719987  17.0555006 122.9555017
  21.6289987  17.0555006 122.9555017  20.4319987  17.9825006 122.9555017
  22.5929987   3.0435006 120.4235017  23.5499987   3.0435006 120.4235017
  22.3529987   3.9705006 120.4235017  27.6079987   3.3115006 122.8595017
  28.5649987   3.3115006 122.8595017  27.3679987   4.2385006 122.8595017
  29.5329987  18.3365006 121.3185017  30.4899987  18.3365006 121.3185017
  29.2929987  19.2635006 121.3185017  36.2469987  17.8635006 124.0205017
  37.2039987  17.8635006 124.0205017  36.0069987  18.7905006 124.0205017
  21.8429987   1.8645006 135.7095017  22.7999987   1.8645006 135.7095017
  21.6029987   2.7915006 135.7095017  22.4669987  18.0265006 119.9205017
  23.4239987  18.0265006 119.9205017  22.2269987  18.9535006 119.9205017
  35.6629987  16.7105006 135.9015017  36.6199987  16.7105006 135.9015017
  35.4229987  17.6375006 135.9015017  49.9109987  10.4805006 126.1075017
  50.8679987  10.4805006 126.1075017  49.6709987  11.4075006 126.1075017
  48.7839987   9.7465006 129.5975017  49.7409987   9.7465006 129.5975017
  48.5439987  10.6735006 129.5975017  41.1329987   9.4025006 131.1585017
  42.0899987   9.4025006 131.1585017  40.8929987  10.3295006 131.1585017
  52.4819987  12.6875006 127.8715017  53.4389987  12.6875006 127.8715017
  52.2419987  13.6145006 127.8715017  42.0679987  13.8555006 129.6655017
  43.0249987  13.8555006 129.6655017  41.8279987  14.7825006 129.6655017
  38.6959987   7.4305006 125.1405017  39.6529987   7.4305006 125.1405017
  38.4559987   8.3575006 125.1405017  39.4079987   9.6535006 127.2595017
  40.3649987   9.6535006 127.2595017  39.1679987  10.5805006 127.2595017
  49.5939987  17.8375006 128.1055017  50.5509987  17.8375006 128.1055017
  49.3539987  18.7645006 128.1055017  47.1599987  12.1555006 130.0355017
  48.1169987  12.1555006 130.0355017  46.9199987  13.0825006 130.0355017
  55.7899987   3.7625006 130.7995017  56.7469987   3.7625006 130.7995017
  55.5499987   4.6895006 130.7995017  50.3249987   6.5995006 130.3635017
  51.2819987   6.5995006 130.3635017  50.0849987   7.5265006 130.3635017
  43.4569987   4.7025006 127.5865017  44.4139987   4.7025006 127.5865017
  43.2169987   5.6295006 127.5865017  51.1889987   4.7805006 125.9665017
  52.1459987   4.7805006 125.9665017  50.9489987   5.7075006 125.9665017
  40.0709987   7.1005006 128.3385017  41.0279987   7.1005006 128.3385017
  39.8309987   8.0275006 128.3385017  45.2329987   8.6595006 127.6195017
  46.1899987   8.6595006 127.6195017  44.9929987   9.5865006 127.6195017
  56.2199987   5.2275006 133.0555017  57.1769987   5.2275006 133.0555017
  55.9799987   6.1545006 133.0555017  42.3449987   3.5985006 131.6565017
  43.3019987   3.5985006 131.6565017  42.1049987   4.5255006 131.6565017
  49.6489987  13.0845006 125.1825017  50.6059987  13.0845006 125.1825017
  49.4089987  14.0115006 125.1825017  44.8639987  11.2395006 131.8955017
  45.8209987  11.2395006 131.8955017  44.6239987  12.1665006 131.8955017
  52.9779987   4.1045006 127.9465017  53.9349987   4.1045006 127.9465017
  52.7379987   5.0315006 127.9465017  41.8889987   5.4835006 129.6285017
  42.8459987   5.4835006 129.6285017  41.6489987   6.4105006 129.6285017
  43.2899987  13.2355006 132.6815017  44.2469987  13.2355006 132.6815017
  43.0499987  14.1625006 132.6815017  39.3899987  12.8675006 123.4965017
  40.3469987  12.8675006 123.4965017  39.1499987  13.7945006 123.4965017
  53.0069987  14.5215006 130.2395017  53.9639987  14.5215006 130.2395017
  52.7669987  15.4485006 130.2395017  53.3459987   2.7945006 131.6785017
  54.3029987   2.7945006 131.6785017  53.1059987   3.7215006 131.6785017
  46.2729987   0.9645006 128.9565017  47.2299987   0.9645006 128.9565017
  46.0329987   1.8915006 128.9565017  51.2579987  16.3065006 126.8445017
  52.2149987  16.3065006 126.8445017  51.0179987  17.2335006 126.8445017
  52.4599987  14.2345006 125.3495017  53.4169987  14.2345006 125.3495017
  52.2199987  15.1615006 125.3495017  54.1259987  12.8125006 133.8435017
  55.0829987  12.8125006 133.8435017  53.8859987  13.7395006 133.8435017
  48.5869987   9.7255006 123.6175017  49.5439987   9.7255006 123.6175017
  48.3469987  10.6525006 123.6175017  48.6499987   8.2575006 120.6235017
  49.6069987   8.2575006 120.6235017  48.4099987   9.1845006 120.6235017
  55.9699987   9.1215006 131.8835017  56.9269987   9.1215006 131.8835017
  55.7299987  10.0485006 131.8835017  52.0229987   9.9405006 124.5325017
  52.9799987   9.9405006 124.5325017  51.7829987  10.8675006 124.5325017
  51.9379987   8.0445006 133.5315017  52.8949987   8.0445006 133.5315017
  51.6979987   8.9715006 133.5315017  43.6359987  10.5945006 126.4445017
  44.5929987  10.5945006 126.4445017  43.3959987  11.5215006 126.4445017
  44.9729987  13.9935006 129.1255017  45.9299987  13.9935006 129.1255017
  44.7329987  14.9205006 129.1255017  43.9799987   9.3385006 130.0975017
  44.9369987   9.3385006 130.0975017  43.7399987  10.2655006 130.0975017
  50.3699987  14.9015006 130.8155017  51.3269987  14.9015006 130.8155017
  50.1299987  15.8285006 130.8155017  44.8769987  13.7085006 134.7945017
  45.8339987  13.7085006 134.7945017  44.6369987  14.6355006 134.7945017
  50.8889987   9.1225006 122.2075017  51.8459987   9.1225006 122.2075017
  50.6489987  10.0495006 122.2075017  41.8429987   9.9415006 134.0015017
  42.7999987   9.9415006 134.0015017  41.6029987  10.8685006 134.0015017
  48.6099987  15.8505006 125.6705017  49.5669987  15.8505006 125.6705017
  48.3699987  16.7775006 125.6705017  43.1369987  15.7665006 135.5835017
  44.0939987  15.7665006 135.5835017  42.8969987  16.6935006 135.5835017
  54.6309987   0.8985006 122.0645017  55.5879987   0.8985006 122.0645017
  54.3909987   1.8255006 122.0645017  42.6169987   9.6225006 124.0595017
  43.5739987   9.6225006 124.0595017  42.3769987  10.5495006 124.0595017
  55.7389987  15.2145006 120.4425017  56.6959987  15.2145006 120.4425017
  55.4989987  16.1415006 120.4425017  38.7179987  12.0455006 132.8985017
  39.6749987  12.0455006 132.8985017  38.4779987  12.9725006 132.8985017
  38.4649987  14.7785006 129.7295017  39.4219987  14.7785006 129.7295017
  38.2249987  15.7055006 129.7295017  56.7479987  15.4535006 135.3595017
  57.7049987  15.4535006 135.3595017  56.5079987  16.3805006 135.3595017
  47.6809987  15.0545006 134.2615017  48.6379987  15.0545006 134.2615017
  47.4409987  15.9815006 134.2615017  48.0709987  18.7705006 124.0925017
  49.0279987  18.7705006 124.0925017  47.8309987  19.6975006 124.0925017
  41.7329987  17.6375006 125.8925017  42.6899987  17.6375006 125.8925017
  41.4929987  18.5645006 125.8925017  51.1519987  17.9295006 121.0655017
  52.1089987  17.9295006 121.0655017  50.9119987  18.8565006 121.0655017
  50.8519987  17.8885006 123.8415017  51.8089987  17.8885006 123.8415017
  50.6119987  18.8155006 123.8415017  53.8459987   7.0035006 135.6825017
  54.8029987   7.0035006 135.6825017  53.6059987   7.9305006 135.6825017
  40.9759987  13.3385006 133.9045017  41.9329987  13.3385006 133.9045017
  40.7359987  14.2655006 133.9045017  43.7419987   1.9225006 129.7905017
  44.6989987   1.9225006 129.7905017  43.5019987   2.8495006 129.7905017
  48.3169987   1.5515006 133.2835017  49.2739987   1.5515006 133.2835017
  48.0769987   2.4785006 133.2835017  51.5759987   5.2935006 134.0945017
  52.5329987   5.2935006 134.0945017  51.3359987   6.2205006 134.0945017
  52.3449987  10.1595006 119.9485017  53.3019987  10.1595006 119.9485017
  52.1049987  11.0865006 119.9485017  47.9449987   4.0655006 120.5315017
  48.9019987   4.0655006 120.5315017  47.7049987   4.9925006 120.5315017
  43.7369987   6.7835006 131.0445017  44.6939987   6.7835006 131.0445017
  43.4969987   7.7105006 131.0445017  43.7149987   6.9495006 125.9465017
  44.6719987   6.9495006 125.9465017  43.4749987   7.8765006 125.9465017
  49.2369987   7.4215006 124.7365017  50.1939987   7.4215006 124.7365017
  48.9969987   8.3485006 124.7365017  48.2949987   7.4045006 135.9695017
  49.2519987   7.4045006 135.9695017  48.0549987   8.3315006 135.9695017
  50.2649987   6.9015006 127.5695017  51.2219987   6.9015006 127.5695017
  50.0249987   7.8285006 127.5695017  41.4239987   7.0665006 132.8295017
  42.3809987   7.0665006 132.8295017  41.1839987   7.9935006 132.8295017
  44.7779987   4.4935006 119.6515017  45.7349987   4.4935006 119.6515017
  44.5379987   5.4205006 119.6515017  38.0319987   4.2055006 126.7365017
  38.9889987   4.2055006 126.7365017  37.7919987   5.1325006 126.7365017
  39.3189987   4.9275006 122.1435017  40.2759987   4.9275006 122.1435017
  39.0789987   5.8545006 122.1435017  49.4809987   8.5145006 132.1855017
  50.4379987   8.5145006 132.1855017  49.2409987   9.4415006 132.1855017
  46.2769987   4.4735006 126.9765017  47.2339987   4.4735006 126.9765017
  46.0369987   5.4005006 126.9765017  41.0979987   6.0435006 125.8355017
  42.0549987   6.0435006 125.8355017  40.8579987   6.9705006 125.8355017
  44.7389987   6.0695006 123.4675017  45.6959987   6.0695006 123.4675017
  44.4989987   6.9965006 123.4675017  50.6939987   3.6755006 130.2115017
  51.6509987   3.6755006 130.2115017  50.4539987   4.6025006 130.2115017
  43.4309987   7.2505006 121.0515017  44.3879987   7.2505006 121.0515017
  43.1909987   8.1775006 121.0515017  53.9329987  19.3425006 136.4965017
  54.8899987  19.3425006 136.4965017  53.6929987  20.2695006 136.4965017
  41.4199987  11.8345006 136.0725017  42.3769987  11.8345006 136.0725017
  41.1799987  12.7615006 136.0725017  47.5679987   7.2265006 128.8645017
  48.5249987   7.2265006 128.8645017  47.3279987   8.1535006 128.8645017
  42.5639987   3.3695006 125.2875017  43.5209987   3.3695006 125.2875017
  42.3239987   4.2965006 125.2875017  46.2009987   5.5635006 131.2735017
  47.1579987   5.5635006 131.2735017  45.9609987   6.4905006 131.2735017
  46.7919987  11.7915006 122.9675017  47.7489987  11.7915006 122.9675017
  46.5519987  12.7185006 122.9675017  53.9459987  10.9785006 131.7765017
  54.9029987  10.9785006 131.7765017  53.7059987  11.9055006 131.7765017
  50.6419987   4.6025006 121.1445017  51.5989987   4.6025006 121.1445017
  50.4019987   5.5295006 121.1445017  48.2419987  12.0315006 134.1485017
  49.1989987  12.0315006 134.1485017  48.0019987  12.9585006 134.1485017
  51.3589987   6.5055006 122.7935017  52.3159987   6.5055006 122.7935017
  51.1189987   7.4325006 122.7935017  41.8989987  11.1605006 128.7715017
  42.8559987  11.1605006 128.7715017  41.6589987  12.0875006 128.7715017
  48.8979987  13.2545006 122.0005017  49.8549987  13.2545006 122.0005017
  48.6579987  14.1815006 122.0005017  38.8899987   9.5825006 134.0335017
  39.8469987   9.5825006 134.0335017  38.6499987  10.5095006 134.0335017
  46.0529987   9.4935006 135.7745017  47.0099987   9.4935006 135.7745017
  45.8129987  10.4205006 135.7745017  50.5779987  14.4865006 134.1785017
  51.5349987  14.4865006 134.1785017  50.3379987  15.4135006 134.1785017
  56.2539987   6.6685006 122.5505017  57.2109987   6.6685006 122.5505017
  56.0139987   7.5955006 122.5505017  56.2289987  12.5085006 135.3505017
  57.1859987  12.5085006 135.3505017  55.9889987  13.4355006 135.3505017
  54.5279987  15.4885006 122.9595017  55.4849987  15.4885006 122.9595017
  54.2879987  16.4155006 122.9595017  51.7389987  10.3195006 130.0165017
  52.6959987  10.3195006 130.0165017  51.4989987  11.2465006 130.0165017
  44.2629987  14.6195006 126.1585017  45.2199987  14.6195006 126.1585017
  44.0229987  15.5465006 126.1585017  40.0309987   9.4715006 120.7245017
  40.9879987   9.4715006 120.7245017  39.7909987  10.3985006 120.7245017
  45.6929987  12.2905006 125.6815017  46.6499987  12.2905006 125.6815017
  45.4529987  13.2175006 125.6815017  46.1499987  16.4675006 132.0455017
  47.1069987  16.4675006 132.0455017  45.9099987  17.3945006 132.0455017
  44.3659987  17.2915006 125.2185017  45.3229987  17.2915006 125.2185017
  44.1259987  18.2185006 125.2185017  49.7069987  12.5095006 131.7095017
  50.6639987  12.5095006 131.7095017  49.4669987  13.4365006 131.7095017
  51.9879987  13.5195006 120.7795017  52.9449987  13.5195006 120.7795017
  51.7479987  14.4465006 120.7795017  52.4099987  17.0825006 134.2055017
  53.3669987  17.0825006 134.2055017  52.1699987  18.0095006 134.2055017
  56.4499987  17.9145006 121.0355017  57.4069987  17.9145006 121.0355017
  56.2099987  18.8415006 121.0355017  40.5359987   4.3455006 133.6545017
  41.4929987   4.3455006 133.6545017  40.2959987   5.2725006 133.6545017
  52.7799987  12.1765006 123.0275017  53.7369987  12.1765006 123.0275017
  52.5399987  13.1035006 123.0275017  40.1749987  16.1125006 132.0015017
  41.1319987  16.1125006 132.0015017  39.9349987  17.0395006 132.0015017
  46.0999987  14.6165006 119.2725017  47.0569987  14.6165006 119.2725017
  45.8599987  15.5435006 119.2725017  44.9219987  14.1475006 121.7295017
  45.8789987  14.1475006 121.7295017  44.6819987  15.0745006 121.7295017
  41.4359987  11.3945006 122.2195017  42.3929987  11.3945006 122.2195017
  41.1959987  12.3215006 122.2195017  49.2789987   4.0835006 132.5175017
  50.2359987   4.0835006 132.5175017  49.0389987   5.0105006 132.5175017
  50.0409987   3.6515006 123.6125017  50.9979987   3.6515006 123.6125017
  49.8009987   4.5785006 123.6125017  47.7029987  15.8065006 122.4405017
  48.6599987  15.8065006 122.4405017  47.4629987  16.7335006 122.4405017
  47.2579987   5.3995006 124.4455017  48.2149987   5.3995006 124.4455017
  47.0179987   6.3265006 124.4455017  47.8019987   6.4175006 133.5725017
  48.7589987   6.4175006 133.5725017  47.5619987   7.3445006 133.5725017
  48.1159987   2.4775006 125.3615017  49.0729987   2.4775006 125.3615017
  47.8759987   3.4045006 125.3615017  45.0889987  16.8555006 122.4585017
  46.0459987  16.8555006 122.4585017  44.8489987  17.7825006 122.4585017
  43.7549987   3.5775006 122.0475017  44.7119987   3.5775006 122.0475017
  43.5149987   4.5045006 122.0475017  53.9869987   4.2785006 134.4055017
  54.9439987   4.2785006 134.4055017  53.7469987   5.2055006 134.4055017
  52.5869987   8.0945006 128.5085017  53.5439987   8.0945006 128.5085017
  52.3469987   9.0215006 128.5085017  41.9979987  14.0115006 121.1005017
  42.9549987  14.0115006 121.1005017  41.7579987  14.9385006 121.1005017
  40.3389987   6.6855006 120.2335017  41.2959987   6.6855006 120.2335017
  40.0989987   7.6125006 120.2335017  53.6529987  17.3385006 130.1545017
  54.6099987  17.3385006 130.1545017  53.4129987  18.2655006 130.1545017
  40.9239987   1.6735006 128.8285017  41.8809987   1.6735006 128.8285017
  40.6839987   2.6005006 128.8285017  40.1059987  15.3895006 125.1025017
  41.0629987  15.3895006 125.1025017  39.8659987  16.3165006 125.1025017
  39.2129987  18.0645006 136.3275017  40.1699987  18.0645006 136.3275017
  38.9729987  18.9915006 136.3275017  48.0939987  16.4615006 119.3885017
  49.0509987  16.4615006 119.3885017  47.8539987  17.3885006 119.3885017
  52.6799987  16.2065006 119.5935017  53.6369987  16.2065006 119.5935017
  52.4399987  17.1335006 119.5935017  43.5779987  12.1645006 119.4395017
  44.5349987  12.1645006 119.4395017  43.3379987  13.0915006 119.4395017
  48.9959987  13.2565006 119.1995017  49.9529987  13.2565006 119.1995017
  48.7559987  14.1835006 119.1995017  51.6369987  11.7405006 134.1735017
  52.5939987  11.7405006 134.1735017  51.3969987  12.6675006 134.1735017
  44.7739987  10.1725006 121.8255017  45.7309987  10.1725006 121.8255017
  44.5339987  11.0995006 121.8255017  44.0759987   8.0125006 134.1575017
  45.0329987   8.0125006 134.1575017  43.8359987   8.9395006 134.1575017
  45.8459987   8.3945006 120.0475017  46.8029987   8.3945006 120.0475017
  45.6059987   9.3215006 120.0475017  55.1999987  10.7235006 119.4725017
  56.1569987  10.7235006 119.4725017  54.9599987  11.6505006 119.4725017
  44.2349987   5.4575006 135.0655017  45.1919987   5.4575006 135.0655017
  43.9949987   6.3845006 135.0655017  44.8449987   3.7345006 132.7635017
  45.8019987   3.7345006 132.7635017  44.6049987   4.6615006 132.7635017
  46.4049987   9.2095006 132.9775017  47.3619987   9.2095006 132.9775017
  46.1649987  10.1365006 132.9775017  51.9899987   9.6025006 135.4975017
  52.9469987   9.6025006 135.4975017  51.7499987  10.5295006 135.4975017
  45.7209987   1.2535006 133.0205017  46.6779987   1.2535006 133.0205017
  45.4809987   2.1805006 133.0205017  49.6209987   4.6555006 135.8005017
  50.5779987   4.6555006 135.8005017  49.3809987   5.5825006 135.8005017
  46.4209987 108.4825006 136.0135017  47.3779987 108.4825006 136.0135017
  46.1809987 109.4095006 136.0135017  45.6939987  19.0855006 121.1015017
  46.6509987  19.0855006 121.1015017  45.4539987  20.0125006 121.1015017
  39.2549987  13.6925006 120.5775017  40.2119987  13.6925006 120.5775017
  39.0149987  14.6195006 120.5775017  38.0109987  19.0765006 125.5665017
  38.9679987  19.0765006 125.5665017  37.7709987  20.0035006 125.5665017
  38.8389987  17.1935006 127.4215017  39.7959987  17.1935006 127.4215017
  38.5989987  18.1205006 127.4215017  56.3749987  17.9965006 130.3645017
  57.3319987  17.9965006 130.3645017  56.1349987  18.9235006 130.3645017
  55.9769987  17.5865006 133.2885017  56.9339987  17.5865006 133.2885017
  55.7369987  18.5135006 133.2885017  55.7019987  11.6315006 123.4265017
  56.6589987  11.6315006 123.4265017  55.4619987  12.5585006 123.4265017
  56.0749987   9.7025006 125.2935017  57.0319987   9.7025006 125.2935017
  55.8349987  10.6295006 125.2935017  55.8279987  12.4145006 130.2715017
  56.7849987  12.4145006 130.2715017  55.5879987  13.3415006 130.2715017
  54.3709987  15.2995006 132.5625017  55.3279987  15.2995006 132.5625017
  54.1309987  16.2265006 132.5625017  56.3789987   9.5365006 121.6915017
  57.3359987   9.5365006 121.6915017  56.1389987  10.4635006 121.6915017
  54.7399987   6.7785006 120.2175017  55.6969987   6.7785006 120.2175017
  54.4999987   7.7055006 120.2175017  53.8889987   8.1875006 125.8595017
  54.8459987   8.1875006 125.8595017  53.6489987   9.1145006 125.8595017
  38.8969987  10.2675006 129.9055017  39.8539987  10.2675006 129.9055017
  38.6569987  11.1945006 129.9055017  54.7369987   9.9975006 135.0845017
  55.6939987   9.9975006 135.0845017  54.4969987  10.9245006 135.0845017
  56.2819987   8.0865006 136.1055017  57.2389987   8.0865006 136.1055017
  56.0419987   9.0135006 136.1055017  53.9689987   4.2595006 119.3695017
  54.9259987   4.2595006 119.3695017  53.7289987   5.1865006 119.3695017
  53.5439987   5.7785006 124.2875017  54.5009987   5.7785006 124.2875017
  53.3039987   6.7055006 124.2875017  54.1869987   6.3305006 129.7545017
  55.1439987   6.3305006 129.7545017  53.9469987   7.2575006 129.7545017
  54.2529987   7.0595006 132.5465017  55.2099987   7.0595006 132.5465017
  54.0129987   7.9865006 132.5465017  38.5059987   5.5525006 136.0575017
  39.4629987   5.5525006 136.0575017  38.2659987   6.4795006 136.0575017
  54.2089987   3.0595006 124.3445017  55.1659987   3.0595006 124.3445017
  53.9689987   3.9865006 124.3445017  39.6849987   3.8985006 128.9205017
  40.6419987   3.8985006 128.9205017  39.4449987   4.8255006 128.9205017
  37.9989987   6.8525006 129.9715017  38.9559987   6.8525006 129.9715017
  37.7589987   7.7795006 129.9715017  56.1279987   3.2175006 136.0655017
  57.0849987   3.2175006 136.0655017  55.8879987   4.1445006 136.0655017
  56.0639987   3.1185006 120.9335017  57.0209987   3.1185006 120.9335017
  55.8239987   4.0455006 120.9335017  38.3469987   3.0935006 124.0605017
  39.3039987   3.0935006 124.0605017  38.1069987   4.0205006 124.0605017
  53.1029987  18.0735006 125.9885017  54.0599987  18.0735006 125.9885017
  52.8629987  19.0005006 125.9885017  38.3229987   1.8275006 132.3425017
  39.2799987   1.8275006 132.3425017  38.0829987   2.7545006 132.3425017
  40.5509987  15.0965006 136.4515017  41.5079987  15.0965006 136.4515017
  40.3109987  16.0235006 136.4515017  43.4499987  15.9725006 132.7585017
  44.4069987  15.9725006 132.7585017  43.2099987  16.8995006 132.7585017
  47.7349987  17.6305006 135.4915017  48.6919987  17.6305006 135.4915017
  47.4949987  18.5575006 135.4915017  50.0959987  18.6805006 135.0045017
  51.0529987  18.6805006 135.0045017  49.8559987  19.6075006 135.0045017
  55.1509987   1.4285006 134.0235017  56.1079987   1.4285006 134.0235017
  54.9109987   2.3555006 134.0235017  40.8749987  19.2285006 132.7745017
  41.8319987  19.2285006 132.7745017  40.6349987  20.1555006 132.7745017
  43.3339987  18.8065006 131.8185017  44.2909987  18.8065006 131.8185017
  43.0939987  19.7335006 131.8185017  48.0489987  18.7075006 131.0255017
  49.0059987  18.7075006 131.0255017  47.8089987  19.6345006 131.0255017
  50.3509987  17.5575006 132.0095017  51.3079987  17.5575006 132.0095017
  50.1109987  18.4845006 132.0095017  52.9319987  19.1255006 132.2795017
  53.8889987  19.1255006 132.2795017  52.6919987  20.0525006 132.2795017
  40.3099987  17.8735006 129.7155017  41.2669987  17.8735006 129.7155017
  40.0699987  18.8005006 129.7155017  42.4049987  16.5855006 128.3695017
  43.3619987  16.5855006 128.3695017  42.1649987  17.5125006 128.3695017
  44.9969987  17.0665006 129.2425017  45.9539987  17.0665006 129.2425017
  44.7569987  17.9935006 129.2425017  48.4559987   2.7455006 128.3805017
  49.4129987   2.7455006 128.3805017  48.2159987   3.6725006 128.3805017
  53.6769987   1.0805006 128.6415017  54.6339987   1.0805006 128.6415017
  53.4369987   2.0075006 128.6415017  55.3099987   1.9945006 126.7605017
  56.2669987   1.9945006 126.7605017  55.0699987   2.9215006 126.7605017
  40.7789987   1.3255006 126.2185017  41.7359987   1.3255006 126.2185017
  40.5389987   2.2525006 126.2185017  39.8839987   1.5135006 122.3675017
  40.8409987   1.5135006 122.3675017  39.6439987   2.4405006 122.3675017
  45.3429987   1.3035006 126.0035017  46.2999987   1.3035006 126.0035017
  45.1029987   2.2305006 126.0035017  50.9349987   1.3265006 127.6505017
  51.8919987   1.3265006 127.6505017  50.6949987   2.2535006 127.6505017
  52.2889987   1.3525006 123.3935017  53.2459987   1.3525006 123.3935017
  52.0489987   2.2795006 123.3935017  39.5279987  17.0555006 122.9555017
  40.4849987  17.0555006 122.9555017  39.2879987  17.9825006 122.9555017
  41.4549987   3.0335006 120.4215017  42.4119987   3.0335006 120.4215017
  41.2149987   3.9605006 120.4215017  46.4539987   3.3085006 122.8795017
  47.4109987   3.3085006 122.8795017  46.2139987   4.2355006 122.8795017
  48.3809987  18.2855006 121.3265017  49.3379987  18.2855006 121.3265017
  48.1409987  19.2125006 121.3265017  55.1029987  17.8655006 124.0175017
  56.0599987  17.8655006 124.0175017  54.8629987  18.7925006 124.0175017
  40.6979987   1.8565006 135.7125017  41.6549987   1.8565006 135.7125017
  40.4579987   2.7835006 135.7125017  41.3229987  18.0265006 119.9205017
  42.2799987  18.0265006 119.9205017  41.0829987  18.9535006 119.9205017
  54.5189987  16.7105006 135.9025017  55.4759987  16.7105006 135.9025017
  54.2789987  17.6375006 135.9025017  68.7679987  10.4805006 126.1075017
  69.7249987  10.4805006 126.1075017  68.5279987  11.4075006 126.1075017
  67.6189987   9.7585006 129.5935017  68.5759987   9.7585006 129.5935017
  67.3789987  10.6855006 129.5935017  59.9889987   9.4025006 131.1585017
  60.9459987   9.4025006 131.1585017  59.7489987  10.3295006 131.1585017
  71.3469987  12.6765006 127.8655017  72.3039987  12.6765006 127.8655017
  71.1069987  13.6035006 127.8655017  60.9239987  13.8545006 129.6655017
  61.8809987  13.8545006 129.6655017  60.6839987  14.7815006 129.6655017
  57.5659987   7.4315006 125.1265017  58.5229987   7.4315006 125.1265017
  57.3259987   8.3585006 125.1265017  58.2629987   9.6535006 127.2595017
  59.2199987   9.6535006 127.2595017  58.0229987  10.5805006 127.2595017
  68.3839987  17.8345006 128.0435017  69.3409987  17.8345006 128.0435017
  68.1439987  18.7615006 128.0435017  66.0139987  12.1545006 130.0335017
  66.9709987  12.1545006 130.0335017  65.7739987  13.0815006 130.0335017
  74.6889987   3.7355006 130.8095017  75.6459987   3.7355006 130.8095017
  74.4489987   4.6625006 130.8095017  68.9599987   6.6225006 130.2835017
  69.9169987   6.6225006 130.2835017  68.7199987   7.5495006 130.2835017
  62.3119987   4.7025006 127.5865017  63.2689987   4.7025006 127.5865017
  62.0719987   5.6295006 127.5865017  70.0469987   4.7755006 125.9605017
  71.0039987   4.7755006 125.9605017  69.8069987   5.7025006 125.9605017
  58.9259987   7.1015006 128.3385017  59.8829987   7.1015006 128.3385017
  58.6859987   8.0285006 128.3385017  64.0809987   8.6625006 127.6165017
  65.0379987   8.6625006 127.6165017  63.8409987   9.5895006 127.6165017
  75.1129987   5.2335006 133.0595017  76.0699987   5.2335006 133.0595017
  74.8729987   6.1605006 133.0595017  61.2009987   3.5985006 131.6565017
  62.1579987   3.5985006 131.6565017  60.9609987   4.5255006 131.6565017
  68.5049987  13.0855006 125.1815017  69.4619987  13.0855006 125.1815017
  68.2649987  14.0125006 125.1815017  63.7199987  11.2395006 131.8955017
  64.6769987  11.2395006 131.8955017  63.4799987  12.1665006 131.8955017
  71.8559987   4.0865006 127.9245017  72.8129987   4.0865006 127.9245017
  71.6159987   5.0135006 127.9245017  60.7449987   5.4825006 129.6285017
  61.7019987   5.4825006 129.6285017  60.5049987   6.4095006 129.6285017
  62.1459987  13.2355006 132.6815017  63.1029987  13.2355006 132.6815017
  61.9059987  14.1625006 132.6815017  58.2459987  12.8675006 123.4965017
  59.2029987  12.8675006 123.4965017  58.0059987  13.7945006 123.4965017
  71.8649987  14.5115006 130.2395017  72.8219987  14.5115006 130.2395017
  71.6249987  15.4385006 130.2395017  72.1989987   2.7435006 131.6465017
  73.1559987   2.7435006 131.6465017  71.9589987   3.6705006 131.6465017
  65.1289987   0.9645006 128.9565017  66.0859987   0.9645006 128.9565017
  64.8889987   1.8915006 128.9565017  70.0949987  16.3165006 126.8305017
  71.0519987  16.3165006 126.8305017  69.8549987  17.2435006 126.8305017
  71.3159987  14.2355006 125.3535017  72.2729987  14.2355006 125.3535017
  71.0759987  15.1625006 125.3535017  72.9819987  12.8145006 133.8435017
  73.9389987  12.8145006 133.8435017  72.7419987  13.7415006 133.8435017
  67.4419987   9.7255006 123.6165017  68.3989987   9.7255006 123.6165017
  67.2019987  10.6525006 123.6165017  67.5039987   8.2595006 120.6265017
  68.4609987   8.2595006 120.6265017  67.2639987   9.1865006 120.6265017
  74.8649987   9.1645006 131.8915017  75.8219987   9.1645006 131.8915017
  74.6249987  10.0915006 131.8915017  70.8789987   9.9405006 124.5325017
  71.8359987   9.9405006 124.5325017  70.6389987  10.8675006 124.5325017
  70.7919987   8.0835006 133.5715017  71.7489987   8.0835006 133.5715017
  70.5519987   9.0105006 133.5715017  62.4969987  10.5965006 126.4445017
  63.4539987  10.5965006 126.4445017  62.2569987  11.5235006 126.4445017
  63.8259987  13.9905006 129.1255017  64.7829987  13.9905006 129.1255017
  63.5859987  14.9175006 129.1255017  62.8359987   9.3395006 130.0985017
  63.7929987   9.3395006 130.0985017  62.5959987  10.2665006 130.0985017
  69.1549987  14.7895006 130.7975017  70.1119987  14.7895006 130.7975017
  68.9149987  15.7165006 130.7975017  63.7309987  13.7065006 134.7915017
  64.6879987  13.7065006 134.7915017  63.4909987  14.6335006 134.7915017
  69.7449987   9.1235006 122.2075017  70.7019987   9.1235006 122.2075017
  69.5049987  10.0505006 122.2075017  60.6989987   9.9415006 134.0015017
  61.6559987   9.9415006 134.0015017  60.4589987  10.8685006 134.0015017
  67.4609987  15.8365006 125.6555017  68.4179987  15.8365006 125.6555017
  67.2209987  16.7635006 125.6555017  61.9929987  15.7665006 135.5825017
  62.9499987  15.7665006 135.5825017  61.7529987  16.6935006 135.5825017
  73.4869987   0.8985006 122.0645017  74.4439987   0.8985006 122.0645017
  73.2469987   1.8255006 122.0645017  61.4729987   9.6225006 124.0595017
  62.4299987   9.6225006 124.0595017  61.2329987  10.5495006 124.0595017
  74.5949987  15.2145006 120.4425017  75.5519987  15.2145006 120.4425017
  74.3549987  16.1415006 120.4425017  57.5739987  12.0465006 132.8985017
  58.5309987  12.0465006 132.8985017  57.3339987  12.9735006 132.8985017
  57.3209987  14.7785006 129.7295017  58.2779987  14.7785006 129.7295017
  57.0809987  15.7055006 129.7295017  75.6039987  15.4535006 135.3615017
  76.5609987  15.4535006 135.3615017  75.3639987  16.3805006 135.3615017
  66.5299987  15.0365006 134.2755017  67.4869987  15.0365006 134.2755017
  66.2899987  15.9635006 134.2755017  66.9679987  18.7785006 124.0915017
  67.9249987  18.7785006 124.0915017  66.7279987  19.7055006 124.0915017
  60.5879987  17.6365006 125.8915017  61.5449987  17.6365006 125.8915017
  60.3479987  18.5635006 125.8915017  70.0119987  17.9795006 121.0655017
  70.9689987  17.9795006 121.0655017  69.7719987  18.9065006 121.0655017
  69.7039987  17.9255006 123.8545017  70.6609987  17.9255006 123.8545017
  69.4639987  18.8525006 123.8545017  72.7029987   7.0065006 135.6885017
  73.6599987   7.0065006 135.6885017  72.4629987   7.9335006 135.6885017
  59.8319987  13.3385006 133.9035017  60.7889987  13.3385006 133.9035017
  59.5919987  14.2655006 133.9035017  62.5979987   1.9225006 129.7905017
  63.5549987   1.9225006 129.7905017  62.3579987   2.8495006 129.7905017
  67.1649987   1.5335006 133.2835017  68.1219987   1.5335006 133.2835017
  66.9249987   2.4605006 133.2835017  70.4749987   5.2795006 134.4615017
  71.4319987   5.2795006 134.4615017  70.2349987   6.2065006 134.4615017
  71.1999987  10.1585006 119.9605017  72.1569987  10.1585006 119.9605017
  70.9599987  11.0855006 119.9605017  66.8009987   4.0655006 120.5325017
  67.7579987   4.0655006 120.5325017  66.5609987   4.9925006 120.5325017
  62.5929987   6.7825006 131.0445017  63.5499987   6.7825006 131.0445017
  62.3529987   7.7095006 131.0445017  62.5709987   6.9495006 125.9465017
  63.5279987   6.9495006 125.9465017  62.3309987   7.8765006 125.9465017
  68.0929987   7.4215006 124.7355017  69.0499987   7.4215006 124.7355017
  67.8529987   8.3485006 124.7355017  67.1419987   7.4095006 135.9735017
  68.0989987   7.4095006 135.9735017  66.9019987   8.3365006 135.9735017
  69.1149987   6.9065006 127.5565017  70.0719987   6.9065006 127.5565017
  68.8749987   7.8335006 127.5565017  60.2789987   7.0655006 132.8295017
  61.2359987   7.0655006 132.8295017  60.0389987   7.9925006 132.8295017
  63.6339987   4.4935006 119.6505017  64.5909987   4.4935006 119.6505017
  63.3939987   5.4205006 119.6505017  56.8869987   4.2085006 126.7365017
  57.8439987   4.2085006 126.7365017  56.6469987   5.1355006 126.7365017
  58.1759987   4.9275006 122.1435017  59.1329987   4.9275006 122.1435017
  57.9359987   5.8545006 122.1435017  68.3069987   8.5255006 132.1705017
  69.2639987   8.5255006 132.1705017  68.0669987   9.4525006 132.1705017
  65.1329987   4.4725006 126.9755017  66.0899987   4.4725006 126.9755017
  64.8929987   5.3995006 126.9755017  59.9529987   6.0435006 125.8365017
  60.9099987   6.0435006 125.8365017  59.7129987   6.9705006 125.8365017
  63.5949987   6.0705006 123.4695017  64.5519987   6.0705006 123.4695017
  63.3549987   6.9975006 123.4695017  69.5189987   3.5785006 130.1925017
  70.4759987   3.5785006 130.1925017  69.2789987   4.5055006 130.1925017
  62.2869987   7.2505006 121.0515017  63.2439987   7.2505006 121.0515017
  62.0469987   8.1775006 121.0515017  72.7989987  19.3455006 136.5075017
  73.7559987  19.3455006 136.5075017  72.5589987  20.2725006 136.5075017
  60.2719987  11.8325006 136.0725017  61.2289987  11.8325006 136.0725017
  60.0319987  12.7595006 136.0725017  66.3959987   7.2205006 128.8475017
  67.3529987   7.2205006 128.8475017  66.1559987   8.1475006 128.8475017
  61.4199987   3.3695006 125.2875017  62.3769987   3.3695006 125.2875017
  61.1799987   4.2965006 125.2875017  65.0589987   5.5615006 131.2755017
  66.0159987   5.5615006 131.2755017  64.8189987   6.4885006 131.2755017
  65.6479987  11.7925006 122.9675017  66.6049987  11.7925006 122.9675017
  65.4079987  12.7195006 122.9675017  72.8039987  10.9995006 131.7785017
  73.7609987  10.9995006 131.7785017  72.5639987  11.9265006 131.7785017
  69.4979987   4.6015006 121.1455017  70.4549987   4.6015006 121.1455017
  69.2579987   5.5285006 121.1455017  67.0959987  12.0325006 134.1485017
  68.0529987  12.0325006 134.1485017  66.8559987  12.9595006 134.1485017
  70.2159987   6.5055006 122.7945017  71.1729987   6.5055006 122.7945017
  69.9759987   7.4325006 122.7945017  60.7509987  11.1585006 128.7685017
  61.7079987  11.1585006 128.7685017  60.5109987  12.0855006 128.7685017
  67.7539987  13.2545006 121.9995017  68.7109987  13.2545006 121.9995017
  67.5139987  14.1815006 121.9995017  57.7459987   9.5825006 134.0335017
  58.7029987   9.5825006 134.0335017  57.5059987  10.5095006 134.0335017
  64.9039987   9.4995006 135.7755017  65.8609987   9.4995006 135.7755017
  64.6639987  10.4265006 135.7755017  69.4379987  14.4675006 134.1795017
  70.3949987  14.4675006 134.1795017  69.1979987  15.3945006 134.1795017
  75.1099987   6.6685006 122.5505017  76.0669987   6.6685006 122.5505017
  74.8699987   7.5955006 122.5505017  75.0899987  12.5075006 135.3545017
  76.0469987  12.5075006 135.3545017  74.8499987  13.4345006 135.3545017
  73.3839987  15.4875006 122.9605017  74.3409987  15.4875006 122.9605017
  73.1439987  16.4145006 122.9605017  70.5949987  10.3325006 129.9895017
  71.5519987  10.3325006 129.9895017  70.3549987  11.2595006 129.9895017
  63.1259987  14.6255006 126.1535017  64.0829987  14.6255006 126.1535017
  62.8859987  15.5525006 126.1535017  58.8889987   9.4725006 120.7245017
  59.8459987   9.4725006 120.7245017  58.6489987  10.3995006 120.7245017
  64.5489987  12.2895006 125.6805017  65.5059987  12.2895006 125.6805017
  64.3089987  13.2165006 125.6805017  64.9969987  16.4675006 132.0535017
  65.9539987  16.4675006 132.0535017  64.7569987  17.3945006 132.0535017
  63.2249987  17.2955006 125.2245017  64.1819987  17.2955006 125.2245017
  62.9849987  18.2225006 125.2245017  68.5429987  12.4735006 131.7095017
  69.4999987  12.4735006 131.7095017  68.3029987  13.4005006 131.7095017
  70.8389987  13.5335006 120.7935017  71.7959987  13.5335006 120.7935017
  70.5989987  14.4605006 120.7935017  71.2899987  17.0765006 134.2065017
  72.2469987  17.0765006 134.2065017  71.0499987  18.0035006 134.2065017
  75.3159987  17.9105006 121.0335017  76.2729987  17.9105006 121.0335017
  75.0759987  18.8375006 121.0335017  59.3919987   4.3455006 133.6545017
  60.3489987   4.3455006 133.6545017  59.1519987   5.2725006 133.6545017
  71.6349987  12.1755006 123.0275017  72.5919987  12.1755006 123.0275017
  71.3949987  13.1025006 123.0275017  59.0299987  16.1125006 132.0015017
  59.9869987  16.1125006 132.0015017  58.7899987  17.0395006 132.0015017
  64.9589987  14.6175006 119.2725017  65.9159987  14.6175006 119.2725017
  64.7189987  15.5445006 119.2725017  63.7789987  14.1475006 121.7285017
  64.7359987  14.1475006 121.7285017  63.5389987  15.0745006 121.7285017
  60.2919987  11.3945006 122.2195017  61.2489987  11.3945006 122.2195017
  60.0519987  12.3215006 122.2195017  68.1099987   4.0935006 132.5385017
  69.0669987   4.0935006 132.5385017  67.8699987   5.0205006 132.5385017
  68.8959987   3.6585006 123.6185017  69.8529987   3.6585006 123.6185017
  68.6559987   4.5855006 123.6185017  66.5649987  15.8205006 122.4475017
  67.5219987  15.8205006 122.4475017  66.3249987  16.7475006 122.4475017
  66.1139987   5.3995006 124.4465017  67.0709987   5.3995006 124.4465017
  65.8739987   6.3265006 124.4465017  66.6299987   6.4055006 133.5885017
  67.5869987   6.4055006 133.5885017  66.3899987   7.3325006 133.5885017
  66.9679987   2.4765006 125.3555017  67.9249987   2.4765006 125.3555017
  66.7279987   3.4035006 125.3555017  63.9359987  16.8485006 122.4525017
  64.8929987  16.8485006 122.4525017  63.6959987  17.7755006 122.4525017
  62.6109987   3.5775006 122.0475017  63.5679987   3.5775006 122.0475017
  62.3709987   4.5045006 122.0475017  72.8509987   4.2575006 134.4045017
  73.8079987   4.2575006 134.4045017  72.6109987   5.1845006 134.4045017
  71.4519987   8.0935006 128.4845017  72.4089987   8.0935006 128.4845017
  71.2119987   9.0205006 128.4845017  60.8549987  14.0115006 121.1005017
  61.8119987  14.0115006 121.1005017  60.6149987  14.9385006 121.1005017
  59.1949987   6.6875006 120.2285017  60.1519987   6.6875006 120.2285017
  58.9549987   7.6145006 120.2285017  72.8179987  17.1915006 129.9675017
  73.7749987  17.1915006 129.9675017  72.5779987  18.1185006 129.9675017
  59.7799987   1.6735006 128.8285017  60.7369987   1.6735006 128.8285017
  59.5399987   2.6005006 128.8285017  58.9619987  15.3895006 125.1025017
  59.9189987  15.3895006 125.1025017  58.7219987  16.3165006 125.1025017
  58.0699987  18.0645006 136.3285017  59.0269987  18.0645006 136.3285017
  57.8299987  18.9915006 136.3285017  66.9649987  16.4725006 119.4075017
  67.9219987  16.4725006 119.4075017  66.7249987  17.3995006 119.4075017
  71.5359987  16.2305006 119.6055017  72.4929987  16.2305006 119.6055017
  71.2959987  17.1575006 119.6055017  62.4339987  12.1645006 119.4385017
  63.3909987  12.1645006 119.4385017  62.1939987  13.0915006 119.4385017
  67.8509987  13.2575006 119.1995017  68.8079987  13.2575006 119.1995017
  67.6109987  14.1845006 119.1995017  70.4939987  11.7415006 134.1705017
  71.4509987  11.7415006 134.1705017  70.2539987  12.6685006 134.1705017
  63.6289987  10.1725006 121.8255017  64.5859987  10.1725006 121.8255017
  63.3889987  11.0995006 121.8255017  62.9319987   8.0125006 134.1575017
  63.8889987   8.0125006 134.1575017  62.6919987   8.9395006 134.1575017
  64.7019987   8.3945006 120.0475017  65.6589987   8.3945006 120.0475017
  64.4619987   9.3215006 120.0475017  74.0579987  10.7245006 119.4765017
  75.0149987  10.7245006 119.4765017  73.8179987  11.6515006 119.4765017
  63.0899987   5.4575006 135.0655017  64.0469987   5.4575006 135.0655017
  62.8499987   6.3845006 135.0655017  63.7009987   3.7345006 132.7635017
  64.6579987   3.7345006 132.7635017  63.4609987   4.6615006 132.7635017
  65.2609987   9.2095006 132.9755017  66.2179987   9.2095006 132.9755017
  65.0209987  10.1365006 132.9755017  70.8349987   9.6235006 135.5255017
  71.7919987   9.6235006 135.5255017  70.5949987  10.5505006 135.5255017
  64.5769987   1.2545006 133.0195017  65.5339987   1.2545006 133.0195017
  64.3369987   2.1815006 133.0195017  68.4429987   4.6525006 135.8365017
  69.3999987   4.6525006 135.8365017  68.2029987   5.5795006 135.8365017
  65.2769987 108.4825006 136.0145017  66.2339987 108.4825006 136.0145017
  65.0369987 109.4095006 136.0145017  64.5509987  19.0945006 121.1155017
  65.5079987  19.0945006 121.1155017  64.3109987  20.0215006 121.1155017
  58.1109987  13.6935006 120.5775017  59.0679987  13.6935006 120.5775017
  57.8709987  14.6205006 120.5775017  56.8669987  19.0765006 125.5665017
  57.8239987  19.0765006 125.5665017  56.6269987  20.0035006 125.5665017
  57.6959987  17.1935006 127.4225017  58.6529987  17.1935006 127.4225017
  57.4559987  18.1205006 127.4225017  75.2889987  17.9825006 130.3695017
  76.2459987  17.9825006 130.3695017  75.0489987  18.9095006 130.3695017
  74.8309987  17.5845006 133.2995017  75.7879987  17.5845006 133.2995017
  74.5909987  18.5115006 133.2995017  74.5579987  11.6315006 123.4265017
  75.5149987  11.6315006 123.4265017  74.3179987  12.5585006 123.4265017
  74.9319987   9.7015006 125.2945017  75.8889987   9.7015006 125.2945017
  74.6919987  10.6285006 125.2945017  74.6829987  12.4295006 130.2645017
  75.6399987  12.4295006 130.2645017  74.4429987  13.3565006 130.2645017
  73.2259987  15.2835006 132.5775017  74.1829987  15.2835006 132.5775017
  72.9859987  16.2105006 132.5775017  75.2309987   9.5395006 121.6915017
  76.1879987   9.5395006 121.6915017  74.9909987  10.4665006 121.6915017
  73.5979987   6.7825006 120.2125017  74.5549987   6.7825006 120.2125017
  73.3579987   7.7095006 120.2125017  72.7389987   8.1865006 125.8675017
  73.6959987   8.1865006 125.8675017  72.4989987   9.1135006 125.8675017
  57.7519987  10.2665006 129.9045017  58.7089987  10.2665006 129.9045017
  57.5119987  11.1935006 129.9045017  73.5939987  10.0075006 135.0905017
  74.5509987  10.0075006 135.0905017  73.3539987  10.9345006 135.0905017
  75.1329987   8.0855006 136.1055017  76.0899987   8.0855006 136.1055017
  74.8929987   9.0125006 136.1055017  72.8249987   4.2595006 119.3705017
  73.7819987   4.2595006 119.3705017  72.5849987   5.1865006 119.3705017
  72.4029987   5.7785006 124.2955017  73.3599987   5.7785006 124.2955017
  72.1629987   6.7055006 124.2955017  73.0969987   6.3615006 129.7015017
  74.0539987   6.3615006 129.7015017  72.8569987   7.2885006 129.7015017
  73.3209987   7.1805006 132.7555017  74.2779987   7.1805006 132.7555017
  73.0809987   8.1075006 132.7555017  57.3619987   5.5525006 136.0575017
  58.3189987   5.5525006 136.0575017  57.1219987   6.4795006 136.0575017
  73.0659987   3.0585006 124.3445017  74.0229987   3.0585006 124.3445017
  72.8259987   3.9855006 124.3445017  58.5409987   3.8975006 128.9205017
  59.4979987   3.8975006 128.9205017  58.3009987   4.8245006 128.9205017
  56.8559987   6.8525006 129.9715017  57.8129987   6.8525006 129.9715017
  56.6159987   7.7795006 129.9715017  74.9799987   3.2185006 136.0645017
  75.9369987   3.2185006 136.0645017  74.7399987   4.1455006 136.0645017
  74.9209987   3.1195006 120.9345017  75.8779987   3.1195006 120.9345017
  74.6809987   4.0465006 120.9345017  57.2049987   3.0925006 124.0605017
  58.1619987   3.0925006 124.0605017  56.9649987   4.0195006 124.0605017
  71.9319987  18.1205006 125.9675017  72.8889987  18.1205006 125.9675017
  71.6919987  19.0475006 125.9675017  57.1789987   1.8285006 132.3445017
  58.1359987   1.8285006 132.3445017  56.9389987   2.7555006 132.3445017
  59.4029987  15.0945006 136.4465017  60.3599987  15.0945006 136.4465017
  59.1629987  16.0215006 136.4465017  62.3109987  15.9735006 132.7575017
  63.2679987  15.9735006 132.7575017  62.0709987  16.9005006 132.7575017
  66.5839987  17.6305006 135.4945017  67.5409987  17.6305006 135.4945017
  66.3439987  18.5575006 135.4945017  68.9469987  18.6875006 135.1165017
  69.9039987  18.6875006 135.1165017  68.7069987  19.6145006 135.1165017
  74.0079987   1.4215006 134.0325017  74.9649987   1.4215006 134.0325017
  73.7679987   2.3485006 134.0325017  59.7289987  19.2305006 132.7755017
  60.6859987  19.2305006 132.7755017  59.4889987  20.1575006 132.7755017
  62.1919987  18.8075006 131.8175017  63.1489987  18.8075006 131.8175017
  61.9519987  19.7345006 131.8175017  66.8539987  18.7155006 130.9875017
  67.8109987  18.7155006 130.9875017  66.6139987  19.6425006 130.9875017
  68.6489987  17.8895006 132.6805017  69.6059987  17.8895006 132.6805017
  68.4089987  18.8165006 132.6805017  71.9019987  19.1565006 132.3175017
  72.8589987  19.1565006 132.3175017  71.6619987  20.0835006 132.3175017
  59.1659987  17.8735006 129.7155017  60.1229987  17.8735006 129.7155017
  58.9259987  18.8005006 129.7155017  61.2589987  16.5855006 128.3685017
  62.2159987  16.5855006 128.3685017  61.0189987  17.5125006 128.3685017
  63.8239987  17.0635006 129.2395017  64.7809987  17.0635006 129.2395017
  63.5839987  17.9905006 129.2395017  67.2959987   2.7405006 128.3625017
  68.2529987   2.7405006 128.3625017  67.0559987   3.6675006 128.3625017
  72.5399987   1.0585006 128.6275017  73.4969987   1.0585006 128.6275017
  72.2999987   1.9855006 128.6275017  74.1709987   1.9935006 126.7565017
  75.1279987   1.9935006 126.7565017  73.9309987   2.9205006 126.7565017
  59.6399987   1.3245006 126.2195017  60.5969987   1.3245006 126.2195017
  59.3999987   2.2515006 126.2195017  58.7429987   1.5195006 122.3695017
  59.6999987   1.5195006 122.3695017  58.5029987   2.4465006 122.3695017
  64.1989987   1.3035006 126.0035017  65.1559987   1.3035006 126.0035017
  63.9589987   2.2305006 126.0035017  69.7909987   1.3265006 127.6505017
  70.7479987   1.3265006 127.6505017  69.5509987   2.2535006 127.6505017
  71.1449987   1.3535006 123.3945017  72.1019987   1.3535006 123.3945017
  70.9049987   2.2805006 123.3945017  58.3839987  17.0555006 122.9555017
  59.3409987  17.0555006 122.9555017  58.1439987  17.9825006 122.9555017
  60.3079987   3.0375006 120.4235017  61.2649987   3.0375006 120.4235017
  60.0679987   3.9645006 120.4235017  65.3089987   3.3085006 122.8795017
  66.2659987   3.3085006 122.8795017  65.0689987   4.2355006 122.8795017
  67.2449987  18.3375006 121.3215017  68.2019987  18.3375006 121.3215017
  67.0049987  19.2645006 121.3215017  73.9519987  17.8645006 124.0255017
  74.9089987  17.8645006 124.0255017  73.7119987  18.7915006 124.0255017
  59.5539987   1.8565006 135.7125017  60.5109987   1.8565006 135.7125017
  59.3139987   2.7835006 135.7125017  60.1789987  18.0265006 119.9195017
  61.1359987  18.0265006 119.9195017  59.9389987  18.9535006 119.9195017
  73.3749987  16.7115006 135.8995017  74.3319987  16.7115006 135.8995017
  73.1349987  17.6385006 135.8995017  87.6269987  10.4815006 126.1055017
  88.5839987  10.4815006 126.1055017  87.3869987  11.4085006 126.1055017
  86.4859987   9.7465006 129.5975017  87.4429987   9.7465006 129.5975017
  86.2459987  10.6735006 129.5975017  78.8439987   9.4025006 131.1575017
  79.8009987   9.4025006 131.1575017  78.6039987  10.3295006 131.1575017
  90.1939987  12.6875006 127.8685017  91.1509987  12.6875006 127.8685017
  89.9539987  13.6145006 127.8685017  79.7799987  13.8545006 129.6655017
  80.7369987  13.8545006 129.6655017  79.5399987  14.7815006 129.6655017
  76.4249987   7.4315006 125.1225017  77.3819987   7.4315006 125.1225017
  76.1849987   8.3585006 125.1225017  77.1189987   9.6525006 127.2585017
  78.0759987   9.6525006 127.2585017  76.8789987  10.5795006 127.2585017
  87.3059987  17.8375006 128.1065017  88.2629987  17.8375006 128.1065017
  87.0659987  18.7645006 128.1065017  84.8719987  12.1575006 130.0365017
  85.8289987  12.1575006 130.0365017  84.6319987  13.0845006 130.0365017
  93.5019987   3.7615006 130.7995017  94.4589987   3.7615006 130.7995017
  93.2619987   4.6885006 130.7995017  87.9989987   6.5875006 130.3625017
  88.9559987   6.5875006 130.3625017  87.7589987   7.5145006 130.3625017
  81.2289987   4.7085006 127.5795017  82.1859987   4.7085006 127.5795017
  80.9889987   5.6355006 127.5795017  88.8979987   4.7885006 125.9665017
  89.8549987   4.7885006 125.9665017  88.6579987   5.7155006 125.9665017
  77.7929987   7.1095006 128.3375017  78.7499987   7.1095006 128.3375017
  77.5529987   8.0365006 128.3375017  82.9319987   8.6445006 127.6285017
  83.8889987   8.6445006 127.6285017  82.6919987   9.5715006 127.6285017
  93.9299987   5.2255006 133.0555017  94.8869987   5.2255006 133.0555017
  93.6899987   6.1525006 133.0555017  80.0709987   3.6135006 131.6515017
  81.0279987   3.6135006 131.6515017  79.8309987   4.5405006 131.6515017
  87.3589987  13.0895006 125.1805017  88.3159987  13.0895006 125.1805017
  87.1189987  14.0165006 125.1805017  82.5739987  11.2405006 131.8945017
  83.5309987  11.2405006 131.8945017  82.3339987  12.1675006 131.8945017
  90.6889987   4.1055006 127.9465017  91.6459987   4.1055006 127.9465017
  90.4489987   5.0325006 127.9465017  79.6219987   5.4835006 129.6225017
  80.5789987   5.4835006 129.6225017  79.3819987   6.4105006 129.6225017
  81.0019987  13.2355006 132.6815017  81.9589987  13.2355006 132.6815017
  80.7619987  14.1625006 132.6815017  77.1029987  12.8675006 123.4955017
  78.0599987  12.8675006 123.4955017  76.8629987  13.7945006 123.4955017
  90.7189987  14.5215006 130.2395017  91.6759987  14.5215006 130.2395017
  90.4789987  15.4485006 130.2395017  91.0589987   2.7945006 131.6775017
  92.0159987   2.7945006 131.6775017  90.8189987   3.7215006 131.6775017
  83.9809987   0.9715006 128.9575017  84.9379987   0.9715006 128.9575017
  83.7409987   1.8985006 128.9575017  88.9759987  16.3015006 126.8605017
  89.9329987  16.3015006 126.8605017  88.7359987  17.2285006 126.8605017
  90.1709987  14.2335006 125.3505017  91.1279987  14.2335006 125.3505017
  89.9309987  15.1605006 125.3505017  91.8379987  12.8125006 133.8435017
  92.7949987  12.8125006 133.8435017  91.5979987  13.7395006 133.8435017
  86.3139987   9.7135006 123.6085017  87.2709987   9.7135006 123.6085017
  86.0739987  10.6405006 123.6085017  86.3709987   8.2675006 120.6235017
  87.3279987   8.2675006 120.6235017  86.1309987   9.1945006 120.6235017
  93.6819987   9.1215006 131.8835017  94.6389987   9.1215006 131.8835017
  93.4419987  10.0485006 131.8835017  89.7209987   9.8975006 124.5145017
  90.6779987   9.8975006 124.5145017  89.4809987  10.8245006 124.5145017
  89.6469987   8.0445006 133.5305017  90.6039987   8.0445006 133.5305017
  89.4069987   8.9715006 133.5305017  81.3529987  10.5965006 126.4475017
  82.3099987  10.5965006 126.4475017  81.1129987  11.5235006 126.4475017
  82.6849987  13.9925006 129.1255017  83.6419987  13.9925006 129.1255017
  82.4449987  14.9195006 129.1255017  81.7199987   9.3075006 130.1015017
  82.6769987   9.3075006 130.1015017  81.4799987  10.2345006 130.1015017
  88.0819987  14.9015006 130.8165017  89.0389987  14.9015006 130.8165017
  87.8419987  15.8285006 130.8165017  82.5879987  13.7065006 134.7915017
  83.5449987  13.7065006 134.7915017  82.3479987  14.6335006 134.7915017
  88.6789987   9.0535006 122.1885017  89.6359987   9.0535006 122.1885017
  88.4389987   9.9805006 122.1885017  79.5539987   9.9415006 134.0015017
  80.5109987   9.9415006 134.0015017  79.3139987  10.8685006 134.0015017
  86.3289987  15.8555006 125.6515017  87.2859987  15.8555006 125.6515017
  86.0889987  16.7825006 125.6515017  80.8489987  15.7665006 135.5825017
  81.8059987  15.7665006 135.5825017  80.6089987  16.6935006 135.5825017
  92.3439987   0.8985006 122.0645017  93.3009987   0.8985006 122.0645017
  92.1039987   1.8255006 122.0645017  80.3329987   9.6235006 124.0525017
  81.2899987   9.6235006 124.0525017  80.0929987  10.5505006 124.0525017
  93.4499987  15.2125006 120.4405017  94.4069987  15.2125006 120.4405017
  93.2099987  16.1395006 120.4405017  76.4389987  12.0505006 132.9025017
  77.3959987  12.0505006 132.9025017  76.1989987  12.9775006 132.9025017
  76.1779987  14.7795006 129.7285017  77.1349987  14.7795006 129.7285017
  75.9379987  15.7065006 129.7285017  94.4599987  15.4535006 135.3605017
  95.4169987  15.4535006 135.3605017  94.2199987  16.3805006 135.3605017
  85.3929987  15.0535006 134.2615017  86.3499987  15.0535006 134.2615017
  85.1529987  15.9805006 134.2615017  85.7919987  18.7825006 124.1255017
  86.7489987  18.7825006 124.1255017  85.5519987  19.7095006 124.1255017
  79.4459987  17.6365006 125.8915017  80.4029987  17.6365006 125.8915017
  79.2059987  18.5635006 125.8915017  89.4929987  17.9255006 121.4435017
  90.4499987  17.9255006 121.4435017  89.2529987  18.8525006 121.4435017
  88.5399987  17.9275006 123.9015017  89.4969987  17.9275006 123.9015017
  88.2999987  18.8545006 123.9015017  91.5579987   7.0035006 135.6835017
  92.5149987   7.0035006 135.6835017  91.3179987   7.9305006 135.6835017
  78.6879987  13.3415006 133.9035017  79.6449987  13.3415006 133.9035017
  78.4479987  14.2685006 133.9035017  81.4509987   1.9555006 129.7695017
  82.4079987   1.9555006 129.7695017  81.2109987   2.8825006 129.7695017
  86.0299987   1.5515006 133.2845017  86.9869987   1.5515006 133.2845017
  85.7899987   2.4785006 133.2845017  89.2879987   5.2935006 134.0945017
  90.2449987   5.2935006 134.0945017  89.0479987   6.2205006 134.0945017
  90.1069987  10.0805006 119.9895017  91.0639987  10.0805006 119.9895017
  89.8669987  11.0075006 119.9895017  85.6589987   4.0655006 120.5325017
  86.6159987   4.0655006 120.5325017  85.4189987   4.9925006 120.5325017
  81.4639987   6.7795006 131.0175017  82.4209987   6.7795006 131.0175017
  81.2239987   7.7065006 131.0175017  81.4439987   6.9125006 125.9695017
  82.4009987   6.9125006 125.9695017  81.2039987   7.8395006 125.9695017
  86.9459987   7.4245006 124.7475017  87.9029987   7.4245006 124.7475017
  86.7059987   8.3515006 124.7475017  86.0069987   7.4035006 135.9675017
  86.9639987   7.4035006 135.9675017  85.7669987   8.3305006 135.9675017
  87.9349987   6.8875006 127.5775017  88.8919987   6.8875006 127.5775017
  87.6949987   7.8145006 127.5775017  79.1499987   7.0595006 132.8235017
  80.1069987   7.0595006 132.8235017  78.9099987   7.9865006 132.8235017
  82.4899987   4.4945006 119.6515017  83.4469987   4.4945006 119.6515017
  82.2499987   5.4215006 119.6515017  75.7449987   4.2095006 126.7375017
  76.7019987   4.2095006 126.7375017  75.5049987   5.1365006 126.7375017
  77.0319987   4.9275006 122.1435017  77.9889987   4.9275006 122.1435017
  76.7919987   5.8545006 122.1435017  87.1669987   8.5115006 132.1685017
  88.1239987   8.5115006 132.1685017  86.9269987   9.4385006 132.1685017
  84.0229987   4.3665006 126.8965017  84.9799987   4.3665006 126.8965017
  83.7829987   5.2935006 126.8965017  78.8239987   6.0395006 125.8445017
  79.7809987   6.0395006 125.8445017  78.5839987   6.9665006 125.8445017
  82.4499987   6.0825006 123.5055017  83.4069987   6.0825006 123.5055017
  82.2099987   7.0095006 123.5055017  88.3969987   3.6935006 130.2085017
  89.3539987   3.6935006 130.2085017  88.1569987   4.6205006 130.2085017
  81.1439987   7.2485006 121.0525017  82.1009987   7.2485006 121.0525017
  80.9039987   8.1755006 121.0525017  91.6449987  19.3425006 136.4965017
  92.6019987  19.3425006 136.4965017  91.4049987  20.2695006 136.4965017
  79.1269987  11.8325006 136.0715017  80.0839987  11.8325006 136.0715017
  78.8869987  12.7595006 136.0715017  85.3429987   7.2645006 128.8755017
  86.2999987   7.2645006 128.8755017  85.1029987   8.1915006 128.8755017
  80.2979987   3.3725006 125.3145017  81.2549987   3.3725006 125.3145017
  80.0579987   4.2995006 125.3145017  83.9159987   5.5995006 131.2515017
  84.8729987   5.5995006 131.2515017  83.6759987   6.5265006 131.2515017
  84.5089987  11.7715006 122.9805017  85.4659987  11.7715006 122.9805017
  84.2689987  12.6985006 122.9805017  91.6579987  10.9785006 131.7765017
  92.6149987  10.9785006 131.7765017  91.4179987  11.9055006 131.7765017
  88.3589987   4.6075006 121.1435017  89.3159987   4.6075006 121.1435017
  88.1189987   5.5345006 121.1435017  85.9529987  12.0315006 134.1485017
  86.9099987  12.0315006 134.1485017  85.7129987  12.9585006 134.1485017
  89.0569987   6.4865006 122.7885017  90.0139987   6.4865006 122.7885017
  88.8169987   7.4135006 122.7885017  79.6059987  11.1635006 128.7665017
  80.5629987  11.1635006 128.7665017  79.3659987  12.0905006 128.7665017
  86.6119987  13.2435006 122.0185017  87.5689987  13.2435006 122.0185017
  86.3719987  14.1705006 122.0185017  76.6049987   9.5825006 134.0345017
  77.5619987   9.5825006 134.0345017  76.3649987  10.5095006 134.0345017
  83.7709987   9.4955006 135.7755017  84.7279987   9.4955006 135.7755017
  83.5309987  10.4225006 135.7755017  88.2919987  14.4885006 134.1745017
  89.2489987  14.4885006 134.1745017  88.0519987  15.4155006 134.1745017
  93.8929987   6.6915006 122.5715017  94.8499987   6.6915006 122.5715017
  93.6529987   7.6185006 122.5715017  93.9409987  12.5085006 135.3505017
  94.8979987  12.5085006 135.3505017  93.7009987  13.4355006 135.3505017
  92.2619987  15.4805006 122.9705017  93.2189987  15.4805006 122.9705017
  92.0219987  16.4075006 122.9705017  89.4509987  10.3185006 130.0165017
  90.4079987  10.3185006 130.0165017  89.2109987  11.2455006 130.0165017
  81.9789987  14.6215006 126.1555017  82.9359987  14.6215006 126.1555017
  81.7389987  15.5485006 126.1555017  77.7429987   9.4715006 120.7235017
  78.6999987   9.4715006 120.7235017  77.5029987  10.3985006 120.7235017
  83.4049987  12.2905006 125.6815017  84.3619987  12.2905006 125.6815017
  83.1649987  13.2175006 125.6815017  83.8609987  16.4685006 132.0455017
  84.8179987  16.4685006 132.0455017  83.6209987  17.3955006 132.0455017
  82.0819987  17.2885006 125.2395017  83.0389987  17.2885006 125.2395017
  81.8419987  18.2155006 125.2395017  87.4189987  12.5095006 131.7095017
  88.3759987  12.5095006 131.7095017  87.1789987  13.4365006 131.7095017
  89.6959987  13.5175006 120.7845017  90.6529987  13.5175006 120.7845017
  89.4559987  14.4445006 120.7845017  90.1219987  17.0825006 134.2055017
  91.0789987  17.0825006 134.2055017  89.8819987  18.0095006 134.2055017
  94.1839987  17.9055006 121.0465017  95.1409987  17.9055006 121.0465017
  93.9439987  18.8325006 121.0465017  78.2489987   4.3445006 133.6525017
  79.2059987   4.3445006 133.6525017  78.0089987   5.2715006 133.6525017
  90.4959987  12.1465006 123.0085017  91.4529987  12.1465006 123.0085017
  90.2559987  13.0735006 123.0085017  77.8869987  16.1125006 132.0025017
  78.8439987  16.1125006 132.0025017  77.6469987  17.0395006 132.0025017
  83.9299987  14.4235006 119.4105017  84.8869987  14.4235006 119.4105017
  83.6899987  15.3505006 119.4105017  82.6229987  14.1615006 121.7165017
  83.5799987  14.1615006 121.7165017  82.3829987  15.0885006 121.7165017
  79.1399987  11.3865006 122.2215017  80.0969987  11.3865006 122.2215017
  78.8999987  12.3135006 122.2215017  86.9769987   4.0835006 132.5085017
  87.9339987   4.0835006 132.5085017  86.7369987   5.0105006 132.5085017
  87.7499987   3.6655006 123.6195017  88.7069987   3.6655006 123.6195017
  87.5099987   4.5925006 123.6195017  85.3949987  15.7935006 122.4235017
  86.3519987  15.7935006 122.4235017  85.1549987  16.7205006 122.4235017
  84.9639987   5.4115006 124.4465017  85.9209987   5.4115006 124.4465017
  84.7239987   6.3385006 124.4465017  85.5109987   6.4125006 133.5565017
  86.4679987   6.4125006 133.5565017  85.2709987   7.3395006 133.5565017
  85.8259987   2.4795006 125.3635017  86.7829987   2.4795006 125.3635017
  85.5859987   3.4065006 125.3635017  82.7649987  16.8525006 122.4485017
  83.7219987  16.8525006 122.4485017  82.5249987  17.7795006 122.4485017
  81.4659987   3.5775006 122.0485017  82.4229987   3.5775006 122.0485017
  81.2259987   4.5045006 122.0485017  91.6989987   4.2785006 134.4055017
  92.6559987   4.2785006 134.4055017  91.4589987   5.2055006 134.4055017
  90.2979987   8.0925006 128.5075017  91.2549987   8.0925006 128.5075017
  90.0579987   9.0195006 128.5075017  79.7169987  14.0305006 121.0815017
  80.6739987  14.0305006 121.0815017  79.4769987  14.9575006 121.0815017
  78.0509987   6.6855006 120.2335017  79.0079987   6.6855006 120.2335017
  77.8109987   7.6125006 120.2335017  91.3649987  17.3385006 130.1545017
  92.3219987  17.3385006 130.1545017  91.1249987  18.2655006 130.1545017
  78.6349987   1.6735006 128.8285017  79.5919987   1.6735006 128.8285017
  78.3949987   2.6005006 128.8285017  77.8179987  15.3895006 125.1025017
  78.7749987  15.3895006 125.1025017  77.5779987  16.3165006 125.1025017
  76.9259987  18.0645006 136.3295017  77.8829987  18.0645006 136.3295017
  76.6859987  18.9915006 136.3295017  85.4869987  16.2475006 119.1545017
  86.4439987  16.2475006 119.1545017  85.2469987  17.1745006 119.1545017
  90.3979987  16.1925006 119.5665017  91.3549987  16.1925006 119.5665017
  90.1579987  17.1195006 119.5665017  81.2969987  12.1875006 119.4345017
  82.2539987  12.1875006 119.4345017  81.0569987  13.1145006 119.4345017
  86.6869987  13.2485006 119.1935017  87.6439987  13.2485006 119.1935017
  86.4469987  14.1755006 119.1935017  89.3489987  11.7405006 134.1735017
  90.3059987  11.7405006 134.1735017  89.1089987  12.6675006 134.1735017
  82.4859987  10.1715006 121.8275017  83.4429987  10.1715006 121.8275017
  82.2459987  11.0985006 121.8275017  81.7869987   8.0135006 134.1625017
  82.7439987   8.0135006 134.1625017  81.5469987   8.9405006 134.1625017
  83.5579987   8.3955006 120.0465017  84.5149987   8.3955006 120.0465017
  83.3179987   9.3225006 120.0465017  92.8959987  10.7145006 119.4835017
  93.8529987  10.7145006 119.4835017  92.6559987  11.6415006 119.4835017
  81.9459987   5.4565006 135.0675017  82.9029987   5.4565006 135.0675017
  81.7059987   6.3835006 135.0675017  82.5599987   3.7385006 132.7525017
  83.5169987   3.7385006 132.7525017  82.3199987   4.6655006 132.7525017
  84.1029987   9.1935006 132.9545017  85.0599987   9.1935006 132.9545017
  83.8629987  10.1205006 132.9545017  89.7019987   9.6025006 135.4965017
  90.6589987   9.6025006 135.4965017  89.4619987  10.5295006 135.4965017
  83.4339987   1.2495006 133.0215017  84.3909987   1.2495006 133.0215017
  83.1939987   2.1765006 133.0215017  87.3329987   4.6535006 135.8005017
  88.2899987   4.6535006 135.8005017  87.0929987   5.5805006 135.8005017
  84.1319987 108.4835006 136.0145017  85.0889987 108.4835006 136.0145017
  83.8919987 109.4105006 136.0145017  83.3919987  19.0865006 121.0885017
  84.3489987  19.0865006 121.0885017  83.1519987  20.0135006 121.0885017
  76.9749987  13.7035006 120.5645017  77.9319987  13.7035006 120.5645017
  76.7349987  14.6305006 120.5645017  75.7189987  19.0775006 125.5715017
  76.6759987  19.0775006 125.5715017  75.4789987  20.0045006 125.5715017
  76.5539987  17.1935006 127.4205017  77.5109987  17.1935006 127.4205017
  76.3139987  18.1205006 127.4205017  94.0869987  17.9965006 130.3645017
  95.0439987  17.9965006 130.3645017  93.8469987  18.9235006 130.3645017
  93.6899987  17.5855006 133.2885017  94.6469987  17.5855006 133.2885017
  93.4499987  18.5125006 133.2885017  93.4159987  11.6095006 123.4145017
  94.3729987  11.6095006 123.4145017  93.1759987  12.5365006 123.4145017
  93.7809987   9.6895006 125.2865017  94.7379987   9.6895006 125.2865017
  93.5409987  10.6165006 125.2865017  93.5399987  12.4145006 130.2715017
  94.4969987  12.4145006 130.2715017  93.2999987  13.3415006 130.2715017
  92.0829987  15.2995006 132.5625017  93.0399987  15.2995006 132.5625017
  91.8429987  16.2265006 132.5625017  94.0279987   9.5025006 121.7095017
  94.9849987   9.5025006 121.7095017  93.7879987  10.4295006 121.7095017
  92.4559987   6.7825006 120.1775017  93.4129987   6.7825006 120.1775017
  92.2159987   7.7095006 120.1775017  91.5759987   8.1835006 125.8325017
  92.5329987   8.1835006 125.8325017  91.3359987   9.1105006 125.8325017
  76.6039987  10.2665006 129.9095017  77.5609987  10.2665006 129.9095017
  76.3639987  11.1935006 129.9095017  92.4489987   9.9975006 135.0845017
  93.4059987   9.9975006 135.0845017  92.2089987  10.9245006 135.0845017
  93.9939987   8.0865006 136.1055017  94.9509987   8.0865006 136.1055017
  93.7539987   9.0135006 136.1055017  91.6649987   4.2945006 119.4075017
  92.6219987   4.2945006 119.4075017  91.4249987   5.2215006 119.4075017
  91.2629987   5.7915006 124.2405017  92.2199987   5.7915006 124.2405017
  91.0229987   6.7185006 124.2405017  91.8979987   6.3315006 129.7545017
  92.8549987   6.3315006 129.7545017  91.6579987   7.2585006 129.7545017
  91.9649987   7.0595006 132.5455017  92.9219987   7.0595006 132.5455017
  91.7249987   7.9865006 132.5455017  76.2269987   5.5545006 136.0605017
  77.1839987   5.5545006 136.0605017  75.9869987   6.4815006 136.0605017
  91.9189987   3.0735006 124.3395017  92.8759987   3.0735006 124.3395017
  91.6789987   4.0005006 124.3395017  77.3949987   3.8965006 128.9165017
  78.3519987   3.8965006 128.9165017  77.1549987   4.8235006 128.9165017
  75.7289987   6.8505006 129.9735017  76.6859987   6.8505006 129.9735017
  75.4889987   7.7775006 129.9735017  93.8399987   3.2175006 136.0655017
  94.7969987   3.2175006 136.0655017  93.5999987   4.1445006 136.0655017
  93.7689987   3.1375006 120.9295017  94.7259987   3.1375006 120.9295017
  93.5289987   4.0645006 120.9295017  76.0599987   3.0935006 124.0605017
  77.0169987   3.0935006 124.0605017  75.8199987   4.0205006 124.0605017
  90.8109987  18.0725006 125.9875017  91.7679987  18.0725006 125.9875017
  90.5709987  18.9995006 125.9875017  76.0289987   1.8385006 132.3405017
  76.9859987   1.8385006 132.3405017  75.7889987   2.7655006 132.3405017
  78.2589987  15.0945006 136.4465017  79.2159987  15.0945006 136.4465017
  78.0189987  16.0215006 136.4465017  81.1619987  15.9725006 132.7585017
  82.1189987  15.9725006 132.7585017  80.9219987  16.8995006 132.7585017
  85.4459987  17.6335006 135.4935017  86.4029987  17.6335006 135.4935017
  85.2059987  18.5605006 135.4935017  87.8089987  18.6815006 135.0025017
  88.7659987  18.6815006 135.0025017  87.5689987  19.6085006 135.0025017
  92.8629987   1.4285006 134.0235017  93.8199987   1.4285006 134.0235017
  92.6229987   2.3555006 134.0235017  78.5859987  19.2305006 132.7745017
  79.5429987  19.2305006 132.7745017  78.3459987  20.1575006 132.7745017
  81.0489987  18.8075006 131.8195017  82.0059987  18.8075006 131.8195017
  80.8089987  19.7345006 131.8195017  85.7619987  18.7145006 131.0195017
  86.7189987  18.7145006 131.0195017  85.5219987  19.6415006 131.0195017
  88.0629987  17.5575006 132.0095017  89.0199987  17.5575006 132.0095017
  87.8229987  18.4845006 132.0095017  90.6419987  19.1235006 132.2795017
  91.5989987  19.1235006 132.2795017  90.4019987  20.0505006 132.2795017
  78.0269987  17.8765006 129.7165017  78.9839987  17.8765006 129.7165017
  77.7869987  18.8035006 129.7165017  80.1169987  16.5855006 128.3695017
  81.0739987  16.5855006 128.3695017  79.8769987  17.5125006 128.3695017
  82.7099987  17.0665006 129.2425017  83.6669987  17.0665006 129.2425017
  82.4699987  17.9935006 129.2425017  86.1389987   2.7615006 128.3655017
  87.0959987   2.7615006 128.3655017  85.8989987   3.6885006 128.3655017
  91.3879987   1.0805006 128.6415017  92.3449987   1.0805006 128.6415017
  91.1479987   2.0075006 128.6415017  93.0209987   1.9935006 126.7585017
  93.9779987   1.9935006 126.7585017  92.7809987   2.9205006 126.7585017
  78.4959987   1.3255006 126.2185017  79.4529987   1.3255006 126.2185017
  78.2559987   2.2525006 126.2185017  77.5989987   1.5185006 122.3685017
  78.5559987   1.5185006 122.3685017  77.3589987   2.4455006 122.3685017
  83.0489987   1.3265006 126.0125017  84.0059987   1.3265006 126.0125017
  82.8089987   2.2535006 126.0125017  88.6459987   1.3295006 127.6505017
  89.6029987   1.3295006 127.6505017  88.4059987   2.2565006 127.6505017
  90.0009987   1.3525006 123.3955017  90.9579987   1.3525006 123.3955017
  89.7609987   2.2795006 123.3955017  77.2389987  17.0525006 122.9565017
  78.1959987  17.0525006 122.9565017  76.9989987  17.9795006 122.9565017
  79.1639987   3.0375006 120.4235017  80.1209987   3.0375006 120.4235017
  78.9239987   3.9645006 120.4235017  84.1689987   3.3045006 122.8725017
  85.1259987   3.3045006 122.8725017  83.9289987   4.2315006 122.8725017
  85.8709987  18.3645006 121.5715017  86.8279987  18.3645006 121.5715017
  85.6309987  19.2915006 121.5715017  92.8189987  17.8615006 124.0225017
  93.7759987  17.8615006 124.0225017  92.5789987  18.7885006 124.0225017
  78.4099987   1.8545006 135.7125017  79.3669987   1.8545006 135.7125017
  78.1699987   2.7815006 135.7125017  79.0339987  18.0005006 119.9175017
  79.9909987  18.0005006 119.9175017  78.7939987  18.9275006 119.9175017
  92.2309987  16.7105006 135.9015017  93.1879987  16.7105006 135.9015017
  91.9909987  17.6375006 135.9015017 106.4689987  10.4515006 126.0785017
 107.4259987  10.4515006 126.0785017 106.2289987  11.3785006 126.0785017
 105.2629987   9.7535006 129.6035017 106.2199987   9.7535006 129.6035017
 105.0229987  10.6805006 129.6035017  97.7009987   9.4035006 131.1585017
  98.6579987   9.4035006 131.1585017  97.4609987  10.3305006 131.1585017
  98.6359987  13.8545006 129.6655017  99.5929987  13.8545006 129.6655017
  98.3959987  14.7815006 129.6655017  95.2659987   7.4355006 125.1155017
  96.2229987   7.4355006 125.1155017  95.0259987   8.3625006 125.1155017
  95.9739987   9.6515006 127.2575017  96.9309987   9.6515006 127.2575017
  95.7339987  10.5785006 127.2575017 106.1839987  17.8045006 128.0835017
 107.1409987  17.8045006 128.0835017 105.9439987  18.7315006 128.0835017
 103.6989987  12.1415006 130.0265017 104.6559987  12.1415006 130.0265017
 103.4589987  13.0685006 130.0265017 106.2099987   6.3505006 130.2795017
 107.1669987   6.3505006 130.2795017 105.9699987   7.2775006 130.2795017
  99.8939987   4.6435006 127.5825017 100.8509987   4.6435006 127.5825017
  99.6539987   5.5705006 127.5825017 107.7089987   5.2835006 125.5745017
 108.6659987   5.2835006 125.5745017 107.4689987   6.2105006 125.5745017
  96.6489987   7.1115006 128.3355017  97.6059987   7.1115006 128.3355017
  96.4089987   8.0385006 128.3355017 101.7919987   8.6665006 127.6155017
 102.7489987   8.6665006 127.6155017 101.5519987   9.5935006 127.6155017
  98.9259987   3.6095006 131.6475017  99.8829987   3.6095006 131.6475017
  98.6859987   4.5365006 131.6475017 106.2329987  13.0905006 125.1935017
 107.1899987  13.0905006 125.1935017 105.9929987  14.0175006 125.1935017
 101.4339987  11.2405006 131.8945017 102.3909987  11.2405006 131.8945017
 101.1939987  12.1675006 131.8945017  98.4549987   5.4925006 129.6275017
  99.4119987   5.4925006 129.6275017  98.2149987   6.4195006 129.6275017
  99.8569987  13.2355006 132.6815017 100.8139987  13.2355006 132.6815017
  99.6169987  14.1625006 132.6815017  95.9569987  12.8675006 123.4965017
  96.9139987  12.8675006 123.4965017  95.7169987  13.7945006 123.4965017
 102.8399987   0.9785006 128.9575017 103.7969987   0.9785006 128.9575017
 102.5999987   1.9055006 128.9575017 107.5019987  16.1315006 126.4375017
 108.4589987  16.1315006 126.4375017 107.2619987  17.0585006 126.4375017
 105.1299987   9.7205006 123.5975017 106.0869987   9.7205006 123.5975017
 104.8899987  10.6475006 123.5975017 105.1939987   8.2505006 120.6195017
 106.1509987   8.2505006 120.6195017 104.9539987   9.1775006 120.6195017
 100.1929987  10.5885006 126.4485017 101.1499987  10.5885006 126.4485017
  99.9529987  11.5155006 126.4485017 101.5389987  13.9915006 129.1275017
 102.4959987  13.9915006 129.1275017 101.2989987  14.9185006 129.1275017
 100.5649987   9.3225006 130.0985017 101.5219987   9.3225006 130.0985017
 100.3249987  10.2495006 130.0985017 106.5379987  14.9285006 130.8685017
 107.4949987  14.9285006 130.8685017 106.2979987  15.8555006 130.8685017
 101.4439987  13.7055006 134.7895017 102.4009987  13.7055006 134.7895017
 101.2039987  14.6325006 134.7895017 107.4559987   9.1095006 122.2195017
 108.4129987   9.1095006 122.2195017 107.2159987  10.0365006 122.2195017
  98.4109987   9.9415006 134.0015017  99.3679987   9.9415006 134.0015017
  98.1709987  10.8685006 134.0015017 105.0809987  15.8445006 125.6575017
 106.0379987  15.8445006 125.6575017 104.8409987  16.7715006 125.6575017
  99.7039987  15.7675006 135.5815017 100.6609987  15.7675006 135.5815017
  99.4639987  16.6945006 135.5815017  99.1879987   9.6105006 124.0685017
 100.1449987   9.6105006 124.0685017  98.9479987  10.5375006 124.0685017
  95.2859987  12.0465006 132.8985017  96.2429987  12.0465006 132.8985017
  95.0459987  12.9735006 132.8985017  95.0319987  14.7805006 129.7285017
  95.9889987  14.7805006 129.7285017  94.7919987  15.7075006 129.7285017
 104.2649987  15.0635006 134.2785017 105.2219987  15.0635006 134.2785017
 104.0249987  15.9905006 134.2785017 104.6659987  18.7745006 124.0965017
 105.6229987  18.7745006 124.0965017 104.4259987  19.7015006 124.0965017
  98.3019987  17.6375006 125.8925017  99.2589987  17.6375006 125.8925017
  98.0619987  18.5645006 125.8925017 107.6949987  17.9185006 121.0295017
 108.6519987  17.9185006 121.0295017 107.4549987  18.8455006 121.0295017
 107.2409987  17.7265006 123.6765017 108.1979987  17.7265006 123.6765017
 107.0009987  18.6535006 123.6765017  97.5439987  13.3385006 133.9035017
  98.5009987  13.3385006 133.9035017  97.3039987  14.2655006 133.9035017
 100.3089987   1.9545006 129.7645017 101.2659987   1.9545006 129.7645017
 100.0689987   2.8815006 129.7645017 104.9119987   1.5375006 133.2905017
 105.8689987   1.5375006 133.2905017 104.6719987   2.4645006 133.2905017
 104.5339987   4.0535006 120.5545017 105.4909987   4.0535006 120.5545017
 104.2939987   4.9805006 120.5545017 100.2929987   6.7785006 131.0115017
 101.2499987   6.7785006 131.0115017 100.0529987   7.7055006 131.0115017
 100.3019987   6.8935006 125.9645017 101.2589987   6.8935006 125.9645017
 100.0619987   7.8205006 125.9645017 105.7689987   7.4275006 124.7395017
 106.7259987   7.4275006 124.7395017 105.5289987   8.3545006 124.7395017
 104.8479987   7.4255006 135.9905017 105.8049987   7.4255006 135.9905017
 104.6079987   8.3525006 135.9905017 106.7379987   6.8755006 127.5615017
 107.6949987   6.8755006 127.5615017 106.4979987   7.8025006 127.5615017
  97.9899987   7.0655006 132.8285017  98.9469987   7.0655006 132.8285017
  97.7499987   7.9925006 132.8285017 101.3459987   4.4965006 119.6515017
 102.3029987   4.4965006 119.6515017 101.1059987   5.4235006 119.6515017
  94.6009987   4.2085006 126.7375017  95.5579987   4.2085006 126.7375017
  94.3609987   5.1355006 126.7375017  95.8709987   4.9325006 122.1355017
  96.8279987   4.9325006 122.1355017  95.6309987   5.8595006 122.1355017
 106.0459987   8.5055006 132.2005017 107.0029987   8.5055006 132.2005017
 105.8059987   9.4325006 132.2005017 103.0239987   4.1645006 126.8965017
 103.9809987   4.1645006 126.8965017 102.7839987   5.0915006 126.8965017
  97.6809987   6.0435006 125.8345017  98.6379987   6.0435006 125.8345017
  97.4409987   6.9705006 125.8345017 101.3079987   6.0905006 123.5075017
 102.2649987   6.0905006 123.5075017 101.0679987   7.0175006 123.5075017
 107.2399987   3.6615006 130.2575017 108.1969987   3.6615006 130.2575017
 106.9999987   4.5885006 130.2575017 100.0029987   7.2485006 121.0525017
 100.9599987   7.2485006 121.0525017  99.7629987   8.1755006 121.0525017
  97.9829987  11.8335006 136.0735017  98.9399987  11.8335006 136.0735017
  97.7429987  12.7605006 136.0735017 104.0269987   7.1415006 128.7785017
 104.9839987   7.1415006 128.7785017 103.7869987   8.0685006 128.7785017
  99.1599987   3.3725006 125.3095017 100.1169987   3.3725006 125.3095017
  98.9199987   4.2995006 125.3095017 102.7579987   5.5795006 131.2405017
 103.7149987   5.5795006 131.2405017 102.5179987   6.5065006 131.2405017
 103.3709987  11.8085006 122.9555017 104.3279987  11.8085006 122.9555017
 103.1309987  12.7355006 122.9555017 107.1709987   4.6205006 121.1675017
 108.1279987   4.6205006 121.1675017 106.9309987   5.5475006 121.1675017
 104.8439987  12.0105006 134.1675017 105.8009987  12.0105006 134.1675017
 104.6039987  12.9375006 134.1675017   0.1009987   6.6165006 122.8545017
   1.0579987   6.6165006 122.8545017  -0.1390013   7.5435006 122.8545017
  98.4539987  11.1655006 128.7665017  99.4109987  11.1655006 128.7665017
  98.2139987  12.0925006 128.7665017 105.4329987  13.2705006 121.9495017
 106.3899987  13.2705006 121.9495017 105.1929987  14.1975006 121.9495017
  95.4579987   9.5825006 134.0335017  96.4149987   9.5825006 134.0335017
  95.2179987  10.5095006 134.0335017 102.6189987   9.4925006 135.7745017
 103.5759987   9.4925006 135.7745017 102.3789987  10.4195006 135.7745017
 107.1609987  14.5395006 134.1485017 108.1179987  14.5395006 134.1485017
 106.9209987  15.4665006 134.1485017 100.8369987  14.6245006 126.1535017
 101.7939987  14.6245006 126.1535017 100.5969987  15.5515006 126.1535017
  96.5839987   9.4625006 120.7345017  97.5409987   9.4625006 120.7345017
  96.3439987  10.3895006 120.7345017 102.2529987  12.2915006 125.6795017
 103.2099987  12.2915006 125.6795017 102.0129987  13.2185006 125.6795017
 102.7089987  16.4655006 132.0455017 103.6659987  16.4655006 132.0455017
 102.4689987  17.3925006 132.0455017 100.9369987  17.2915006 125.2165017
 101.8939987  17.2915006 125.2165017 100.6969987  18.2185006 125.2165017
 106.2749987  12.4855006 131.7115017 107.2319987  12.4855006 131.7115017
 106.0349987  13.4125006 131.7115017  97.1039987   4.3455006 133.6525017
  98.0609987   4.3455006 133.6525017  96.8639987   5.2725006 133.6525017
  96.7409987  16.1125006 132.0025017  97.6979987  16.1125006 132.0025017
  96.5009987  17.0395006 132.0025017 102.7399987  14.5975006 119.2805017
 103.6969987  14.5975006 119.2805017 102.4999987  15.5245006 119.2805017
 101.5339987  14.1535006 121.7145017 102.4909987  14.1535006 121.7145017
 101.2939987  15.0805006 121.7145017  98.0039987  11.3935006 122.2205017
  98.9609987  11.3935006 122.2205017  97.7639987  12.3205006 122.2205017
 105.8419987   4.0805006 132.5215017 106.7989987   4.0805006 132.5215017
 105.6019987   5.0075006 132.5215017 106.3289987   3.8875006 123.5955017
 107.2859987   3.8875006 123.5955017 106.0889987   4.8145006 123.5955017
 104.2869987  15.7975006 122.4045017 105.2439987  15.7975006 122.4045017
 104.0469987  16.7245006 122.4045017 103.7869987   5.4485006 124.4475017
 104.7439987   5.4485006 124.4475017 103.5469987   6.3755006 124.4475017
 104.3499987   6.3925006 133.5905017 105.3069987   6.3925006 133.5905017
 104.1099987   7.3195006 133.5905017 104.7039987   2.4815006 125.3645017
 105.6609987   2.4815006 125.3645017 104.4639987   3.4085006 125.3645017
 101.6529987  16.8495006 122.4465017 102.6099987  16.8495006 122.4465017
 101.4129987  17.7765006 122.4465017 100.3209987   3.5735006 122.0445017
 101.2779987   3.5735006 122.0445017 100.0809987   4.5005006 122.0445017
  98.5709987  14.0145006 121.1015017  99.5279987  14.0145006 121.1015017
  98.3309987  14.9415006 121.1015017  96.9149987   6.6845006 120.2325017
  97.8719987   6.6845006 120.2325017  96.6749987   7.6115006 120.2325017
  97.4899987   1.6735006 128.8285017  98.4469987   1.6735006 128.8285017
  97.2499987   2.6005006 128.8285017  96.6739987  15.3905006 125.1025017
  97.6309987  15.3905006 125.1025017  96.4339987  16.3175006 125.1025017
  95.7819987  18.0645006 136.3295017  96.7389987  18.0645006 136.3295017
  95.5419987  18.9915006 136.3295017 104.2359987  16.7395006 119.5495017
 105.1929987  16.7395006 119.5495017 103.9959987  17.6665006 119.5495017
 100.1409987  12.1635006 119.4385017 101.0979987  12.1635006 119.4385017
  99.9009987  13.0905006 119.4385017 105.5669987  13.0125006 119.2625017
 106.5239987  13.0125006 119.2625017 105.3269987  13.9395006 119.2625017
 101.3399987  10.1735006 121.8235017 102.2969987  10.1735006 121.8235017
 101.0999987  11.1005006 121.8235017 100.6439987   8.0125006 134.1575017
 101.6009987   8.0125006 134.1575017 100.4039987   8.9395006 134.1575017
 102.4119987   8.3915006 120.0475017 103.3689987   8.3915006 120.0475017
 102.1719987   9.3185006 120.0475017 100.8029987   5.4575006 135.0655017
 101.7599987   5.4575006 135.0655017 100.5629987   6.3845006 135.0655017
 101.4149987   3.7375006 132.7555017 102.3719987   3.7375006 132.7555017
 101.1749987   4.6645006 132.7555017 102.9899987   9.2135006 132.9835017
 103.9469987   9.2135006 132.9835017 102.7499987  10.1405006 132.9835017
 102.2979987   1.2605006 133.0145017 103.2549987   1.2605006 133.0145017
 102.0579987   2.1875006 133.0145017 106.1399987   4.6325006 135.7945017
 107.0969987   4.6325006 135.7945017 105.8999987   5.5595006 135.7945017
 102.9809987 108.4895006 136.0135017 103.9379987 108.4895006 136.0135017
 102.7409987 109.4165006 136.0135017 102.2739987  19.0795006 121.0985017
 103.2309987  19.0795006 121.0985017 102.0339987  20.0065006 121.0985017
  95.8229987  13.6925006 120.5775017  96.7799987  13.6925006 120.5775017
  95.5829987  14.6195006 120.5775017  94.5759987  19.0735006 125.5665017
  95.5329987  19.0735006 125.5665017  94.3359987  20.0005006 125.5665017
  95.4079987  17.1935006 127.4225017  96.3649987  17.1935006 127.4225017
  95.1679987  18.1205006 127.4225017  95.4629987  10.2655006 129.9035017
  96.4199987  10.2655006 129.9035017  95.2229987  11.1925006 129.9035017
  95.0739987   5.5525006 136.0575017  96.0309987   5.5525006 136.0575017
  94.8339987   6.4795006 136.0575017  96.2409987   3.8955006 128.9245017
  97.1979987   3.8955006 128.9245017  96.0009987   4.8225006 128.9245017
  94.5689987   6.8525006 129.9705017  95.5259987   6.8525006 129.9705017
  94.3289987   7.7795006 129.9705017  94.9239987   3.0885006 124.0645017
  95.8809987   3.0885006 124.0645017  94.6839987   4.0155006 124.0645017
  94.8909987   1.8285006 132.3445017  95.8479987   1.8285006 132.3445017
  94.6509987   2.7555006 132.3445017  97.1139987  15.0945006 136.4465017
  98.0709987  15.0945006 136.4465017  96.8739987  16.0215006 136.4465017
 100.0199987  15.9735006 132.7585017 100.9769987  15.9735006 132.7585017
  99.7799987  16.9005006 132.7585017 104.2919987  17.6495006 135.5145017
 105.2489987  17.6495006 135.5145017 104.0519987  18.5765006 135.5145017
 106.6949987  18.7155006 134.9705017 107.6519987  18.7155006 134.9705017
 106.4549987  19.6425006 134.9705017  97.4419987  19.2295006 132.7755017
  98.3989987  19.2295006 132.7755017  97.2019987  20.1565006 132.7755017
  99.9029987  18.8075006 131.8195017 100.8599987  18.8075006 131.8195017
  99.6629987  19.7345006 131.8195017 104.5989987  18.7175006 131.0255017
 105.5559987  18.7175006 131.0255017 104.3589987  19.6445006 131.0255017
 106.9379987  17.6015006 132.0435017 107.8949987  17.6015006 132.0435017
 106.6979987  18.5285006 132.0435017  96.8759987  17.8725006 129.7155017
  97.8329987  17.8725006 129.7155017  96.6359987  18.7995006 129.7155017
  98.9709987  16.5855006 128.3685017  99.9279987  16.5855006 128.3685017
  98.7309987  17.5125006 128.3685017 101.5379987  17.0685006 129.2395017
 102.4949987  17.0685006 129.2395017 101.2979987  17.9955006 129.2395017
 105.0009987   2.7415006 128.3765017 105.9579987   2.7415006 128.3765017
 104.7609987   3.6685006 128.3765017  97.3449987   1.3275006 126.2145017
  98.3019987   1.3275006 126.2145017  97.1049987   2.2545006 126.2145017
  96.4549987   1.5205006 122.3695017  97.4119987   1.5205006 122.3695017
  96.2149987   2.4475006 122.3695017 101.8989987   1.3295006 126.0145017
 102.8559987   1.3295006 126.0145017 101.6589987   2.2565006 126.0145017
 107.4109987   1.1885006 127.6865017 108.3679987   1.1885006 127.6865017
 107.1709987   2.1155006 127.6865017  96.0969987  17.0545006 122.9565017
  97.0539987  17.0545006 122.9565017  95.8569987  17.9815006 122.9565017
  98.0199987   3.0375006 120.4245017  98.9769987   3.0375006 120.4245017
  97.7799987   3.9645006 120.4245017 102.9849987   3.3165006 122.8915017
 103.9419987   3.3165006 122.8915017 102.7449987   4.2435006 122.8915017
 104.9749987  18.3485006 121.3565017 105.9319987  18.3485006 121.3565017
 104.7349987  19.2755006 121.3565017  97.2659987   1.8565006 135.7125017
  98.2229987   1.8565006 135.7125017  97.0259987   2.7835006 135.7125017
  97.8959987  18.0235006 119.9195017  98.8529987  18.0235006 119.9195017
  97.6559987  18.9505006 119.9195017  12.1869987  29.3325006 126.1235017
  13.1439987  29.3325006 126.1235017  11.9469987  30.2595006 126.1235017
  11.0679987  28.6025006 129.6015017  12.0249987  28.6025006 129.6015017
  10.8279987  29.5295006 129.6015017   3.4699987  28.2365006 131.1325017
   4.4269987  28.2365006 131.1325017   3.2299987  29.1635006 131.1325017
  14.8569987  31.4635006 127.9595017  15.8139987  31.4635006 127.9595017
  14.6169987  32.3905006 127.9595017   4.3409987  32.7055006 129.6725017
   5.2979987  32.7055006 129.6725017   4.1009987  33.6325006 129.6725017
   1.0419987  26.3405006 125.0805017   1.9989987  26.3405006 125.0805017
   0.8019987  27.2675006 125.0805017   1.6759987  28.4475006 127.2275017
   2.6329987  28.4475006 127.2275017   1.4359987  29.3745006 127.2275017
  11.8789987  36.6905006 128.1055017  12.8359987  36.6905006 128.1055017
  11.6389987  37.6175006 128.1055017   9.4479987  31.0115006 130.0355017
  10.4049987  31.0115006 130.0355017   9.2079987  31.9385006 130.0355017
  18.0669987  22.6465006 130.8075017  19.0239987  22.6465006 130.8075017
  17.8269987  23.5735006 130.8075017  12.6109987  25.4655006 130.3615017
  13.5679987  25.4655006 130.3615017  12.3709987  26.3925006 130.3615017
   5.7229987  23.5475006 127.5835017   6.6799987  23.5475006 127.5835017
   5.4829987  24.4745006 127.5835017  13.4709987  23.6395006 125.9635017
  14.4279987  23.6395006 125.9635017  13.2309987  24.5665006 125.9635017
   2.5279987  25.9955006 128.2295017   3.4849987  25.9955006 128.2295017
   2.2879987  26.9225006 128.2295017   7.5149987  27.5115006 127.6175017
   8.4719987  27.5115006 127.6175017   7.2749987  28.4385006 127.6175017
  18.5029987  24.0825006 133.0575017  19.4599987  24.0825006 133.0575017
  18.2629987  25.0095006 133.0575017   4.6279987  22.4505006 131.6575017
   5.5849987  22.4505006 131.6575017   4.3879987  23.3775006 131.6575017
  11.8859987  31.9195006 125.2015017  12.8429987  31.9195006 125.2015017
  11.6459987  32.8465006 125.2015017   7.1519987  30.0955006 131.8955017
   8.1089987  30.0955006 131.8955017   6.9119987  31.0225006 131.8955017
  15.2619987  22.9765006 127.9555017  16.2189987  22.9765006 127.9555017
  15.0219987  23.9035006 127.9555017   4.1909987  24.3025006 129.6385017
   5.1479987  24.3025006 129.6385017   3.9509987  25.2295006 129.6385017
   5.5859987  32.0925006 132.6775017   6.5429987  32.0925006 132.6775017
   5.3459987  33.0195006 132.6775017   1.7039987  31.7405006 123.4675017
   2.6609987  31.7405006 123.4675017   1.4639987  32.6675006 123.4675017
  15.2959987  33.3795006 130.2455017  16.2529987  33.3795006 130.2455017
  15.0559987  34.3065006 130.2455017  15.6009987  21.6605006 131.6195017
  16.5579987  21.6605006 131.6195017  15.3609987  22.5875006 131.6195017
   8.5899987  19.7785006 129.0955017   9.5469987  19.7785006 129.0955017
   8.3499987  20.7055006 129.0955017  13.5239987  35.2195006 126.8615017
  14.4809987  35.2195006 126.8615017  13.2839987  36.1465006 126.8615017
  14.5469987  33.0545006 125.9885017  15.5039987  33.0545006 125.9885017
  14.3069987  33.9815006 125.9885017  16.4129987  31.6695006 133.8425017
  17.3699987  31.6695006 133.8425017  16.1729987  32.5965006 133.8425017
  10.8769987  28.5845006 123.6185017  11.8339987  28.5845006 123.6185017
  10.6369987  29.5115006 123.6185017  10.9269987  27.1065006 120.6255017
  11.8839987  27.1065006 120.6255017  10.6869987  28.0335006 120.6255017
  18.2569987  27.9785006 131.8835017  19.2139987  27.9785006 131.8835017
  18.0169987  28.9055006 131.8835017  14.2869987  28.7525006 124.5365017
  15.2439987  28.7525006 124.5365017  14.0469987  29.6795006 124.5365017
  14.2269987  26.9015006 133.5315017  15.1839987  26.9015006 133.5315017
  13.9869987  27.8285006 133.5315017   5.9429987  29.4605006 126.4445017
   6.8999987  29.4605006 126.4445017   5.7029987  30.3875006 126.4445017
   7.2589987  32.8495006 129.1245017   8.2159987  32.8495006 129.1245017
   7.0189987  33.7765006 129.1245017   6.2839987  28.1975006 130.0985017
   7.2409987  28.1975006 130.0985017   6.0439987  29.1245006 130.0985017
  12.6529987  33.7635006 130.8145017  13.6099987  33.7635006 130.8145017
  12.4129987  34.6905006 130.8145017   7.1629987  32.5625006 134.7925017
   8.1199987  32.5625006 134.7925017   6.9229987  33.4895006 134.7925017
  13.1799987  27.9595006 122.2025017  14.1369987  27.9595006 122.2025017
  12.9399987  28.8865006 122.2025017   4.1169987  28.8095006 134.0075017
   5.0739987  28.8095006 134.0075017   3.8769987  29.7365006 134.0075017
  10.8639987  34.7015006 125.6925017  11.8209987  34.7015006 125.6925017
  10.6239987  35.6285006 125.6925017   5.4279987  34.6275006 135.5825017
   6.3849987  34.6275006 135.5825017   5.1879987  35.5545006 135.5825017
  16.9029987  19.7135006 122.0775017  17.8599987  19.7135006 122.0775017
  16.6629987  20.6405006 122.0775017   4.9199987  28.4785006 124.0605017
   5.8769987  28.4785006 124.0605017   4.6799987  29.4055006 124.0605017
  18.0319987  34.0815006 120.3895017  18.9889987  34.0815006 120.3895017
  17.7919987  35.0085006 120.3895017   1.1279987  30.8685006 132.8615017
   2.0849987  30.8685006 132.8615017   0.8879987  31.7955006 132.8615017
   1.0089987  33.7675006 129.4545017   1.9659987  33.7675006 129.4545017
   0.7689987  34.6945006 129.4545017  19.0379987  34.3115006 135.3675017
  19.9949987  34.3115006 135.3675017  18.7979987  35.2385006 135.3675017
   9.9649987  33.9075006 134.2625017  10.9219987  33.9075006 134.2625017
   9.7249987  34.8345006 134.2625017  10.3749987  37.6275006 124.0875017
  11.3319987  37.6275006 124.0875017  10.1349987  38.5545006 124.0875017
   4.0209987  36.4875006 125.8755017   4.9779987  36.4875006 125.8755017
   3.7809987  37.4145006 125.8755017  13.4439987  36.8385006 121.0755017
  14.4009987  36.8385006 121.0755017  13.2039987  37.7655006 121.0755017
  13.1329987  36.7945006 123.8545017  14.0899987  36.7945006 123.8545017
  12.8929987  37.7215006 123.8545017  16.1389987  25.8475006 135.6795017
  17.0959987  25.8475006 135.6795017  15.8989987  26.7745006 135.6795017
   3.2779987  32.2155006 133.9005017   4.2349987  32.2155006 133.9005017
   3.0379987  33.1425006 133.9005017   5.9379987  20.6895006 129.8435017
   6.8949987  20.6895006 129.8435017   5.6979987  21.6165006 129.8435017
  10.5789987  20.3795006 133.2455017  11.5359987  20.3795006 133.2455017
  10.3389987  21.3065006 133.2455017  13.8649987  24.1765006 134.0945017
  14.8219987  24.1765006 134.0945017  13.6249987  25.1035006 134.0945017
  14.6389987  28.9675006 119.9425017  15.5959987  28.9675006 119.9425017
  14.3989987  29.8945006 119.9425017  10.2349987  22.9255006 120.5205017
  11.1919987  22.9255006 120.5205017   9.9949987  23.8525006 120.5205017
   6.0309987  25.6395006 131.0455017   6.9879987  25.6395006 131.0455017
   5.7909987  26.5665006 131.0455017   5.9799987  25.8045006 125.9405017
   6.9369987  25.8045006 125.9405017   5.7399987  26.7315006 125.9405017
  11.5219987  26.2705006 124.7385017  12.4789987  26.2705006 124.7385017
  11.2819987  27.1975006 124.7385017  10.5839987  26.2585006 135.9695017
  11.5409987  26.2585006 135.9695017  10.3439987  27.1855006 135.9695017
  12.5529987  25.7545006 127.5685017  13.5099987  25.7545006 127.5685017
  12.3129987  26.6815006 127.5685017   3.7179987  25.9155006 132.8365017
   4.6749987  25.9155006 132.8365017   3.4779987  26.8425006 132.8365017
   7.0789987  23.3125006 119.6315017   8.0359987  23.3125006 119.6315017
   6.8389987  24.2395006 119.6315017   0.5149987  22.2865006 127.0605017
   1.4719987  22.2865006 127.0605017   0.2749987  23.2135006 127.0605017
   1.7909987  23.7415006 122.0425017   2.7479987  23.7415006 122.0425017
   1.5509987  24.6685006 122.0425017  11.7719987  27.3685006 132.1865017
  12.7289987  27.3685006 132.1865017  11.5319987  28.2955006 132.1865017
   8.5579987  23.3145006 126.9795017   9.5149987  23.3145006 126.9795017
   8.3179987  24.2415006 126.9795017   3.4409987  24.8855006 125.8495017
   4.3979987  24.8855006 125.8495017   3.2009987  25.8125006 125.8495017
   7.0079987  24.9185006 123.4575017   7.9649987  24.9185006 123.4575017
   6.7679987  25.8455006 123.4575017  12.9709987  22.5525006 130.2195017
  13.9279987  22.5525006 130.2195017  12.7309987  23.4795006 130.2195017
   5.6959987  26.0995006 121.0505017   6.6529987  26.0995006 121.0505017
   5.4559987  27.0265006 121.0505017  16.2209987  38.2005006 136.4985017
  17.1779987  38.2005006 136.4985017  15.9809987  39.1275006 136.4985017
   3.7059987  30.6655006 136.0855017   4.6629987  30.6655006 136.0855017
   3.4659987  31.5925006 136.0855017   9.8559987  26.0825006 128.8645017
  10.8129987  26.0825006 128.8645017   9.6159987  27.0095006 128.8645017
   4.8179987  22.2485006 125.2425017   5.7749987  22.2485006 125.2425017
   4.5779987  23.1755006 125.2425017   8.4909987  24.4135006 131.2775017
   9.4479987  24.4135006 131.2775017   8.2509987  25.3405006 131.2775017
   9.0779987  30.6465006 122.9665017  10.0349987  30.6465006 122.9665017
   8.8379987  31.5735006 122.9665017  16.2339987  29.8345006 131.7775017
  17.1909987  29.8345006 131.7775017  15.9939987  30.7615006 131.7775017
  12.9189987  23.4595006 121.1505017  13.8759987  23.4595006 121.1505017
  12.6789987  24.3865006 121.1505017  10.5289987  30.8885006 134.1485017
  11.4859987  30.8885006 134.1485017  10.2889987  31.8155006 134.1485017
  13.6479987  25.3585006 122.7925017  14.6049987  25.3585006 122.7925017
  13.4079987  26.2855006 122.7925017   4.1819987  30.0185006 128.7665017
   5.1389987  30.0185006 128.7665017   3.9419987  30.9455006 128.7665017
  11.1639987  32.1095006 121.9675017  12.1209987  32.1095006 121.9675017
  10.9239987  33.0365006 121.9675017   1.2039987  28.4175006 134.0095017
   2.1609987  28.4175006 134.0095017   0.9639987  29.3445006 134.0095017
   8.3449987  28.3495006 135.7735017   9.3019987  28.3495006 135.7735017
   8.1049987  29.2765006 135.7735017  12.8669987  33.3465006 134.1755017
  13.8239987  33.3465006 134.1755017  12.6269987  34.2735006 134.1755017
  18.5539987  25.5135006 122.5475017  19.5109987  25.5135006 122.5475017
  18.3139987  26.4405006 122.5475017  18.5149987  31.3655006 135.3495017
  19.4719987  31.3655006 135.3495017  18.2749987  32.2925006 135.3495017
  17.1839987  34.3415006 122.9785017  18.1409987  34.3415006 122.9785017
  16.9439987  35.2685006 122.9785017  14.0269987  29.1645006 130.0305017
  14.9839987  29.1645006 130.0305017  13.7869987  30.0915006 130.0305017
   6.5679987  33.4745006 126.1535017   7.5249987  33.4745006 126.1535017
   6.3279987  34.4015006 126.1535017   2.2839987  28.2985006 120.7855017
   3.2409987  28.2985006 120.7855017   2.0439987  29.2255006 120.7855017
   7.9819987  31.1445006 125.6795017   8.9389987  31.1445006 125.6795017
   7.7419987  32.0715006 125.6795017   8.4359987  35.3255006 132.0455017
   9.3929987  35.3255006 132.0455017   8.1959987  36.2525006 132.0455017
   6.6599987  36.1475006 125.2185017   7.6169987  36.1475006 125.2185017
   6.4199987  37.0745006 125.2185017  11.9939987  31.3645006 131.7085017
  12.9509987  31.3645006 131.7085017  11.7539987  32.2915006 131.7085017
  14.2589987  32.2655006 120.6515017  15.2159987  32.2655006 120.6515017
  14.0189987  33.1925006 120.6515017  14.6979987  35.9385006 134.2045017
  15.6549987  35.9385006 134.2045017  14.4579987  36.8655006 134.2045017
  18.7569987  36.7745006 121.0265017  19.7139987  36.7745006 121.0265017
  18.5169987  37.7015006 121.0265017   2.8059987  23.1855006 133.6125017
   3.7629987  23.1855006 133.6125017   2.5659987  24.1125006 133.6125017
  15.2259987  30.5895006 122.8505017  16.1829987  30.5895006 122.8505017
  14.9859987  31.5165006 122.8505017   2.4629987  34.9695006 132.0015017
   3.4199987  34.9695006 132.0015017   2.2229987  35.8965006 132.0015017
   8.3889987  33.4745006 119.2715017   9.3459987  33.4745006 119.2715017
   8.1489987  34.4015006 119.2715017   7.2219987  33.0055006 121.7275017
   8.1789987  33.0055006 121.7275017   6.9819987  33.9325006 121.7275017
   3.6929987  30.2335006 122.2085017   4.6499987  30.2335006 122.2085017
   3.4529987  31.1605006 122.2085017  11.5659987  22.9345006 132.5225017
  12.5229987  22.9345006 132.5225017  11.3259987  23.8615006 132.5225017
  12.3169987  22.5235006 123.6195017  13.2739987  22.5235006 123.6195017
  12.0769987  23.4505006 123.6195017   9.9829987  34.6765006 122.4395017
  10.9399987  34.6765006 122.4395017   9.7429987  35.6035006 122.4395017
   9.5299987  24.2785006 124.4435017  10.4869987  24.2785006 124.4435017
   9.2899987  25.2055006 124.4435017  10.0939987  25.2755006 133.5685017
  11.0509987  25.2755006 133.5685017   9.8539987  26.2025006 133.5685017
  10.3929987  21.3345006 125.3495017  11.3499987  21.3345006 125.3495017
  10.1529987  22.2615006 125.3495017   7.3769987  35.7115006 122.4575017
   8.3339987  35.7115006 122.4575017   7.1369987  36.6385006 122.4575017
   6.0349987  22.4315006 122.0615017   6.9919987  22.4315006 122.0615017
   5.7949987  23.3585006 122.0615017  16.2769987  23.1345006 134.4045017
  17.2339987  23.1345006 134.4045017  16.0369987  24.0615006 134.4045017
  14.8759987  26.9545006 128.5065017  15.8329987  26.9545006 128.5065017
  14.6359987  27.8815006 128.5065017   4.2909987  32.8735006 121.0915017
   5.2479987  32.8735006 121.0915017   4.0509987  33.8005006 121.0915017
   2.5629987  25.5505006 120.3145017   3.5199987  25.5505006 120.3145017
   2.3229987  26.4775006 120.3145017  15.9399987  36.1935006 130.1565017
  16.8969987  36.1935006 130.1565017  15.6999987  37.1205006 130.1565017
   3.4639987  20.3235006 128.9455017   4.4209987  20.3235006 128.9455017
   3.2239987  21.2505006 128.9455017   2.3869987  34.2575006 125.1145017
   3.3439987  34.2575006 125.1145017   2.1469987  35.1845006 125.1145017
   1.4769987  36.8785006 136.3205017   2.4339987  36.8785006 136.3205017
   1.2369987  37.8055006 136.3205017  10.3959987  35.3285006 119.4025017
  11.3529987  35.3285006 119.4025017  10.1559987  36.2555006 119.4025017
  14.9609987  35.0935006 119.5765017  15.9179987  35.0935006 119.5765017
  14.7209987  36.0205006 119.5765017   5.8619987  31.0185006 119.4355017
   6.8189987  31.0185006 119.4355017   5.6219987  31.9455006 119.4355017
  11.2539987  32.1175006 119.1835017  12.2109987  32.1175006 119.1835017
  11.0139987  33.0445006 119.1835017  13.9249987  30.5975006 134.1735017
  14.8819987  30.5975006 134.1735017  13.6849987  31.5245006 134.1735017
   7.0609987  29.0285006 121.8245017   8.0179987  29.0285006 121.8245017
   6.8209987  29.9555006 121.8245017   6.3639987  26.8685006 134.1575017
   7.3209987  26.8685006 134.1575017   6.1239987  27.7955006 134.1575017
   8.1319987  27.2495006 120.0475017   9.0889987  27.2495006 120.0475017
   7.8919987  28.1765006 120.0475017  17.4939987  29.5825006 119.4755017
  18.4509987  29.5825006 119.4755017  17.2539987  30.5095006 119.4755017
   6.5329987  24.3145006 135.0745017   7.4899987  24.3145006 135.0745017
   6.2929987  25.2415006 135.0745017   7.1259987  22.5935006 132.7665017
   8.0829987  22.5935006 132.7665017   6.8859987  23.5205006 132.7665017
   8.6939987  28.0665006 132.9775017   9.6509987  28.0665006 132.9775017
   8.4539987  28.9935006 132.9775017  14.2839987  28.4565006 135.4965017
  15.2409987  28.4565006 135.4965017  14.0439987  29.3835006 135.4965017
   7.9219987  20.0595006 133.1775017   8.8789987  20.0595006 133.1775017
   7.6819987  20.9865006 133.1775017  11.9129987  23.4595006 135.7865017
  12.8699987  23.4595006 135.7865017  11.6729987  24.3865006 135.7865017
   8.1459987  19.4085006 135.8535017   9.1029987  19.4085006 135.8535017
   7.9059987  20.3355006 135.8535017   7.9799987  37.9475006 121.1085017
   8.9369987  37.9475006 121.1085017   7.7399987  38.8745006 121.1085017
   1.5899987  32.5595006 120.5625017   2.5469987  32.5595006 120.5625017
   1.3499987  33.4865006 120.5625017 108.0929987  37.9845006 125.5825017
 109.0499987  37.9845006 125.5825017 107.8529987  38.9115006 125.5825017
   1.5129987  36.1985006 127.5335017   2.4699987  36.1985006 127.5335017
   1.2729987  37.1255006 127.5335017  18.6659987  36.8465006 130.3645017
  19.6229987  36.8465006 130.3645017  18.4259987  37.7735006 130.3645017
  18.2679987  36.4455006 133.2845017  19.2249987  36.4455006 133.2845017
  18.0279987  37.3725006 133.2845017  18.0209987  30.4685006 123.4145017
  18.9779987  30.4685006 123.4145017  17.7809987  31.3955006 123.4145017
  18.3629987  28.5585006 125.2955017  19.3199987  28.5585006 125.2955017
  18.1229987  29.4855006 125.2955017  18.1279987  31.2645006 130.2865017
  19.0849987  31.2645006 130.2865017  17.8879987  32.1915006 130.2865017
  16.6589987  34.1555006 132.5625017  17.6159987  34.1555006 132.5625017
  16.4189987  35.0825006 132.5625017  18.6719987  28.3965006 121.6955017
  19.6289987  28.3965006 121.6955017  18.4319987  29.3235006 121.6955017
  17.0339987  25.6255006 120.2135017  17.9909987  25.6255006 120.2135017
  16.7939987  26.5525006 120.2135017  16.1789987  27.0465006 125.8615017
  17.1359987  27.0465006 125.8615017  15.9389987  27.9735006 125.8615017
   1.1779987  29.1065006 129.9175017   2.1349987  29.1065006 129.9175017
   0.9379987  30.0335006 129.9175017  17.0229987  28.8565006 135.0825017
  17.9799987  28.8565006 135.0825017  16.7829987  29.7835006 135.0825017
  18.5809987  26.9405006 136.1065017  19.5379987  26.9405006 136.1065017
  18.3409987  27.8675006 136.1065017  16.2689987  23.0885006 119.3455017
  17.2259987  23.0885006 119.3455017  16.0289987  24.0155006 119.3455017
  15.8369987  24.6285006 124.2955017  16.7939987  24.6285006 124.2955017
  15.5969987  25.5555006 124.2955017  16.4789987  25.1735006 129.7605017
  17.4359987  25.1735006 129.7605017  16.2389987  26.1005006 129.7605017
  16.5469987  25.9075006 132.5535017  17.5039987  25.9075006 132.5535017
  16.3069987  26.8345006 132.5535017   0.8539987  24.3995006 136.0095017
   1.8109987  24.3995006 136.0095017   0.6139987  25.3265006 136.0095017
  16.5109987  21.9095006 124.3705017  17.4679987  21.9095006 124.3705017
  16.2709987  22.8365006 124.3705017   2.1039987  22.7545006 128.8965017
   3.0609987  22.7545006 128.8965017   1.8639987  23.6815006 128.8965017
   0.8909987  25.6785006 130.1315017   1.8479987  25.6785006 130.1315017
   0.6509987  26.6055006 130.1315017  18.4079987  22.0635006 136.0765017
  19.3649987  22.0635006 136.0765017  18.1679987  22.9905006 136.0765017
  18.3389987  21.9485006 120.9245017  19.2959987  21.9485006 120.9245017
  18.0989987  22.8755006 120.9245017   0.8409987  21.8055006 124.0195017
   1.7979987  21.8055006 124.0195017   0.6009987  22.7325006 124.0195017
  15.3919987  36.9515006 125.9925017  16.3489987  36.9515006 125.9925017
  15.1519987  37.8785006 125.9925017 108.3429987  20.6615006 132.3935017
 109.2999987  20.6615006 132.3935017 108.1029987  21.5885006 132.3935017
   2.8359987  33.9625006 136.4505017   3.7929987  33.9625006 136.4505017
   2.5959987  34.8895006 136.4505017   5.7349987  34.8305006 132.7585017
   6.6919987  34.8305006 132.7585017   5.4949987  35.7575006 132.7585017
  10.0209987  36.4885006 135.4935017  10.9779987  36.4885006 135.4935017
   9.7809987  37.4155006 135.4935017  12.3849987  37.5375006 135.0035017
  13.3419987  37.5375006 135.0035017  12.1449987  38.4645006 135.0035017
  17.3609987  20.1585006 134.0745017  18.3179987  20.1585006 134.0745017
  17.1209987  21.0855006 134.0745017   3.1449987  38.0955006 132.8075017
   4.1019987  38.0955006 132.8075017   2.9049987  39.0225006 132.8075017
   5.6339987  37.6735006 131.8245017   6.5909987  37.6735006 131.8245017
   5.3939987  38.6005006 131.8245017  10.3369987  37.5705006 131.0195017
  11.2939987  37.5705006 131.0195017  10.0969987  38.4975006 131.0195017
  12.6389987  36.4135006 132.0095017  13.5959987  36.4135006 132.0095017
  12.3989987  37.3405006 132.0095017  15.2249987  37.9915006 132.2795017
  16.1819987  37.9915006 132.2795017  14.9849987  38.9185006 132.2795017
   2.6349987  36.7505006 129.7725017   3.5919987  36.7505006 129.7725017
   2.3949987  37.6775006 129.7725017   4.6819987  35.4395006 128.3695017
   5.6389987  35.4395006 128.3695017   4.4419987  36.3665006 128.3695017
   7.2689987  35.9185006 129.2455017   8.2259987  35.9185006 129.2455017
   7.0289987  36.8455006 129.2455017  10.7549987  21.5725006 128.3875017
  11.7119987  21.5725006 128.3875017  10.5149987  22.4995006 128.3875017
  15.8899987  19.6305006 128.4735017  16.8469987  19.6305006 128.4735017
  15.6499987  20.5575006 128.4735017  17.5679987  20.8535006 126.7545017
  18.5249987  20.8535006 126.7545017  17.3279987  21.7805006 126.7545017
   3.1279987  20.2105006 126.1725017   4.0849987  20.2105006 126.1725017
   2.8879987  21.1375006 126.1725017   1.9559987  19.9655006 122.0335017
   2.9129987  19.9655006 122.0335017   1.7159987  20.8925006 122.0335017
   7.6149987  20.1265006 126.0145017   8.5719987  20.1265006 126.0145017
   7.3749987  21.0535006 126.0145017  13.2819987  20.1495006 127.6535017
  14.2389987  20.1495006 127.6535017  13.0419987  21.0765006 127.6535017
  14.5799987  20.1805006 123.3345017  15.5369987  20.1805006 123.3345017
  14.3399987  21.1075006 123.3345017   1.9219987  35.9265006 122.9495017
   2.8789987  35.9265006 122.9495017   1.6819987  36.8535006 122.9495017
   3.7319987  21.9175006 120.4635017   4.6889987  21.9175006 120.4635017
   3.4919987  22.8445006 120.4635017   8.7539987  22.1595006 122.8735017
   9.7109987  22.1595006 122.8735017   8.5139987  23.0865006 122.8735017
  10.6659987  37.2125006 121.3085017  11.6229987  37.2125006 121.3085017
  10.4259987  38.1395006 121.3085017  17.3939987  36.7395006 124.0275017
  18.3509987  36.7395006 124.0275017  17.1539987  37.6665006 124.0275017
   2.9979987  20.6715006 135.6445017   3.9549987  20.6715006 135.6445017
   2.7579987  21.5985006 135.6445017   3.5879987  36.8605006 119.9055017
   4.5449987  36.8605006 119.9055017   3.3479987  37.7875006 119.9055017
  16.8069987  35.5665006 135.9015017  17.7639987  35.5665006 135.9015017
  16.5669987  36.4935006 135.9015017  31.0559987  29.3375006 126.1075017
  32.0129987  29.3375006 126.1075017  30.8159987  30.2645006 126.1075017
  29.9289987  28.6015006 129.5975017  30.8859987  28.6015006 129.5975017
  29.6889987  29.5285006 129.5975017  22.2729987  28.2635006 131.1695017
  23.2299987  28.2635006 131.1695017  22.0329987  29.1905006 131.1695017
  33.6259987  31.5435006 127.8715017  34.5829987  31.5435006 127.8715017
  33.3859987  32.4705006 127.8715017  23.2119987  32.7085006 129.6685017
  24.1689987  32.7085006 129.6685017  22.9719987  33.6355006 129.6685017
  19.8519987  26.2915006 125.1265017  20.8089987  26.2915006 125.1265017
  19.6119987  27.2185006 125.1265017  20.5519987  28.5025006 127.2605017
  21.5089987  28.5025006 127.2605017  20.3119987  29.4295006 127.2605017
  30.7389987  36.6935006 128.1065017  31.6959987  36.6935006 128.1065017
  30.4989987  37.6205006 128.1065017  28.3039987  31.0115006 130.0355017
  29.2609987  31.0115006 130.0355017  28.0639987  31.9385006 130.0355017
  36.9229987  22.6465006 130.8075017  37.8799987  22.6465006 130.8075017
  36.6829987  23.5735006 130.8075017  31.4669987  25.4655006 130.3615017
  32.4239987  25.4655006 130.3615017  31.2269987  26.3925006 130.3615017
  24.5929987  23.5505006 127.5935017  25.5499987  23.5505006 127.5935017
  24.3529987  24.4775006 127.5935017  32.3269987  23.6395006 125.9635017
  33.2839987  23.6395006 125.9635017  32.0869987  24.5665006 125.9635017
  21.2139987  25.9545006 128.3395017  22.1709987  25.9545006 128.3395017
  20.9739987  26.8815006 128.3395017  26.3769987  27.5155006 127.6195017
  27.3339987  27.5155006 127.6195017  26.1369987  28.4425006 127.6195017
  37.3599987  24.0825006 133.0595017  38.3169987  24.0825006 133.0595017
  37.1199987  25.0095006 133.0595017  23.4749987  22.4425006 131.6465017
  24.4319987  22.4425006 131.6465017  23.2349987  23.3695006 131.6465017
  30.7929987  31.9395006 125.1825017  31.7499987  31.9395006 125.1825017
  30.5529987  32.8665006 125.1825017  26.0079987  30.0955006 131.8955017
  26.9649987  30.0955006 131.8955017  25.7679987  31.0225006 131.8955017
  34.1179987  22.9765006 127.9555017  35.0749987  22.9765006 127.9555017
  33.8779987  23.9035006 127.9555017  23.0339987  24.3215006 129.6355017
  23.9909987  24.3215006 129.6355017  22.7939987  25.2485006 129.6355017
  24.4339987  32.0905006 132.6815017  25.3909987  32.0905006 132.6815017
  24.1939987  33.0175006 132.6815017  20.5389987  31.7255006 123.4945017
  21.4959987  31.7255006 123.4945017  20.2989987  32.6525006 123.4945017
  34.1509987  33.3775006 130.2395017  35.1079987  33.3775006 130.2395017
  33.9109987  34.3045006 130.2395017  34.4559987  21.6605006 131.6205017
  35.4129987  21.6605006 131.6205017  34.2159987  22.5875006 131.6205017
  27.4469987  19.7795006 129.0975017  28.4039987  19.7795006 129.0975017
  27.2069987  20.7065006 129.0975017  32.4019987  35.1635006 126.8415017
  33.3589987  35.1635006 126.8415017  32.1619987  36.0905006 126.8415017
  33.6039987  33.0905006 125.3495017  34.5609987  33.0905006 125.3495017
  33.3639987  34.0175006 125.3495017  35.2699987  31.6685006 133.8435017
  36.2269987  31.6685006 133.8435017  35.0299987  32.5955006 133.8435017
  29.7319987  28.5815006 123.6165017  30.6889987  28.5815006 123.6165017
  29.4919987  29.5085006 123.6165017  29.7989987  27.1205006 120.6425017
  30.7559987  27.1205006 120.6425017  29.5589987  28.0475006 120.6425017
  37.1129987  27.9775006 131.8835017  38.0699987  27.9775006 131.8835017
  36.8729987  28.9045006 131.8835017  33.1679987  28.7935006 124.5295017
  34.1249987  28.7935006 124.5295017  32.9279987  29.7205006 124.5295017
  33.0829987  26.9015006 133.5315017  34.0399987  26.9015006 133.5315017
  32.8429987  27.8285006 133.5315017  24.7839987  29.4525006 126.4445017
  25.7409987  29.4525006 126.4445017  24.5439987  30.3795006 126.4445017
  26.1169987  32.8495006 129.1255017  27.0739987  32.8495006 129.1255017
  25.8769987  33.7765006 129.1255017  25.1229987  28.1945006 130.0975017
  26.0799987  28.1945006 130.0975017  24.8829987  29.1215006 130.0975017
  31.5129987  33.7575006 130.8155017  32.4699987  33.7575006 130.8155017
  31.2729987  34.6845006 130.8155017  26.0189987  32.5625006 134.7925017
  26.9759987  32.5625006 134.7925017  25.7789987  33.4895006 134.7925017
  32.0339987  27.9785006 122.2085017  32.9909987  27.9785006 122.2085017
  31.7939987  28.9055006 122.2085017  22.9649987  28.7475006 134.0535017
  23.9219987  28.7475006 134.0535017  22.7249987  29.6745006 134.0535017
  29.7539987  34.7065006 125.6695017  30.7109987  34.7065006 125.6695017
  29.5139987  35.6335006 125.6695017  24.2809987  34.6215006 135.5835017
  25.2379987  34.6215006 135.5835017  24.0409987  35.5485006 135.5835017
  35.7589987  19.7135006 122.0765017  36.7159987  19.7135006 122.0765017
  35.5189987  20.6405006 122.0765017  23.7599987  28.4785006 124.0605017
  24.7169987  28.4785006 124.0605017  23.5199987  29.4055006 124.0605017
  36.8859987  34.0665006 120.4465017  37.8429987  34.0665006 120.4465017
  36.6459987  34.9935006 120.4465017  19.8599987  30.9005006 132.9025017
  20.8169987  30.9005006 132.9025017  19.6199987  31.8275006 132.9025017
  19.6029987  33.6345006 129.7245017  20.5599987  33.6345006 129.7245017
  19.3629987  34.5615006 129.7245017  37.8919987  34.3095006 135.3605017
  38.8489987  34.3095006 135.3605017  37.6519987  35.2365006 135.3605017
  28.8249987  33.9075006 134.2625017  29.7819987  33.9075006 134.2625017
  28.5849987  34.8345006 134.2625017  29.2359987  37.6285006 124.0855017
  30.1929987  37.6285006 124.0855017  28.9959987  38.5555006 124.0855017
  22.8729987  36.4925006 125.8915017  23.8299987  36.4925006 125.8915017
  22.6329987  37.4195006 125.8915017  32.3009987  36.8345006 121.0685017
  33.2579987  36.8345006 121.0685017  32.0609987  37.7615006 121.0685017
  31.9899987  36.7605006 123.8335017  32.9469987  36.7605006 123.8335017
  31.7499987  37.6875006 123.8335017  34.9929987  25.8465006 135.6815017
  35.9499987  25.8465006 135.6815017  34.7529987  26.7735006 135.6815017
  22.1199987  32.1955006 133.9015017  23.0769987  32.1955006 133.9015017
  21.8799987  33.1225006 133.9015017  24.7949987  20.6785006 129.8565017
  25.7519987  20.6785006 129.8565017  24.5549987  21.6055006 129.8565017
  29.4339987  20.3805006 133.2465017  30.3909987  20.3805006 133.2465017
  29.1939987  21.3075006 133.2465017  32.7209987  24.1755006 134.0945017
  33.6779987  24.1755006 134.0945017  32.4809987  25.1025006 134.0945017
  33.4899987  29.0135006 119.9615017  34.4469987  29.0135006 119.9615017
  33.2499987  29.9405006 119.9615017  29.1229987  22.9055006 120.5635017
  30.0799987  22.9055006 120.5635017  28.8829987  23.8325006 120.5635017
  24.8859987  25.6415006 131.0505017  25.8429987  25.6415006 131.0505017
  24.6459987  26.5685006 131.0505017  24.8579987  25.8055006 125.9475017
  25.8149987  25.8055006 125.9475017  24.6179987  26.7325006 125.9475017
  30.3809987  26.2745006 124.7385017  31.3379987  26.2745006 124.7385017
  30.1409987  27.2015006 124.7385017  29.4429987  26.2605006 135.9685017
  30.3999987  26.2605006 135.9685017  29.2029987  27.1875006 135.9685017
  31.4089987  25.7545006 127.5685017  32.3659987  25.7545006 127.5685017
  31.1689987  26.6815006 127.5685017  22.5729987  25.9115006 132.8225017
  23.5299987  25.9115006 132.8225017  22.3329987  26.8385006 132.8225017
  25.9129987  23.3195006 119.6555017  26.8699987  23.3195006 119.6555017
  25.6729987  24.2465006 119.6555017  19.1839987  23.0415006 126.7445017
  20.1409987  23.0415006 126.7445017  18.9439987  23.9685006 126.7445017
  20.4589987  23.7545006 122.1185017  21.4159987  23.7545006 122.1185017
  20.2189987  24.6815006 122.1185017  30.6259987  27.3685006 132.1865017
  31.5829987  27.3685006 132.1865017  30.3859987  28.2955006 132.1865017
  27.4139987  23.3145006 126.9795017  28.3709987  23.3145006 126.9795017
  27.1739987  24.2415006 126.9795017  22.2379987  24.8905006 125.8315017
  23.1949987  24.8905006 125.8315017  21.9979987  25.8175006 125.8315017
  25.8799987  24.9265006 123.4835017  26.8369987  24.9265006 123.4835017
  25.6399987  25.8535006 123.4835017  31.8269987  22.5535006 130.2195017
  32.7839987  22.5535006 130.2195017  31.5869987  23.4805006 130.2195017
  24.5739987  26.1075006 121.0565017  25.5309987  26.1075006 121.0565017
  24.3339987  27.0345006 121.0565017  35.0769987  38.1985006 136.4965017
  36.0339987  38.1985006 136.4965017  34.8369987  39.1255006 136.4965017
  22.5599987  30.6365006 136.0855017  23.5169987  30.6365006 136.0855017
  22.3199987  31.5635006 136.0855017  28.7109987  26.0815006 128.8645017
  29.6679987  26.0815006 128.8645017  28.4709987  27.0085006 128.8645017
  23.7209987  22.2285006 125.2985017  24.6779987  22.2285006 125.2985017
  23.4809987  23.1555006 125.2985017  27.3469987  24.4135006 131.2775017
  28.3039987  24.4135006 131.2775017  27.1069987  25.3405006 131.2775017
  27.9379987  30.6485006 122.9675017  28.8949987  30.6485006 122.9675017
  27.6979987  31.5755006 122.9675017  35.0899987  29.8345006 131.7765017
  36.0469987  29.8345006 131.7765017  34.8499987  30.7615006 131.7765017
  31.7779987  23.4605006 121.1505017  32.7349987  23.4605006 121.1505017
  31.5379987  24.3875006 121.1505017  29.3849987  30.8875006 134.1475017
  30.3419987  30.8875006 134.1475017  29.1449987  31.8145006 134.1475017
  32.5049987  25.3615006 122.7935017  33.4619987  25.3615006 122.7935017
  32.2649987  26.2885006 122.7935017  23.0389987  30.0145006 128.7695017
  23.9959987  30.0145006 128.7695017  22.7989987  30.9415006 128.7695017
  30.0409987  32.1105006 121.9995017  30.9979987  32.1105006 121.9995017
  29.8009987  33.0375006 121.9995017  20.0559987  28.4235006 134.0265017
  21.0129987  28.4235006 134.0265017  19.8159987  29.3505006 134.0265017
  27.1819987  28.3425006 135.7895017  28.1389987  28.3425006 135.7895017
  26.9419987  29.2695006 135.7895017  31.7239987  33.3445006 134.1745017
  32.6809987  33.3445006 134.1745017  31.4839987  34.2715006 134.1745017
  37.4109987  25.5135006 122.5475017  38.3679987  25.5135006 122.5475017
  37.1709987  26.4405006 122.5475017  37.3739987  31.3655006 135.3525017
  38.3309987  31.3655006 135.3525017  37.1339987  32.2925006 135.3525017
  35.6719987  34.3445006 122.9605017  36.6289987  34.3445006 122.9605017
  35.4319987  35.2715006 122.9605017  32.8829987  29.1745006 130.0155017
  33.8399987  29.1745006 130.0155017  32.6429987  30.1015006 130.0155017
  25.4139987  33.4815006 126.1535017  26.3709987  33.4815006 126.1535017
  25.1739987  34.4085006 126.1535017  21.1709987  28.3295006 120.7255017
  22.1279987  28.3295006 120.7255017  20.9309987  29.2565006 120.7255017
  26.8369987  31.1465006 125.6815017  27.7939987  31.1465006 125.6815017
  26.5969987  32.0735006 125.6815017  27.2949987  35.3225006 132.0455017
  28.2519987  35.3225006 132.0455017  27.0549987  36.2495006 132.0455017
  25.5089987  36.1485006 125.2185017  26.4659987  36.1485006 125.2185017
  25.2689987  37.0755006 125.2185017  30.8509987  31.3655006 131.7095017
  31.8079987  31.3655006 131.7095017  30.6109987  32.2925006 131.7095017
  33.1279987  32.3895006 120.7935017  34.0849987  32.3895006 120.7935017
  32.8879987  33.3165006 120.7935017  33.5539987  35.9385006 134.2055017
  34.5109987  35.9385006 134.2055017  33.3139987  36.8655006 134.2055017
  37.6019987  36.7655006 121.0365017  38.5589987  36.7655006 121.0365017
  37.3619987  37.6925006 121.0365017  21.6859987  23.2185006 133.6685017
  22.6429987  23.2185006 133.6685017  21.4459987  24.1455006 133.6685017
  33.9219987  31.0325006 123.0295017  34.8789987  31.0325006 123.0295017
  33.6819987  31.9595006 123.0295017  21.3179987  34.9685006 132.0015017
  22.2749987  34.9685006 132.0015017  21.0779987  35.8955006 132.0015017
  27.2459987  33.4755006 119.2725017  28.2029987  33.4755006 119.2725017
  27.0059987  34.4025006 119.2725017  26.0669987  33.0045006 121.7285017
  27.0239987  33.0045006 121.7285017  25.8269987  33.9315006 121.7285017
  22.5809987  30.2505006 122.2195017  23.5379987  30.2505006 122.2195017
  22.3409987  31.1775006 122.2195017  30.4219987  22.9355006 132.5225017
  31.3789987  22.9355006 132.5225017  30.1819987  23.8625006 132.5225017
  31.1699987  22.5245006 123.6165017  32.1269987  22.5245006 123.6165017
  30.9299987  23.4515006 123.6165017  28.8529987  34.6755006 122.4475017
  29.8099987  34.6755006 122.4475017  28.6129987  35.6025006 122.4475017
  28.3879987  24.2765006 124.4435017  29.3449987  24.2765006 124.4435017
  28.1479987  25.2035006 124.4435017  28.9499987  25.2755006 133.5685017
  29.9069987  25.2755006 133.5685017  28.7099987  26.2025006 133.5685017
  29.2479987  21.3355006 125.3495017  30.2049987  21.3355006 125.3495017
  29.0079987  22.2625006 125.3495017  26.2339987  35.7105006 122.4585017
  27.1909987  35.7105006 122.4585017  25.9939987  36.6375006 122.4585017
  24.8999987  22.4255006 122.0515017  25.8569987  22.4255006 122.0515017
  24.6599987  23.3525006 122.0515017  35.1329987  23.1335006 134.4045017
  36.0899987  23.1335006 134.4045017  34.8929987  24.0605006 134.4045017
  33.7319987  26.9495006 128.5095017  34.6889987  26.9495006 128.5095017
  33.4919987  27.8765006 128.5095017  23.1419987  32.8675006 121.1015017
  24.0989987  32.8675006 121.1015017  22.9019987  33.7945006 121.1015017
  21.4919987  25.5385006 120.2265017  22.4489987  25.5385006 120.2265017
  21.2519987  26.4655006 120.2265017  34.7969987  36.1945006 130.1545017
  35.7539987  36.1945006 130.1545017  34.5569987  37.1215006 130.1545017
  22.2969987  20.3285006 128.9535017  23.2539987  20.3285006 128.9535017
  22.0569987  21.2555006 128.9535017  21.2529987  34.2465006 125.1035017
  22.2099987  34.2465006 125.1035017  21.0129987  35.1735006 125.1035017
  20.3579987  36.9215006 136.3285017  21.3149987  36.9215006 136.3285017
  20.1179987  37.8485006 136.3285017  29.2519987  35.3275006 119.4055017
  30.2089987  35.3275006 119.4055017  29.0119987  36.2545006 119.4055017
  33.8239987  35.0865006 119.6065017  34.7809987  35.0865006 119.6065017
  33.5839987  36.0135006 119.6065017  24.7219987  31.0205006 119.4395017
  25.6789987  31.0205006 119.4395017  24.4819987  31.9475006 119.4395017
  30.1389987  32.1155006 119.1995017  31.0959987  32.1155006 119.1995017
  29.8989987  33.0425006 119.1995017  32.7819987  30.5965006 134.1735017
  33.7389987  30.5965006 134.1735017  32.5419987  31.5235006 134.1735017
  25.9219987  29.0195006 121.8185017  26.8789987  29.0195006 121.8185017
  25.6819987  29.9465006 121.8185017  25.1929987  26.8745006 134.1805017
  26.1499987  26.8745006 134.1805017  24.9529987  27.8015006 134.1805017
  26.9909987  27.2495006 120.0375017  27.9479987  27.2495006 120.0375017
  26.7509987  28.1765006 120.0375017  36.3469987  29.5815006 119.4785017
  37.3039987  29.5815006 119.4785017  36.1069987  30.5085006 119.4785017
  25.3499987  24.3295006 135.0735017  26.3069987  24.3295006 135.0735017
  25.1099987  25.2565006 135.0735017  25.9819987  22.5935006 132.7665017
  26.9389987  22.5935006 132.7665017  25.7419987  23.5205006 132.7665017
  27.5349987  28.0625006 132.9885017  28.4919987  28.0625006 132.9885017
  27.2949987  28.9895006 132.9885017  33.1319987  28.4575006 135.4985017
  34.0889987  28.4575006 135.4985017  32.8919987  29.3845006 135.4985017
  26.7779987  20.0595006 133.1775017  27.7349987  20.0595006 133.1775017
  26.5379987  20.9865006 133.1775017  30.7699987  23.4605006 135.7875017
  31.7269987  23.4605006 135.7875017  30.5299987  24.3875006 135.7875017
  27.0019987  19.4125006 135.8525017  27.9589987  19.4125006 135.8525017
  26.7619987  20.3395006 135.8525017  26.8379987  37.9425006 121.1125017
  27.7949987  37.9425006 121.1125017  26.5979987  38.8695006 121.1125017
  20.4029987  32.5515006 120.5745017  21.3599987  32.5515006 120.5745017
  20.1629987  33.4785006 120.5745017  19.1559987  37.9275006 125.5585017
  20.1129987  37.9275006 125.5585017  18.9159987  38.8545006 125.5585017
  19.9819987  36.0515006 127.4245017  20.9389987  36.0515006 127.4245017
  19.7419987  36.9785006 127.4245017  37.5189987  36.8525006 130.3645017
  38.4759987  36.8525006 130.3645017  37.2789987  37.7795006 130.3645017
  37.1209987  36.4425006 133.2885017  38.0779987  36.4425006 133.2885017
  36.8809987  37.3695006 133.2885017  36.8459987  30.4875006 123.4265017
  37.8029987  30.4875006 123.4265017  36.6059987  31.4145006 123.4265017
  37.2199987  28.5585006 125.2945017  38.1769987  28.5585006 125.2945017
  36.9799987  29.4855006 125.2945017  36.9719987  31.2705006 130.2715017
  37.9289987  31.2705006 130.2715017  36.7319987  32.1975006 130.2715017
  35.5149987  34.1555006 132.5625017  36.4719987  34.1555006 132.5625017
  35.2749987  35.0825006 132.5625017  37.5179987  28.3955006 121.6925017
  38.4749987  28.3955006 121.6925017  37.2779987  29.3225006 121.6925017
  35.8819987  25.6315006 120.2095017  36.8389987  25.6315006 120.2095017
  35.6419987  26.5585006 120.2095017  35.0329987  27.0435006 125.8595017
  35.9899987  27.0435006 125.8595017  34.7929987  27.9705006 125.8595017
  20.0409987  29.1225006 129.9045017  20.9979987  29.1225006 129.9045017
  19.8009987  30.0495006 129.9045017  35.8809987  28.8535006 135.0845017
  36.8379987  28.8535006 135.0845017  35.6409987  29.7805006 135.0845017
  37.4249987  26.9425006 136.1065017  38.3819987  26.9425006 136.1065017
  37.1849987  27.8695006 136.1065017  35.1229987  23.0885006 119.3255017
  36.0799987  23.0885006 119.3255017  34.8829987  24.0155006 119.3255017
  34.6959987  24.6265006 124.3045017  35.6529987  24.6265006 124.3045017
  34.4559987  25.5535006 124.3045017  35.3349987  25.1725006 129.7605017
  36.2919987  25.1725006 129.7605017  35.0949987  26.0995006 129.7605017
  35.4029987  25.9075006 132.5535017  36.3599987  25.9075006 132.5535017
  35.1629987  26.8345006 132.5535017  19.6559987  24.4115006 136.0585017
  20.6129987  24.4115006 136.0585017  19.4159987  25.3385006 136.0585017
  35.3669987  21.9095006 124.3705017  36.3239987  21.9095006 124.3705017
  35.1269987  22.8365006 124.3705017  20.8559987  22.7145006 128.9205017
  21.8129987  22.7145006 128.9205017  20.6159987  23.6415006 128.9205017
  19.1439987  25.7085006 129.9725017  20.1009987  25.7085006 129.9725017
  18.9039987  26.6355006 129.9725017  37.2639987  22.0595006 136.0775017
  38.2209987  22.0595006 136.0775017  37.0239987  22.9865006 136.0775017
  37.1929987  21.9485006 120.9235017  38.1499987  21.9485006 120.9235017
  36.9529987  22.8755006 120.9235017  19.5079987  21.9835006 124.0435017
  20.4649987  21.9835006 124.0435017  19.2679987  22.9105006 124.0435017
  34.2439987  36.9325006 125.9875017  35.2009987  36.9325006 125.9875017
  34.0039987  37.8595006 125.9875017  19.4759987  20.6695006 132.3565017
  20.4329987  20.6695006 132.3565017  19.2359987  21.5965006 132.3565017
  21.6909987  33.9485006 136.4455017  22.6479987  33.9485006 136.4455017
  21.4509987  34.8755006 136.4455017  24.5939987  34.8285006 132.7585017
  25.5509987  34.8285006 132.7585017  24.3539987  35.7555006 132.7585017
  28.8779987  36.4895006 135.4945017  29.8349987  36.4895006 135.4945017
  28.6379987  37.4165006 135.4945017  31.2409987  37.5385006 135.0035017
  32.1979987  37.5385006 135.0035017  31.0009987  38.4655006 135.0035017
  36.2159987  20.1585006 134.0755017  37.1729987  20.1585006 134.0755017
  35.9759987  21.0855006 134.0755017  22.0169987  38.0765006 132.7695017
  22.9739987  38.0765006 132.7695017  21.7769987  39.0035006 132.7695017
  24.4759987  37.6645006 131.8185017  25.4329987  37.6645006 131.8185017
  24.2359987  38.5915006 131.8185017  29.1939987  37.5705006 131.0195017
  30.1509987  37.5705006 131.0195017  28.9539987  38.4975006 131.0195017
  31.4949987  36.4135006 132.0095017  32.4519987  36.4135006 132.0095017
  31.2549987  37.3405006 132.0095017  34.0739987  37.9795006 132.2795017
  35.0309987  37.9795006 132.2795017  33.8339987  38.9065006 132.2795017
  21.4539987  36.7305006 129.7135017  22.4109987  36.7305006 129.7135017
  21.2139987  37.6575006 129.7135017  23.5499987  35.4415006 128.3695017
  24.5069987  35.4415006 128.3695017  23.3099987  36.3685006 128.3695017
  26.1439987  35.9215006 129.2425017  27.1009987  35.9215006 129.2425017
  25.9039987  36.8485006 129.2425017  29.6109987  21.5715006 128.3875017
  30.5679987  21.5715006 128.3875017  29.3709987  22.4985006 128.3875017
  34.7459987  19.6305006 128.4735017  35.7029987  19.6305006 128.4735017
  34.5059987  20.5575006 128.4735017  36.4249987  20.8535006 126.7545017
  37.3819987  20.8535006 126.7545017  36.1849987  21.7805006 126.7545017
  21.9699987  20.2055006 126.2235017  22.9269987  20.2055006 126.2235017
  21.7299987  21.1325006 126.2235017  20.7559987  19.9645006 121.9705017
  21.7129987  19.9645006 121.9705017  20.5159987  20.8915006 121.9705017
  26.4709987  20.1245006 126.0135017  27.4279987  20.1245006 126.0135017
  26.2309987  21.0515006 126.0135017  32.1389987  20.1505006 127.6535017
  33.0959987  20.1505006 127.6535017  31.8989987  21.0775006 127.6535017
  33.4359987  20.1805006 123.3345017  34.3929987  20.1805006 123.3345017
  33.1959987  21.1075006 123.3345017  20.6749987  35.9115006 122.9535017
  21.6319987  35.9115006 122.9535017  20.4349987  36.8385006 122.9535017
  22.5909987  21.9025006 120.4585017  23.5479987  21.9025006 120.4585017
  22.3509987  22.8295006 120.4585017  27.6139987  22.1595006 122.8715017
  28.5709987  22.1595006 122.8715017  27.3739987  23.0865006 122.8715017
  29.5329987  37.1925006 121.3185017  30.4899987  37.1925006 121.3185017
  29.2929987  38.1195006 121.3185017  36.2459987  36.7195006 124.0215017
  37.2029987  36.7195006 124.0215017  36.0059987  37.6465006 124.0215017
  21.8509987  20.7035006 135.6895017  22.8079987  20.7035006 135.6895017
  21.6109987  21.6305006 135.6895017  22.4679987  36.8835006 119.9195017
  23.4249987  36.8835006 119.9195017  22.2279987  37.8105006 119.9195017
  35.6629987  35.5665006 135.9015017  36.6199987  35.5665006 135.9015017
  35.4229987  36.4935006 135.9015017  49.9239987  29.3415006 126.0995017
  50.8809987  29.3415006 126.0995017  49.6839987  30.2685006 126.0995017
  48.7989987  28.6065006 129.5995017  49.7559987  28.6065006 129.5995017
  48.5589987  29.5335006 129.5995017  41.1309987  28.2595006 131.1585017
  42.0879987  28.2595006 131.1585017  40.8909987  29.1865006 131.1585017
  52.4819987  31.5445006 127.8705017  53.4389987  31.5445006 127.8705017
  52.2419987  32.4715006 127.8705017  42.0679987  32.7095006 129.6655017
  43.0249987  32.7095006 129.6655017  41.8279987  33.6365006 129.6655017
  38.7009987  26.2915006 125.1235017  39.6579987  26.2915006 125.1235017
  38.4609987  27.2185006 125.1235017  39.4089987  28.5035006 127.2625017
  40.3659987  28.5035006 127.2625017  39.1689987  29.4305006 127.2625017
  49.5949987  36.6925006 128.1065017  50.5519987  36.6925006 128.1065017
  49.3549987  37.6195006 128.1065017  47.1609987  31.0095006 130.0315017
  48.1179987  31.0095006 130.0315017  46.9209987  31.9365006 130.0315017
  55.7789987  22.6465006 130.8075017  56.7359987  22.6465006 130.8075017
  55.5389987  23.5735006 130.8075017  50.3229987  25.4655006 130.3575017
  51.2799987  25.4655006 130.3575017  50.0829987  26.3925006 130.3575017
  43.3899987  23.5435006 127.6145017  44.3469987  23.5435006 127.6145017
  43.1499987  24.4705006 127.6145017  51.1919987  23.6535006 125.9895017
  52.1489987  23.6535006 125.9895017  50.9519987  24.5805006 125.9895017
  40.0509987  25.9575006 128.3415017  41.0079987  25.9575006 128.3415017
  39.8109987  26.8845006 128.3415017  45.1629987  27.7965006 127.8785017
  46.1199987  27.7965006 127.8785017  44.9229987  28.7235006 127.8785017
  56.2139987  24.0815006 133.0585017  57.1709987  24.0815006 133.0585017
  55.9739987  25.0085006 133.0585017  42.3309987  22.4425006 131.6525017
  43.2879987  22.4425006 131.6525017  42.0909987  23.3695006 131.6525017
  49.6489987  31.9395006 125.1825017  50.6059987  31.9395006 125.1825017
  49.4089987  32.8665006 125.1825017  44.8659987  30.0975006 131.9005017
  45.8229987  30.0975006 131.9005017  44.6259987  31.0245006 131.9005017
  52.9769987  22.9755006 127.9555017  53.9339987  22.9755006 127.9555017
  52.7369987  23.9025006 127.9555017  41.8959987  24.3195006 129.6495017
  42.8529987  24.3195006 129.6495017  41.6559987  25.2465006 129.6495017
  43.2899987  32.0915006 132.6815017  44.2469987  32.0915006 132.6815017
  43.0499987  33.0185006 132.6815017  39.3889987  31.7235006 123.4975017
  40.3459987  31.7235006 123.4975017  39.1489987  32.6505006 123.4975017
  53.0069987  33.3775006 130.2395017  53.9639987  33.3775006 130.2395017
  52.7669987  34.3045006 130.2395017  53.3129987  21.6605006 131.6205017
  54.2699987  21.6605006 131.6205017  53.0729987  22.5875006 131.6205017
  46.3039987  19.7775006 129.1025017  47.2609987  19.7775006 129.1025017
  46.0639987  20.7045006 129.1025017  51.2629987  35.1655006 126.8425017
  52.2199987  35.1655006 126.8425017  51.0229987  36.0925006 126.8425017
  52.4599987  33.0905006 125.3495017  53.4169987  33.0905006 125.3495017
  52.2199987  34.0175006 125.3495017  54.1299987  31.6685006 133.8445017
  55.0869987  31.6685006 133.8445017  53.8899987  32.5955006 133.8445017
  48.5999987  28.6145006 123.6255017  49.5569987  28.6145006 123.6255017
  48.3599987  29.5415006 123.6255017  48.6499987  27.1115006 120.6245017
  49.6069987  27.1115006 120.6245017  48.4099987  28.0385006 120.6245017
  55.9689987  27.9775006 131.8835017  56.9259987  27.9775006 131.8835017
  55.7289987  28.9045006 131.8835017  52.0249987  28.7925006 124.5295017
  52.9819987  28.7925006 124.5295017  51.7849987  29.7195006 124.5295017
  51.9389987  26.9015006 133.5315017  52.8959987  26.9015006 133.5315017
  51.6989987  27.8285006 133.5315017  43.6289987  29.4705006 126.4335017
  44.5859987  29.4705006 126.4335017  43.3889987  30.3975006 126.4335017
  44.9729987  32.8455006 129.1245017  45.9299987  32.8455006 129.1245017
  44.7329987  33.7725006 129.1245017  43.9559987  28.2125006 130.1345017
  44.9129987  28.2125006 130.1345017  43.7159987  29.1395006 130.1345017
  50.3699987  33.7575006 130.8155017  51.3269987  33.7575006 130.8155017
  50.1299987  34.6845006 130.8155017  44.8759987  32.5625006 134.7915017
  45.8329987  32.5625006 134.7915017  44.6359987  33.4895006 134.7915017
  50.8869987  27.9835006 122.2065017  51.8439987  27.9835006 122.2065017
  50.6469987  28.9105006 122.2065017  41.8429987  28.7975006 134.0025017
  42.7999987  28.7975006 134.0025017  41.6029987  29.7245006 134.0025017
  48.6109987  34.7065006 125.6685017  49.5679987  34.7065006 125.6685017
  48.3709987  35.6335006 125.6685017  43.1369987  34.6235006 135.5825017
  44.0939987  34.6235006 135.5825017  42.8969987  35.5505006 135.5825017
  54.6259987  19.7115006 122.0885017  55.5829987  19.7115006 122.0885017
  54.3859987  20.6385006 122.0885017  42.6159987  28.5155006 124.0405017
  43.5729987  28.5155006 124.0405017  42.3759987  29.4425006 124.0405017
  55.7389987  34.0645006 120.4405017  56.6959987  34.0645006 120.4405017
  55.4989987  34.9915006 120.4405017  38.7159987  30.8995006 132.8985017
  39.6729987  30.8995006 132.8985017  38.4759987  31.8265006 132.8985017
  38.4649987  33.6345006 129.7305017  39.4219987  33.6345006 129.7305017
  38.2249987  34.5615006 129.7305017  56.7609987  34.3145006 135.3575017
  57.7179987  34.3145006 135.3575017  56.5209987  35.2415006 135.3575017
  47.6809987  33.9095006 134.2615017  48.6379987  33.9095006 134.2615017
  47.4409987  34.8365006 134.2615017  48.0939987  37.6295006 124.0855017
  49.0509987  37.6295006 124.0855017  47.8539987  38.5565006 124.0855017
  41.7329987  36.4945006 125.8955017  42.6899987  36.4945006 125.8955017
  41.4929987  37.4215006 125.8955017  51.1809987  36.8495006 121.0795017
  52.1379987  36.8495006 121.0795017  50.9409987  37.7765006 121.0795017
  50.8619987  36.7725006 123.8415017  51.8189987  36.7725006 123.8415017
  50.6219987  37.6995006 123.8415017  53.8489987  25.8465006 135.6815017
  54.8059987  25.8465006 135.6815017  53.6089987  26.7735006 135.6815017
  40.9759987  32.1945006 133.9035017  41.9329987  32.1945006 133.9035017
  40.7359987  33.1215006 133.9035017  43.6499987  20.6775006 129.8585017
  44.6069987  20.6775006 129.8585017  43.4099987  21.6045006 129.8585017
  48.2899987  20.3795006 133.2455017  49.2469987  20.3795006 133.2455017
  48.0499987  21.3065006 133.2455017  51.5769987  24.1755006 134.0945017
  52.5339987  24.1755006 134.0945017  51.3369987  25.1025006 134.0945017
  52.3479987  29.0075006 119.9645017  53.3049987  29.0075006 119.9645017
  52.1079987  29.9345006 119.9645017  47.8829987  22.9585006 120.5025017
  48.8399987  22.9585006 120.5025017  47.6429987  23.8855006 120.5025017
  43.7389987  25.6415006 131.0575017  44.6959987  25.6415006 131.0575017
  43.4989987  26.5685006 131.0575017  43.1389987  26.0315006 125.3145017
  44.0959987  26.0315006 125.3145017  42.8989987  26.9585006 125.3145017
  49.2369987  26.2735006 124.7405017  50.1939987  26.2735006 124.7405017
  48.9969987  27.2005006 124.7405017  48.2959987  26.2595006 135.9695017
  49.2529987  26.2595006 135.9695017  48.0559987  27.1865006 135.9695017
  50.3009987  25.7625006 127.5655017  51.2579987  25.7625006 127.5655017
  50.0609987  26.6895006 127.5655017  41.4219987  25.9245006 132.8285017
  42.3789987  25.9245006 132.8285017  41.1819987  26.8515006 132.8285017
  44.7779987  23.3085006 119.6275017  45.7349987  23.3085006 119.6275017
  44.5379987  24.2355006 119.6275017  38.0389987  23.0385006 126.7435017
  38.9959987  23.0385006 126.7435017  37.7989987  23.9655006 126.7435017
  39.2979987  23.7455006 122.0985017  40.2549987  23.7455006 122.0985017
  39.0579987  24.6725006 122.0985017  49.4849987  27.3685006 132.1875017
  50.4419987  27.3685006 132.1875017  49.2449987  28.2955006 132.1875017
  46.3019987  22.8325006 127.0665017  47.2589987  22.8325006 127.0665017
  46.0619987  23.7595006 127.0665017  40.9559987  24.7785006 125.9345017
  41.9129987  24.7785006 125.9345017  40.7159987  25.7055006 125.9345017
  44.7599987  24.8565006 123.3765017  45.7169987  24.8565006 123.3765017
  44.5199987  25.7835006 123.3765017  50.6859987  22.5535006 130.2175017
  51.6429987  22.5535006 130.2175017  50.4459987  23.4805006 130.2175017
  43.4209987  26.1165006 121.0295017  44.3779987  26.1165006 121.0295017
  43.1809987  27.0435006 121.0295017  53.9329987  38.1985006 136.4965017
  54.8899987  38.1985006 136.4965017  53.6929987  39.1255006 136.4965017
  41.4159987  30.6885006 136.0725017  42.3729987  30.6885006 136.0725017
  41.1759987  31.6155006 136.0725017  47.6379987  26.1135006 128.9305017
  48.5949987  26.1135006 128.9305017  47.3979987  27.0405006 128.9305017
  42.5649987  22.2195006 125.2885017  43.5219987  22.2195006 125.2885017
  42.3249987  23.1465006 125.2885017  46.1989987  24.3995006 131.3025017
  47.1559987  24.3995006 131.3025017  45.9589987  25.3265006 131.3025017
  46.7909987  30.6375006 122.9775017  47.7479987  30.6375006 122.9775017
  46.5509987  31.5645006 122.9775017  53.9459987  29.8345006 131.7765017
  54.9029987  29.8345006 131.7765017  53.7059987  30.7615006 131.7765017
  50.6719987  23.7235006 120.9775017  51.6289987  23.7235006 120.9775017
  50.4319987  24.6505006 120.9775017  48.2409987  30.8875006 134.1475017
  49.1979987  30.8875006 134.1475017  48.0009987  31.8145006 134.1475017
  51.3549987  25.4035006 122.8445017  52.3119987  25.4035006 122.8445017
  51.1149987  26.3305006 122.8445017  41.8989987  30.0035006 128.7615017
  42.8559987  30.0035006 128.7615017  41.6589987  30.9305006 128.7615017
  48.8959987  32.1105006 121.9985017  49.8529987  32.1105006 121.9985017
  48.6559987  33.0375006 121.9985017  38.8899987  28.4385006 134.0335017
  39.8469987  28.4385006 134.0335017  38.6499987  29.3655006 134.0335017
  46.0539987  28.3485006 135.7725017  47.0109987  28.3485006 135.7725017
  45.8139987  29.2755006 135.7725017  50.5799987  33.3445006 134.1745017
  51.5369987  33.3445006 134.1745017  50.3399987  34.2715006 134.1745017
  56.2649987  25.5145006 122.5475017  57.2219987  25.5145006 122.5475017
  56.0249987  26.4415006 122.5475017  56.2299987  31.3655006 135.3505017
  57.1869987  31.3655006 135.3505017  55.9899987  32.2925006 135.3505017
  54.5439987  34.3605006 122.9615017  55.5009987  34.3605006 122.9615017
  54.3039987  35.2875006 122.9615017  51.7399987  29.1745006 130.0155017
  52.6969987  29.1745006 130.0155017  51.4999987  30.1015006 130.0155017
  44.2689987  33.4825006 126.1545017  45.2259987  33.4825006 126.1545017
  44.0289987  34.4095006 126.1545017  40.0319987  28.3265006 120.7255017
  40.9889987  28.3265006 120.7255017  39.7919987  29.2535006 120.7255017
  45.6939987  31.1585006 125.6785017  46.6509987  31.1585006 125.6785017
  45.4539987  32.0855006 125.6785017  46.1489987  35.3245006 132.0465017
  47.1059987  35.3245006 132.0465017  45.9089987  36.2515006 132.0465017
  44.3649987  36.1505006 125.2185017  45.3219987  36.1505006 125.2185017
  44.1249987  37.0775006 125.2185017  49.7039987  31.3635006 131.7085017
  50.6609987  31.3635006 131.7085017  49.4639987  32.2905006 131.7085017
  51.9829987  32.3885006 120.7945017  52.9399987  32.3885006 120.7945017
  51.7429987  33.3155006 120.7945017  52.4109987  35.9385006 134.2055017
  53.3679987  35.9385006 134.2055017  52.1709987  36.8655006 134.2055017
  56.4679987  36.7725006 121.0715017  57.4249987  36.7725006 121.0715017
  56.2279987  37.6995006 121.0715017  40.5409987  23.1975006 133.6445017
  41.4979987  23.1975006 133.6445017  40.3009987  24.1245006 133.6445017
  52.7759987  31.0325006 123.0275017  53.7329987  31.0325006 123.0275017
  52.5359987  31.9595006 123.0275017  40.1749987  34.9685006 132.0015017
  41.1319987  34.9685006 132.0015017  39.9349987  35.8955006 132.0015017
  46.1239987  33.4665006 119.2925017  47.0809987  33.4665006 119.2925017
  45.8839987  34.3935006 119.2925017  44.9219987  33.0035006 121.7295017
  45.8789987  33.0035006 121.7295017  44.6819987  33.9305006 121.7295017
  41.4239987  30.2625006 122.1975017  42.3809987  30.2625006 122.1975017
  41.1839987  31.1895006 122.1975017  49.2779987  22.9345006 132.5225017
  50.2349987  22.9345006 132.5225017  49.0379987  23.8615006 132.5225017
  49.9589987  22.6465006 123.6965017  50.9159987  22.6465006 123.6965017
  49.7189987  23.5735006 123.6965017  47.7099987  34.6775006 122.4485017
  48.6669987  34.6775006 122.4485017  47.4699987  35.6045006 122.4485017
  47.3019987  24.2135006 124.4105017  48.2589987  24.2135006 124.4105017
  47.0619987  25.1405006 124.4105017  47.8059987  25.2755006 133.5685017
  48.7629987  25.2755006 133.5685017  47.5659987  26.2025006 133.5685017
  48.1209987  21.3235006 125.3775017  49.0779987  21.3235006 125.3775017
  47.8809987  22.2505006 125.3775017  45.0899987  35.7115006 122.4585017
  46.0469987  35.7115006 122.4585017  44.8499987  36.6385006 122.4585017
  43.7609987  22.4245006 122.0415017  44.7179987  22.4245006 122.0415017
  43.5209987  23.3515006 122.0415017  53.9879987  23.1325006 134.4045017
  54.9449987  23.1325006 134.4045017  53.7479987  24.0595006 134.4045017
  52.5909987  26.9515006 128.5105017  53.5479987  26.9515006 128.5105017
  52.3509987  27.8785006 128.5105017  42.0019987  32.8615006 121.1075017
  42.9589987  32.8615006 121.1075017  41.7619987  33.7885006 121.1075017
  40.3379987  25.5365006 120.2165017  41.2949987  25.5365006 120.2165017
  40.0979987  26.4635006 120.2165017  53.6539987  36.1905006 130.1525017
  54.6109987  36.1905006 130.1525017  53.4139987  37.1175006 130.1525017
  41.1539987  20.3265006 128.9535017  42.1109987  20.3265006 128.9535017
  40.9139987  21.2535006 128.9535017  40.1069987  34.2455006 125.1025017
  41.0639987  34.2455006 125.1025017  39.8669987  35.1725006 125.1025017
  39.2139987  36.9205006 136.3285017  40.1709987  36.9205006 136.3285017
  38.9739987  37.8475006 136.3285017  48.1249987  35.3225006 119.4685017
  49.0819987  35.3225006 119.4685017  47.8849987  36.2495006 119.4685017
  52.6789987  35.0845006 119.6055017  53.6359987  35.0845006 119.6055017
  52.4389987  36.0115006 119.6055017  43.5719987  31.0155006 119.4475017
  44.5289987  31.0155006 119.4475017  43.3319987  31.9425006 119.4475017
  48.9979987  32.1125006 119.1975017  49.9549987  32.1125006 119.1975017
  48.7579987  33.0395006 119.1975017  51.6379987  30.5965006 134.1735017
  52.5949987  30.5965006 134.1735017  51.3979987  31.5235006 134.1735017
  44.7789987  29.0285006 121.8245017  45.7359987  29.0285006 121.8245017
  44.5389987  29.9555006 121.8245017  44.0759987  26.8685006 134.1575017
  45.0329987  26.8685006 134.1575017  43.8359987  27.7955006 134.1575017
  45.8449987  27.2515006 120.0475017  46.8019987  27.2515006 120.0475017
  45.6049987  28.1785006 120.0475017  55.2019987  29.5805006 119.4765017
  56.1589987  29.5805006 119.4765017  54.9619987  30.5075006 119.4765017
  44.2469987  24.3135006 135.0745017  45.2039987  24.3135006 135.0745017
  44.0069987  25.2405006 135.0745017  44.8329987  22.5935006 132.7785017
  45.7899987  22.5935006 132.7785017  44.5929987  23.5205006 132.7785017
  46.4059987  28.0655006 132.9785017  47.3629987  28.0655006 132.9785017
  46.1659987  28.9925006 132.9785017  51.9899987  28.4575006 135.4985017
  52.9469987  28.4575006 135.4985017  51.7499987  29.3845006 135.4985017
  45.6339987  20.0595006 133.1775017  46.5909987  20.0595006 133.1775017
  45.3939987  20.9865006 133.1775017  49.6249987  23.4575006 135.7885017
  50.5819987  23.4575006 135.7885017  49.3849987  24.3845006 135.7885017
  45.8569987  19.4085006 135.8525017  46.8139987  19.4085006 135.8525017
  45.6169987  20.3355006 135.8525017  45.6969987  37.9465006 121.1065017
  46.6539987  37.9465006 121.1065017  45.4569987  38.8735006 121.1065017
  39.2549987  32.5485006 120.5775017  40.2119987  32.5485006 120.5775017
  39.0149987  33.4755006 120.5775017  38.0099987  37.9325006 125.5665017
  38.9669987  37.9325006 125.5665017  37.7699987  38.8595006 125.5665017
  38.8389987  36.0495006 127.4215017  39.7959987  36.0495006 127.4215017
  38.5989987  36.9765006 127.4215017  56.3769987  36.8515006 130.3635017
  57.3339987  36.8515006 130.3635017  56.1369987  37.7785006 130.3635017
  55.9979987  36.4435006 133.2825017  56.9549987  36.4435006 133.2825017
  55.7579987  37.3705006 133.2825017  55.7019987  30.4875006 123.4265017
  56.6589987  30.4875006 123.4265017  55.4619987  31.4145006 123.4265017
  56.0759987  28.5575006 125.2935017  57.0329987  28.5575006 125.2935017
  55.8359987  29.4845006 125.2935017  55.8289987  31.2715006 130.2735017
  56.7859987  31.2715006 130.2735017  55.5889987  32.1985006 130.2735017
  54.3709987  34.1565006 132.5625017  55.3279987  34.1565006 132.5625017
  54.1309987  35.0835006 132.5625017  56.3739987  28.3945006 121.6915017
  57.3309987  28.3945006 121.6915017  56.1339987  29.3215006 121.6915017
  54.7419987  25.6285006 120.2145017  55.6989987  25.6285006 120.2145017
  54.5019987  26.5555006 120.2145017  53.8899987  27.0435006 125.8605017
  54.8469987  27.0435006 125.8605017  53.6499987  27.9705006 125.8605017
  38.8959987  29.1225006 129.9045017  39.8529987  29.1225006 129.9045017
  38.6559987  30.0495006 129.9045017  54.7369987  28.8535006 135.0845017
  55.6939987  28.8535006 135.0845017  54.4969987  29.7805006 135.0845017
  56.2809987  26.9425006 136.1065017  57.2379987  26.9425006 136.1065017
  56.0409987  27.8695006 136.1065017  53.9869987  23.0855006 119.3425017
  54.9439987  23.0855006 119.3425017  53.7469987  24.0125006 119.3425017
  53.5569987  24.6365006 124.3055017  54.5139987  24.6365006 124.3055017
  53.3169987  25.5635006 124.3055017  54.1909987  25.1725006 129.7605017
  55.1479987  25.1725006 129.7605017  53.9509987  26.0995006 129.7605017
  54.2589987  25.9065006 132.5535017  55.2159987  25.9065006 132.5535017
  54.0189987  26.8335006 132.5535017  38.5029987  24.4025006 136.0425017
  39.4599987  24.4025006 136.0425017  38.2629987  25.3295006 136.0425017
  54.2319987  21.9065006 124.3705017  55.1889987  21.9065006 124.3705017
  53.9919987  22.8335006 124.3705017  39.7099987  22.7135006 128.9235017
  40.6669987  22.7135006 128.9235017  39.4699987  23.6405006 128.9235017
  37.9999987  25.7085006 129.9715017  38.9569987  25.7085006 129.9715017
  37.7599987  26.6355006 129.9715017  56.1199987  22.0595006 136.0775017
  57.0769987  22.0595006 136.0775017  55.8799987  22.9865006 136.0775017
  56.0599987  21.9475006 120.9205017  57.0169987  21.9475006 120.9205017
  55.8199987  22.8745006 120.9205017  38.3649987  21.9845006 124.0425017
  39.3219987  21.9845006 124.0425017  38.1249987  22.9115006 124.0425017
  53.1139987  36.9795006 125.9575017  54.0709987  36.9795006 125.9575017
  52.8739987  37.9065006 125.9575017  38.3309987  20.6695006 132.3565017
  39.2879987  20.6695006 132.3565017  38.0909987  21.5965006 132.3565017
  40.5459987  33.9515006 136.4465017  41.5029987  33.9515006 136.4465017
  40.3059987  34.8785006 136.4465017  43.4499987  34.8285006 132.7585017
  44.4069987  34.8285006 132.7585017  43.2099987  35.7555006 132.7585017
  47.7339987  36.4935006 135.4945017  48.6909987  36.4935006 135.4945017
  47.4939987  37.4205006 135.4945017  50.0979987  37.5385006 135.0025017
  51.0549987  37.5385006 135.0025017  49.8579987  38.4655006 135.0025017
  55.0719987  20.1585006 134.0755017  56.0289987  20.1585006 134.0755017
  54.8319987  21.0855006 134.0755017  40.8749987  38.0865006 132.7745017
  41.8319987  38.0865006 132.7745017  40.6349987  39.0135006 132.7745017
  43.3339987  37.6625006 131.8185017  44.2909987  37.6625006 131.8185017
  43.0939987  38.5895006 131.8185017  48.0489987  37.5725006 131.0195017
  49.0059987  37.5725006 131.0195017  47.8089987  38.4995006 131.0195017
  50.3509987  36.4135006 132.0095017  51.3079987  36.4135006 132.0095017
  50.1109987  37.3405006 132.0095017  52.9279987  37.9785006 132.2795017
  53.8849987  37.9785006 132.2795017  52.6879987  38.9055006 132.2795017
  40.3099987  36.7295006 129.7165017  41.2669987  36.7295006 129.7165017
  40.0699987  37.6565006 129.7165017  42.4049987  35.4415006 128.3695017
  43.3619987  35.4415006 128.3695017  42.1649987  36.3685006 128.3695017
  44.9969987  35.9245006 129.2435017  45.9539987  35.9245006 129.2435017
  44.7569987  36.8515006 129.2435017  48.5089987  21.5515006 128.4245017
  49.4659987  21.5515006 128.4245017  48.2689987  22.4785006 128.4245017
  53.6019987  19.6305006 128.4735017  54.5589987  19.6305006 128.4735017
  53.3619987  20.5575006 128.4735017  55.2789987  20.8535006 126.7555017
  56.2359987  20.8535006 126.7555017  55.0389987  21.7805006 126.7555017
  40.8259987  20.2045006 126.2235017  41.7829987  20.2045006 126.2235017
  40.5859987  21.1315006 126.2235017  39.6149987  19.9615006 121.9695017
  40.5719987  19.9615006 121.9695017  39.3749987  20.8885006 121.9695017
  45.3269987  20.1065006 126.0055017  46.2839987  20.1065006 126.0055017
  45.0869987  21.0335006 126.0055017  50.9999987  20.1505006 127.6435017
  51.9569987  20.1505006 127.6435017  50.7599987  21.0775006 127.6435017
  52.3299987  20.1815006 123.4335017  53.2869987  20.1815006 123.4335017
  52.0899987  21.1085006 123.4335017  39.5279987  35.9105006 122.9555017
  40.4849987  35.9105006 122.9555017  39.2879987  36.8375006 122.9555017
  41.4489987  21.9065006 120.4615017  42.4059987  21.9065006 120.4615017
  41.2089987  22.8335006 120.4615017  46.4309987  22.1525006 122.8765017
  47.3879987  22.1525006 122.8765017  46.1909987  23.0795006 122.8765017
  48.3909987  37.1995006 121.3245017  49.3479987  37.1995006 121.3245017
  48.1509987  38.1265006 121.3245017  55.1159987  36.7455006 124.0055017
  56.0729987  36.7455006 124.0055017  54.8759987  37.6725006 124.0055017
  40.7069987  20.7115006 135.6875017  41.6639987  20.7115006 135.6875017
  40.4669987  21.6385006 135.6875017  41.3219987  36.8805006 119.9245017
  42.2789987  36.8805006 119.9245017  41.0819987  37.8075006 119.9245017
  54.5249987  35.5665006 135.8935017  55.4819987  35.5665006 135.8935017
  54.2849987  36.4935006 135.8935017  68.7679987  29.3365006 126.1075017
  69.7249987  29.3365006 126.1075017  68.5279987  30.2635006 126.1075017
  67.6399987  28.6005006 129.5975017  68.5969987  28.6005006 129.5975017
  67.3999987  29.5275006 129.5975017  59.9889987  28.2585006 131.1585017
  60.9459987  28.2585006 131.1585017  59.7489987  29.1855006 131.1585017
  71.3379987  31.5435006 127.8715017  72.2949987  31.5435006 127.8715017
  71.0979987  32.4705006 127.8715017  60.9249987  32.7105006 129.6745017
  61.8819987  32.7105006 129.6745017  60.6849987  33.6375006 129.6745017
  57.5669987  26.2875006 125.1265017  58.5239987  26.2875006 125.1265017
  57.3269987  27.2145006 125.1265017  58.2629987  28.5015006 127.2605017
  59.2199987  28.5015006 127.2605017  58.0229987  29.4285006 127.2605017
  68.4499987  36.6935006 128.1065017  69.4069987  36.6935006 128.1065017
  68.2099987  37.6205006 128.1065017  66.0169987  31.0105006 130.0345017
  66.9739987  31.0105006 130.0345017  65.7769987  31.9375006 130.0345017
  74.6359987  22.6475006 130.8075017  75.5929987  22.6475006 130.8075017
  74.3959987  23.5745006 130.8075017  69.1719987  25.4645006 130.3585017
  70.1289987  25.4645006 130.3585017  68.9319987  26.3915006 130.3585017
  62.3099987  23.5495006 127.5915017  63.2669987  23.5495006 127.5915017
  62.0699987  24.4765006 127.5915017  70.0599987  23.6465006 125.9665017
  71.0169987  23.6465006 125.9665017  69.8199987  24.5735006 125.9665017
  58.9259987  25.9575006 128.3345017  59.8829987  25.9575006 128.3345017
  58.6859987  26.8845006 128.3345017  64.0859987  27.5185006 127.6185017
  65.0429987  27.5185006 127.6185017  63.8459987  28.4455006 127.6185017
  75.0909987  24.1015006 133.0595017  76.0479987  24.1015006 133.0595017
  74.8509987  25.0285006 133.0595017  61.1869987  22.4435006 131.6485017
  62.1439987  22.4435006 131.6485017  60.9469987  23.3705006 131.6485017
  68.5049987  31.9405006 125.1825017  69.4619987  31.9405006 125.1825017
  68.2649987  32.8675006 125.1825017  63.7189987  30.0965006 131.8955017
  64.6759987  30.0965006 131.8955017  63.4789987  31.0235006 131.8955017
  71.7899987  22.9665006 127.9685017  72.7469987  22.9665006 127.9685017
  71.5499987  23.8935006 127.9685017  60.7459987  24.3205006 129.6345017
  61.7029987  24.3205006 129.6345017  60.5059987  25.2475006 129.6345017
  62.1459987  32.0915006 132.6935017  63.1029987  32.0915006 132.6935017
  61.9059987  33.0185006 132.6935017  58.2459987  31.7235006 123.4965017
  59.2029987  31.7235006 123.4965017  58.0059987  32.6505006 123.4965017
  71.8639987  33.3775006 130.2395017  72.8209987  33.3775006 130.2395017
  71.6239987  34.3045006 130.2395017  72.1799987  21.6875006 131.6355017
  73.1369987  21.6875006 131.6355017  71.9399987  22.6145006 131.6355017
  65.1359987  19.7865006 129.0475017  66.0929987  19.7865006 129.0475017
  64.8959987  20.7135006 129.0475017  70.1139987  35.1635006 126.8415017
  71.0709987  35.1635006 126.8415017  69.8739987  36.0905006 126.8415017
  71.3159987  33.0905006 125.3495017  72.2729987  33.0905006 125.3495017
  71.0759987  34.0175006 125.3495017  72.9819987  31.6685006 133.8435017
  73.9389987  31.6685006 133.8435017  72.7419987  32.5955006 133.8435017
  67.4439987  28.5725006 123.6175017  68.4009987  28.5725006 123.6175017
  67.2039987  29.4995006 123.6175017  67.5039987  27.1155006 120.6265017
  68.4609987  27.1155006 120.6265017  67.2639987  28.0425006 120.6265017
  74.8249987  27.9775006 131.8835017  75.7819987  27.9775006 131.8835017
  74.5849987  28.9045006 131.8835017  70.8769987  28.7905006 124.5295017
  71.8339987  28.7905006 124.5295017  70.6369987  29.7175006 124.5295017
  70.7949987  26.9015006 133.5315017  71.7519987  26.9015006 133.5315017
  70.5549987  27.8285006 133.5315017  62.4969987  29.4525006 126.4445017
  63.4539987  29.4525006 126.4445017  62.2569987  30.3795006 126.4445017
  63.8299987  32.8425006 129.1235017  64.7869987  32.8425006 129.1235017
  63.5899987  33.7695006 129.1235017  62.8359987  28.1945006 130.0975017
  63.7929987  28.1945006 130.0975017  62.5959987  29.1215006 130.0975017
  69.2209987  33.7595006 130.8135017  70.1779987  33.7595006 130.8135017
  68.9809987  34.6865006 130.8135017  63.7339987  32.5765006 134.7695017
  64.6909987  32.5765006 134.7695017  63.4939987  33.5035006 134.7695017
  69.7459987  27.9775006 122.2075017  70.7029987  27.9775006 122.2075017
  69.5059987  28.9045006 122.2075017  60.6989987  28.7985006 134.0015017
  61.6559987  28.7985006 134.0015017  60.4589987  29.7255006 134.0015017
  67.4659987  34.7065006 125.6695017  68.4229987  34.7065006 125.6695017
  67.2259987  35.6335006 125.6695017  61.9689987  34.7125006 135.5475017
  62.9259987  34.7125006 135.5475017  61.7289987  35.6395006 135.5475017
  73.4689987  19.7135006 122.0785017  74.4259987  19.7135006 122.0785017
  73.2289987  20.6405006 122.0785017  61.4729987  28.4785006 124.0595017
  62.4299987  28.4785006 124.0595017  61.2329987  29.4055006 124.0595017
  74.5979987  34.0665006 120.4455017  75.5549987  34.0665006 120.4455017
  74.3579987  34.9935006 120.4455017  57.5739987  30.8995006 132.8985017
  58.5309987  30.8995006 132.8985017  57.3339987  31.8265006 132.8985017
  57.3209987  33.6465006 129.7165017  58.2779987  33.6465006 129.7165017
  57.0809987  34.5735006 129.7165017  75.6039987  34.3105006 135.3615017
  76.5609987  34.3105006 135.3615017  75.3639987  35.2375006 135.3615017
  66.5199987  33.9215006 134.2505017  67.4769987  33.9215006 134.2505017
  66.2799987  34.8485006 134.2505017  66.9459987  37.6295006 124.0865017
  67.9029987  37.6295006 124.0865017  66.7059987  38.5565006 124.0865017
  60.5829987  36.5155006 125.9045017  61.5399987  36.5155006 125.9045017
  60.3429987  37.4425006 125.9045017  70.0129987  36.8335006 121.0695017
  70.9699987  36.8335006 121.0695017  69.7729987  37.7605006 121.0695017
  69.7019987  36.7605006 123.8335017  70.6589987  36.7605006 123.8335017
  69.4619987  37.6875006 123.8335017  72.7049987  25.8455006 135.6815017
  73.6619987  25.8455006 135.6815017  72.4649987  26.7725006 135.6815017
  59.8279987  32.2145006 133.9135017  60.7849987  32.2145006 133.9135017
  59.5879987  33.1415006 133.9135017  62.5059987  20.6785006 129.8575017
  63.4629987  20.6785006 129.8575017  62.2659987  21.6055006 129.8575017
  67.1349987  20.4295006 133.2715017  68.0919987  20.4295006 133.2715017
  66.8949987  21.3565006 133.2715017  70.4319987  24.1755006 134.0945017
  71.3889987  24.1755006 134.0945017  70.1919987  25.1025006 134.0945017
  71.1989987  29.0155006 119.9565017  72.1559987  29.0155006 119.9565017
  70.9589987  29.9425006 119.9565017  66.8029987  22.9255006 120.5135017
  67.7599987  22.9255006 120.5135017  66.5629987  23.8525006 120.5135017
  62.5929987  25.6385006 131.0425017  63.5499987  25.6385006 131.0425017
  62.3529987  26.5655006 131.0425017  62.5709987  25.8045006 125.9465017
  63.5279987  25.8045006 125.9465017  62.3309987  26.7315006 125.9465017
  68.0859987  26.2525006 124.7415017  69.0429987  26.2525006 124.7415017
  67.8459987  27.1795006 124.7415017  67.1519987  26.2585006 135.9695017
  68.1089987  26.2585006 135.9695017  66.9119987  27.1855006 135.9695017
  69.0979987  25.7375006 127.5675017  70.0549987  25.7375006 127.5675017
  68.8579987  26.6645006 127.5675017  60.2789987  25.9245006 132.8285017
  61.2359987  25.9245006 132.8285017  60.0389987  26.8515006 132.8285017
  63.6349987  23.3155006 119.6375017  64.5919987  23.3155006 119.6375017
  63.3949987  24.2425006 119.6375017  56.8959987  23.0415006 126.7445017
  57.8529987  23.0415006 126.7445017  56.6559987  23.9685006 126.7445017
  58.1709987  23.7545006 122.1185017  59.1279987  23.7545006 122.1185017
  57.9309987  24.6815006 122.1185017  68.3399987  27.3685006 132.1855017
  69.2969987  27.3685006 132.1855017  68.0999987  28.2955006 132.1855017
  65.1669987  23.2735006 126.9845017  66.1239987  23.2735006 126.9845017
  64.9269987  24.2005006 126.9845017  59.9499987  24.8905006 125.8315017
  60.9069987  24.8905006 125.8315017  59.7099987  25.8175006 125.8315017
  63.5959987  24.9145006 123.4595017  64.5529987  24.9145006 123.4595017
  63.3559987  25.8415006 123.4595017  69.5409987  22.5835006 130.2055017
  70.4979987  22.5835006 130.2055017  69.3009987  23.5105006 130.2055017
  62.2879987  26.1045006 121.0515017  63.2449987  26.1045006 121.0515017
  62.0479987  27.0315006 121.0515017  72.7889987  38.1985006 136.4965017
  73.7459987  38.1985006 136.4965017  72.5489987  39.1255006 136.4965017
  60.2719987  30.6905006 136.0705017  61.2289987  30.6905006 136.0705017
  60.0319987  31.6175006 136.0705017  66.4139987  26.0625006 128.8505017
  67.3709987  26.0625006 128.8505017  66.1739987  26.9895006 128.8505017
  61.4329987  22.2285006 125.2985017  62.3899987  22.2285006 125.2985017
  61.1929987  23.1555006 125.2985017  65.0599987  24.4215006 131.2755017
  66.0169987  24.4215006 131.2755017  64.8199987  25.3485006 131.2755017
  65.6479987  30.6485006 122.9675017  66.6049987  30.6485006 122.9675017
  65.4079987  31.5755006 122.9675017  72.8019987  29.8345006 131.7765017
  73.7589987  29.8345006 131.7765017  72.5619987  30.7615006 131.7765017
  69.4779987  23.4505006 121.1825017  70.4349987  23.4505006 121.1825017
  69.2379987  24.3775006 121.1825017  67.0969987  30.8895006 134.1475017
  68.0539987  30.8895006 134.1475017  66.8569987  31.8165006 134.1475017
  70.2119987  25.3565006 122.8125017  71.1689987  25.3565006 122.8125017
  69.9719987  26.2835006 122.8125017  60.7509987  30.0155006 128.7685017
  61.7079987  30.0155006 128.7685017  60.5109987  30.9425006 128.7685017
  67.7539987  32.1105006 121.9995017  68.7109987  32.1105006 121.9995017
  67.5139987  33.0375006 121.9995017  57.7459987  28.4385006 134.0335017
  58.7029987  28.4385006 134.0335017  57.5059987  29.3655006 134.0335017
  64.9109987  28.3485006 135.7725017  65.8679987  28.3485006 135.7725017
  64.6709987  29.2755006 135.7725017  69.4349987  33.3445006 134.1745017
  70.3919987  33.3445006 134.1745017  69.1949987  34.2715006 134.1745017
  75.1189987  25.5185006 122.5495017  76.0759987  25.5185006 122.5495017
  74.8789987  26.4455006 122.5495017  75.0849987  31.3655006 135.3505017
  76.0419987  31.3655006 135.3505017  74.8449987  32.2925006 135.3505017
  73.3839987  34.3445006 122.9605017  74.3409987  34.3445006 122.9605017
  73.1439987  35.2715006 122.9605017  70.5949987  29.1745006 130.0155017
  71.5519987  29.1745006 130.0155017  70.3549987  30.1015006 130.0155017
  63.1249987  33.4825006 126.1545017  64.0819987  33.4825006 126.1545017
  62.8849987  34.4095006 126.1545017  58.8869987  28.3275006 120.7245017
  59.8439987  28.3275006 120.7245017  58.6469987  29.2545006 120.7245017
  64.5489987  31.1475006 125.6825017  65.5059987  31.1475006 125.6825017
  64.3089987  32.0745006 125.6825017  64.9829987  35.3485006 132.0815017
  65.9399987  35.3485006 132.0815017  64.7429987  36.2755006 132.0815017
  63.2169987  36.1545006 125.2225017  64.1739987  36.1545006 125.2225017
  62.9769987  37.0815006 125.2225017  68.5629987  31.3655006 131.7095017
  69.5199987  31.3655006 131.7095017  68.3229987  32.2925006 131.7095017
  70.8389987  32.3885006 120.7925017  71.7959987  32.3885006 120.7925017
  70.5989987  33.3155006 120.7925017  71.2659987  35.9385006 134.2055017
  72.2229987  35.9385006 134.2055017  71.0259987  36.8655006 134.2055017
  75.3159987  36.7645006 121.0365017  76.2729987  36.7645006 121.0365017
  75.0759987  37.6915006 121.0365017  59.3949987  23.1995006 133.6425017
  60.3519987  23.1995006 133.6425017  59.1549987  24.1265006 133.6425017
  71.6359987  31.0325006 123.0265017  72.5929987  31.0325006 123.0265017
  71.3959987  31.9595006 123.0265017  59.0599987  34.9835006 132.0075017
  60.0169987  34.9835006 132.0075017  58.8199987  35.9105006 132.0075017
  64.9589987  33.4735006 119.2735017  65.9159987  33.4735006 119.2735017
  64.7189987  34.4005006 119.2735017  63.7779987  33.0045006 121.7295017
  64.7349987  33.0045006 121.7295017  63.5379987  33.9315006 121.7295017
  60.2919987  30.2505006 122.2185017  61.2489987  30.2505006 122.2185017
  60.0519987  31.1775006 122.2185017  68.1459987  22.9215006 132.4965017
  69.1029987  22.9215006 132.4965017  67.9059987  23.8485006 132.4965017
  68.8729987  22.5305006 123.6625017  69.8299987  22.5305006 123.6625017
  68.6329987  23.4575006 123.6625017  66.5649987  34.6755006 122.4485017
  67.5219987  34.6755006 122.4485017  66.3249987  35.6025006 122.4485017
  66.1319987  24.2415006 124.4575017  67.0889987  24.2415006 124.4575017
  65.8919987  25.1685006 124.4575017  66.6619987  25.2735006 133.5665017
  67.6189987  25.2735006 133.5665017  66.4219987  26.2005006 133.5665017
  66.8089987  21.3435006 125.1535017  67.7659987  21.3435006 125.1535017
  66.5689987  22.2705006 125.1535017  63.9439987  35.7175006 122.4605017
  64.9009987  35.7175006 122.4605017  63.7039987  36.6445006 122.4605017
  62.6149987  22.4265006 122.0475017  63.5719987  22.4265006 122.0475017
  62.3749987  23.3535006 122.0475017  72.8459987  23.1365006 134.4055017
  73.8029987  23.1365006 134.4055017  72.6059987  24.0635006 134.4055017
  71.4519987  26.9555006 128.5095017  72.4089987  26.9555006 128.5095017
  71.2119987  27.8825006 128.5095017  60.8559987  32.8695006 121.1025017
  61.8129987  32.8695006 121.1025017  60.6159987  33.7965006 121.1025017
  59.1959987  25.5385006 120.2295017  60.1529987  25.5385006 120.2295017
  58.9559987  26.4655006 120.2295017  72.5089987  36.1945006 130.1545017
  73.4659987  36.1945006 130.1545017  72.2689987  37.1215006 130.1545017
  60.0089987  20.3285006 128.9535017  60.9659987  20.3285006 128.9535017
  59.7689987  21.2555006 128.9535017  58.9699987  34.2435006 125.1055017
  59.9269987  34.2435006 125.1055017  58.7299987  35.1705006 125.1055017
  58.0949987  36.9085006 136.3075017  59.0519987  36.9085006 136.3075017
  57.8549987  37.8355006 136.3075017  66.9649987  35.3275006 119.4095017
  67.9219987  35.3275006 119.4095017  66.7249987  36.2545006 119.4095017
  71.5359987  35.0865006 119.6055017  72.4929987  35.0865006 119.6055017
  71.2959987  36.0135006 119.6055017  62.4339987  31.0205006 119.4395017
  63.3909987  31.0205006 119.4395017  62.1939987  31.9475006 119.4395017
  67.8519987  32.1135006 119.1995017  68.8089987  32.1135006 119.1995017
  67.6119987  33.0405006 119.1995017  70.4939987  30.5965006 134.1735017
  71.4509987  30.5965006 134.1735017  70.2539987  31.5235006 134.1735017
  63.6359987  29.0245006 121.8295017  64.5929987  29.0245006 121.8295017
  63.3959987  29.9515006 121.8295017  62.9319987  26.8685006 134.1575017
  63.8889987  26.8685006 134.1575017  62.6919987  27.7955006 134.1575017
  64.7019987  27.2495006 120.0475017  65.6589987  27.2495006 120.0475017
  64.4619987  28.1765006 120.0475017  74.0579987  29.5805006 119.4765017
  75.0149987  29.5805006 119.4765017  73.8179987  30.5075006 119.4765017
  63.1029987  24.3135006 135.0745017  64.0599987  24.3135006 135.0745017
  62.8629987  25.2405006 135.0745017  63.6949987  22.5955006 132.7655017
  64.6519987  22.5955006 132.7655017  63.4549987  23.5225006 132.7655017
  65.2599987  28.0645006 132.9755017  66.2169987  28.0645006 132.9755017
  65.0199987  28.9915006 132.9755017  70.8459987  28.4575006 135.4985017
  71.8029987  28.4575006 135.4985017  70.6059987  29.3845006 135.4985017
  64.4869987  20.0535006 133.1795017  65.4439987  20.0535006 133.1795017
  64.2469987  20.9805006 133.1795017  68.4809987  23.4595006 135.7865017
  69.4379987  23.4595006 135.7865017  68.2409987  24.3865006 135.7865017
  64.6989987  19.4075006 135.8625017  65.6559987  19.4075006 135.8625017
  64.4589987  20.3345006 135.8625017  64.5559987  37.9285006 121.0895017
  65.5129987  37.9285006 121.0895017  64.3159987  38.8555006 121.0895017
  58.1109987  32.5495006 120.5775017  59.0679987  32.5495006 120.5775017
  57.8709987  33.4765006 120.5775017  56.8679987  37.9375006 125.5465017
  57.8249987  37.9375006 125.5465017  56.6279987  38.8645006 125.5465017
  57.6859987  36.0735006 127.4125017  58.6429987  36.0735006 127.4125017
  57.4459987  37.0005006 127.4125017  75.2309987  36.8525006 130.3645017
  76.1879987  36.8525006 130.3645017  74.9909987  37.7795006 130.3645017
  74.8339987  36.4415006 133.2885017  75.7909987  36.4415006 133.2885017
  74.5939987  37.3685006 133.2885017  74.5589987  30.4885006 123.4265017
  75.5159987  30.4885006 123.4265017  74.3189987  31.4155006 123.4265017
  74.9309987  28.5575006 125.2935017  75.8879987  28.5575006 125.2935017
  74.6909987  29.4845006 125.2935017  74.6829987  31.2695006 130.2705017
  75.6399987  31.2695006 130.2705017  74.4429987  32.1965006 130.2705017
  73.2269987  34.1555006 132.5625017  74.1839987  34.1555006 132.5625017
  72.9869987  35.0825006 132.5625017  75.2299987  28.3945006 121.6915017
  76.1869987  28.3945006 121.6915017  74.9899987  29.3215006 121.6915017
  73.5979987  25.6325006 120.2135017  74.5549987  25.6325006 120.2135017
  73.3579987  26.5595006 120.2135017  72.7449987  27.0455006 125.8585017
  73.7019987  27.0455006 125.8585017  72.5049987  27.9725006 125.8585017
  57.7529987  29.1245006 129.9055017  58.7099987  29.1245006 129.9055017
  57.5129987  30.0515006 129.9055017  73.5929987  28.8535006 135.0845017
  74.5499987  28.8535006 135.0845017  73.3529987  29.7805006 135.0845017
  75.1369987  26.9425006 136.1075017  76.0939987  26.9425006 136.1075017
  74.8969987  27.8695006 136.1075017  72.8369987  23.0885006 119.3465017
  73.7939987  23.0885006 119.3465017  72.5969987  24.0155006 119.3465017
  72.3929987  24.6175006 124.3035017  73.3499987  24.6175006 124.3035017
  72.1529987  25.5445006 124.3035017  73.0469987  25.1735006 129.7595017
  74.0039987  25.1735006 129.7595017  72.8069987  26.1005006 129.7595017
  73.1149987  25.9065006 132.5525017  74.0719987  25.9065006 132.5525017
  72.8749987  26.8335006 132.5525017  57.3589987  24.4025006 136.0425017
  58.3159987  24.4025006 136.0425017  57.1189987  25.3295006 136.0425017
  73.0529987  21.9175006 124.3865017  74.0099987  21.9175006 124.3865017
  72.8129987  22.8445006 124.3865017  58.5679987  22.7145006 128.9195017
  59.5249987  22.7145006 128.9195017  58.3279987  23.6415006 128.9195017
  56.8559987  25.7095006 129.9715017  57.8129987  25.7095006 129.9715017
  56.6159987  26.6365006 129.9715017  74.9759987  22.0605006 136.0775017
  75.9329987  22.0605006 136.0775017  74.7359987  22.9875006 136.0775017
  74.9059987  21.9485006 120.9245017  75.8629987  21.9485006 120.9245017
  74.6659987  22.8755006 120.9245017  57.2199987  21.9835006 124.0435017
  58.1769987  21.9835006 124.0435017  56.9799987  22.9105006 124.0435017
  71.9579987  36.9305006 125.9885017  72.9149987  36.9305006 125.9885017
  71.7179987  37.8575006 125.9885017  57.1859987  20.6705006 132.3565017
  58.1429987  20.6705006 132.3565017  56.9459987  21.5975006 132.3565017
  59.4099987  33.9735006 136.4425017  60.3669987  33.9735006 136.4425017
  59.1699987  34.9005006 136.4425017  62.3319987  34.7765006 132.7215017
  63.2889987  34.7765006 132.7215017  62.0919987  35.7035006 132.7215017
  66.5799987  36.4905006 135.4955017  67.5369987  36.4905006 135.4955017
  66.3399987  37.4175006 135.4955017  68.9509987  37.5365006 135.0055017
  69.9079987  37.5365006 135.0055017  68.7109987  38.4635006 135.0055017
  73.9359987  20.1635006 134.0775017  74.8929987  20.1635006 134.0775017
  73.6959987  21.0905006 134.0775017  59.7429987  38.0785006 132.8035017
  60.6999987  38.0785006 132.8035017  59.5029987  39.0055006 132.8035017
  62.1759987  37.7045006 131.7285017  63.1329987  37.7045006 131.7285017
  61.9359987  38.6315006 131.7285017  66.8739987  37.5605006 131.0365017
  67.8309987  37.5605006 131.0365017  66.6339987  38.4875006 131.0365017
  69.2069987  36.4135006 132.0085017  70.1639987  36.4135006 132.0085017
  68.9669987  37.3405006 132.0085017  71.7859987  37.9795006 132.2785017
  72.7429987  37.9795006 132.2785017  71.5459987  38.9065006 132.2785017
  59.1929987  36.7625006 129.7325017  60.1499987  36.7625006 129.7325017
  58.9529987  37.6895006 129.7325017  61.2529987  35.4635006 128.3885017
  62.2099987  35.4635006 128.3885017  61.0129987  36.3905006 128.3885017
  63.8429987  35.9175006 129.2525017  64.7999987  35.9175006 129.2525017
  63.6029987  36.8445006 129.2525017  67.2049987  21.4635006 128.7475017
  68.1619987  21.4635006 128.7475017  66.9649987  22.3905006 128.7475017
  72.4739987  19.6425006 128.4655017  73.4309987  19.6425006 128.4655017
  72.2339987  20.5695006 128.4655017  74.1249987  20.8585006 126.7465017
  75.0819987  20.8585006 126.7465017  73.8849987  21.7855006 126.7465017
  59.6849987  20.2045006 126.2235017  60.6419987  20.2045006 126.2235017
  59.4449987  21.1315006 126.2235017  58.4709987  19.9615006 121.9705017
  59.4279987  19.9615006 121.9705017  58.2309987  20.8885006 121.9705017
  64.1819987  20.1275006 126.0175017  65.1389987  20.1275006 126.0175017
  63.9419987  21.0545006 126.0175017  69.7969987  20.1615006 127.6275017
  70.7539987  20.1615006 127.6275017  69.5569987  21.0885006 127.6275017
  71.1409987  20.1915006 123.3665017  72.0979987  20.1915006 123.3665017
  70.9009987  21.1185006 123.3665017  58.3669987  35.9075006 122.9655017
  59.3239987  35.9075006 122.9655017  58.1269987  36.8345006 122.9655017
  60.3029987  21.9035006 120.4555017  61.2599987  21.9035006 120.4555017
  60.0629987  22.8305006 120.4555017  65.3429987  22.1575006 122.8775017
  66.2999987  22.1575006 122.8775017  65.1029987  23.0845006 122.8775017
  67.2459987  37.1925006 121.3195017  68.2029987  37.1925006 121.3195017
  67.0059987  38.1195006 121.3195017  73.9579987  36.7195006 124.0205017
  74.9149987  36.7195006 124.0205017  73.7179987  37.6465006 124.0205017
  59.5629987  20.7115006 135.6875017  60.5199987  20.7115006 135.6875017
  59.3229987  21.6385006 135.6875017  60.1799987  36.8815006 119.9275017
  61.1369987  36.8815006 119.9275017  59.9399987  37.8085006 119.9275017
  73.3759987  35.5665006 135.9025017  74.3329987  35.5665006 135.9025017
  73.1359987  36.4935006 135.9025017  87.6259987  29.3375006 126.1055017
  88.5829987  29.3375006 126.1055017  87.3859987  30.2645006 126.1055017
  86.4969987  28.5905006 129.5885017  87.4539987  28.5905006 129.5885017
  86.2569987  29.5175006 129.5885017  78.8449987  28.2585006 131.1575017
  79.8019987  28.2585006 131.1575017  78.6049987  29.1855006 131.1575017
  90.1969987  31.5425006 127.8595017  91.1539987  31.5425006 127.8595017
  89.9569987  32.4695006 127.8595017  79.7799987  32.7105006 129.6655017
  80.7369987  32.7105006 129.6655017  79.5399987  33.6375006 129.6655017
  76.4229987  26.2875006 125.1275017  77.3799987  26.2875006 125.1275017
  76.1829987  27.2145006 125.1275017  77.1189987  28.5015006 127.2605017
  78.0759987  28.5015006 127.2605017  76.8789987  29.4285006 127.2605017
  87.3069987  36.6925006 128.1095017  88.2639987  36.6925006 128.1095017
  87.0669987  37.6195006 128.1095017  84.8509987  31.0185006 130.0285017
  85.8079987  31.0185006 130.0285017  84.6109987  31.9455006 130.0285017
  93.4909987  22.6465006 130.8075017  94.4479987  22.6465006 130.8075017
  93.2509987  23.5735006 130.8075017  88.0379987  25.4565006 130.3625017
  88.9949987  25.4565006 130.3625017  87.7979987  26.3835006 130.3625017
  81.1609987  23.5505006 127.5935017  82.1179987  23.5505006 127.5935017
  80.9209987  24.4775006 127.5935017  88.8949987  23.6405006 125.9635017
  89.8519987  23.6405006 125.9635017  88.6549987  24.5675006 125.9635017
  77.7819987  25.9575006 128.3345017  78.7389987  25.9575006 128.3345017
  77.5419987  26.8845006 128.3345017  82.9449987  27.5155006 127.6195017
  83.9019987  27.5155006 127.6195017  82.7049987  28.4425006 127.6195017
  93.9269987  24.0835006 133.0585017  94.8839987  24.0835006 133.0585017
  93.6869987  25.0105006 133.0585017  80.0429987  22.4435006 131.6485017
  80.9999987  22.4435006 131.6485017  79.8029987  23.3705006 131.6485017
  87.3609987  31.9395006 125.1825017  88.3179987  31.9395006 125.1825017
  87.1209987  32.8665006 125.1825017  82.5729987  30.0935006 131.8955017
  83.5299987  30.0935006 131.8955017  82.3329987  31.0205006 131.8955017
  90.6859987  22.9775006 127.9555017  91.6429987  22.9775006 127.9555017
  90.4459987  23.9045006 127.9555017  79.6019987  24.3215006 129.6355017
  80.5589987  24.3215006 129.6355017  79.3619987  25.2485006 129.6355017
  81.0019987  32.0915006 132.6805017  81.9589987  32.0915006 132.6805017
  80.7619987  33.0185006 132.6805017  77.1019987  31.7235006 123.4965017
  78.0589987  31.7235006 123.4965017  76.8619987  32.6505006 123.4965017
  90.7249987  33.3845006 130.1795017  91.6819987  33.3845006 130.1795017
  90.4849987  34.3115006 130.1795017  91.0239987  21.6605006 131.6195017
  91.9809987  21.6605006 131.6195017  90.7839987  22.5875006 131.6195017
  84.0149987  19.7795006 129.0975017  84.9719987  19.7795006 129.0975017
  83.7749987  20.7065006 129.0975017  88.9699987  35.1635006 126.8415017
  89.9269987  35.1635006 126.8415017  88.7299987  36.0905006 126.8415017
  90.1719987  33.0905006 125.3495017  91.1289987  33.0905006 125.3495017
  89.9319987  34.0175006 125.3495017  91.9369987  31.6515006 133.8615017
  92.8939987  31.6515006 133.8615017  91.6969987  32.5785006 133.8615017
  86.2989987  28.5815006 123.6175017  87.2559987  28.5815006 123.6175017
  86.0589987  29.5085006 123.6175017  86.3599987  27.1165006 120.6265017
  87.3169987  27.1165006 120.6265017  86.1199987  28.0435006 120.6265017
  93.6769987  27.9805006 131.8835017  94.6339987  27.9805006 131.8835017
  93.4369987  28.9075006 131.8835017  89.7369987  28.7955006 124.5295017
  90.6939987  28.7955006 124.5295017  89.4969987  29.7225006 124.5295017
  89.6499987  26.8975006 133.5205017  90.6069987  26.8975006 133.5205017
  89.4099987  27.8245006 133.5205017  81.3529987  29.4525006 126.4445017
  82.3099987  29.4525006 126.4445017  81.1129987  30.3795006 126.4445017
  82.6859987  32.8505006 129.1255017  83.6429987  32.8505006 129.1255017
  82.4459987  33.7775006 129.1255017  81.6959987  28.1985006 130.0995017
  82.6529987  28.1985006 130.0995017  81.4559987  29.1255006 130.0995017
  87.9509987  33.7885006 130.7035017  88.9079987  33.7885006 130.7035017
  87.7109987  34.7155006 130.7035017  82.5899987  32.5555006 134.7935017
  83.5469987  32.5555006 134.7935017  82.3499987  33.4825006 134.7935017
  88.6009987  27.9795006 122.2075017  89.5579987  27.9795006 122.2075017
  88.3609987  28.9065006 122.2075017  79.5549987  28.7975006 134.0015017
  80.5119987  28.7975006 134.0015017  79.3149987  29.7245006 134.0015017
  86.3229987  34.7055006 125.6695017  87.2799987  34.7055006 125.6695017
  86.0829987  35.6325006 125.6695017  80.8479987  34.6235006 135.5825017
  81.8049987  34.6235006 135.5825017  80.6079987  35.5505006 135.5825017
  92.3489987  19.7265006 122.1045017  93.3059987  19.7265006 122.1045017
  92.1089987  20.6535006 122.1045017  80.3289987  28.4785006 124.0595017
  81.2859987  28.4785006 124.0595017  80.0889987  29.4055006 124.0595017
  93.4509987  34.0705006 120.4425017  94.4079987  34.0705006 120.4425017
  93.2109987  34.9975006 120.4425017  76.4279987  30.8985006 132.8985017
  77.3849987  30.8985006 132.8985017  76.1879987  31.8255006 132.8985017
  76.1769987  33.6345006 129.7305017  77.1339987  33.6345006 129.7305017
  75.9369987  34.5615006 129.7305017  94.4529987  34.3055006 135.3585017
  95.4099987  34.3055006 135.3585017  94.2129987  35.2325006 135.3585017
  85.2959987  33.9115006 134.2205017  86.2529987  33.9115006 134.2205017
  85.0559987  34.8385006 134.2205017  85.8039987  37.6285006 124.0865017
  86.7609987  37.6285006 124.0865017  85.5639987  38.5555006 124.0865017
  79.4449987  36.4935006 125.8925017  80.4019987  36.4935006 125.8925017
  79.2049987  37.4205006 125.8925017  88.8689987  36.8335006 121.0685017
  89.8259987  36.8335006 121.0685017  88.6289987  37.7605006 121.0685017
  88.5579987  36.7605006 123.8335017  89.5149987  36.7605006 123.8335017
  88.3179987  37.6875006 123.8335017  91.5659987  25.8535006 135.6765017
  92.5229987  25.8535006 135.6765017  91.3259987  26.7805006 135.6765017
  78.6929987  32.1955006 133.9045017  79.6499987  32.1955006 133.9045017
  78.4529987  33.1225006 133.9045017  81.3629987  20.6785006 129.8565017
  82.3199987  20.6785006 129.8565017  81.1229987  21.6055006 129.8565017
  86.0019987  20.3795006 133.2455017  86.9589987  20.3795006 133.2455017
  85.7619987  21.3065006 133.2455017  89.2889987  24.1725006 134.0945017
  90.2459987  24.1725006 134.0945017  89.0489987  25.0995006 134.0945017
  90.0549987  29.0155006 119.9575017  91.0119987  29.0155006 119.9575017
  89.8149987  29.9425006 119.9575017  85.6529987  22.9255006 120.5215017
  86.6099987  22.9255006 120.5215017  85.4129987  23.8525006 120.5215017
  81.4479987  25.6385006 131.0445017  82.4049987  25.6385006 131.0445017
  81.2079987  26.5655006 131.0445017  81.4259987  25.8055006 125.9465017
  82.3829987  25.8055006 125.9465017  81.1859987  26.7325006 125.9465017
  86.9489987  26.2745006 124.7395017  87.9059987  26.2745006 124.7395017
  86.7089987  27.2015006 124.7395017  86.0079987  26.2605006 135.9705017
  86.9649987  26.2605006 135.9705017  85.7679987  27.1875006 135.9705017
  87.9769987  25.7555006 127.5685017  88.9339987  25.7555006 127.5685017
  87.7369987  26.6825006 127.5685017  79.1339987  25.9245006 132.8285017
  80.0909987  25.9245006 132.8285017  78.8939987  26.8515006 132.8285017
  82.4909987  23.3135006 119.6385017  83.4479987  23.3135006 119.6385017
  82.2509987  24.2405006 119.6385017  75.7519987  23.0415006 126.7445017
  76.7089987  23.0415006 126.7445017  75.5119987  23.9685006 126.7445017
  77.0259987  23.7545006 122.1185017  77.9829987  23.7545006 122.1185017
  76.7859987  24.6815006 122.1185017  87.1899987  27.3555006 132.1835017
  88.1469987  27.3555006 132.1835017  86.9499987  28.2825006 132.1835017
  83.9819987  23.3145006 126.9795017  84.9389987  23.3145006 126.9795017
  83.7419987  24.2415006 126.9795017  78.8059987  24.8905006 125.8315017
  79.7629987  24.8905006 125.8315017  78.5659987  25.8175006 125.8315017
  82.4529987  24.9155006 123.4555017  83.4099987  24.9155006 123.4555017
  82.2129987  25.8425006 123.4555017  88.3959987  22.5515006 130.2195017
  89.3529987  22.5515006 130.2195017  88.1559987  23.4785006 130.2195017
  81.1429987  26.1055006 121.0515017  82.0999987  26.1055006 121.0515017
  80.9029987  27.0325006 121.0515017  91.6519987  38.2115006 136.5025017
  92.6089987  38.2115006 136.5025017  91.4119987  39.1385006 136.5025017
  79.1269987  30.6885006 136.0735017  80.0839987  30.6885006 136.0735017
  78.8869987  31.6155006 136.0735017  85.2689987  26.0685006 128.8555017
  86.2259987  26.0685006 128.8555017  85.0289987  26.9955006 128.8555017
  80.2889987  22.2285006 125.2985017  81.2459987  22.2285006 125.2985017
  80.0489987  23.1555006 125.2985017  83.9149987  24.4135006 131.2775017
  84.8719987  24.4135006 131.2775017  83.6749987  25.3405006 131.2775017
  84.5039987  30.6485006 122.9675017  85.4609987  30.6485006 122.9675017
  84.2639987  31.5755006 122.9675017  91.6629987  29.8185006 131.7715017
  92.6199987  29.8185006 131.7715017  91.4229987  30.7455006 131.7715017
  88.3379987  23.4705006 121.1625017  89.2949987  23.4705006 121.1625017
  88.0979987  24.3975006 121.1625017  85.9459987  30.8775006 134.1565017
  86.9029987  30.8775006 134.1565017  85.7059987  31.8045006 134.1565017
  89.0709987  25.3665006 122.7975017  90.0279987  25.3665006 122.7975017
  88.8309987  26.2935006 122.7975017  79.6069987  30.0145006 128.7675017
  80.5639987  30.0145006 128.7675017  79.3669987  30.9415006 128.7675017
  86.6099987  32.1105006 121.9995017  87.5669987  32.1105006 121.9995017
  86.3699987  33.0375006 121.9995017  76.6019987  28.4385006 134.0335017
  77.5589987  28.4385006 134.0335017  76.3619987  29.3655006 134.0335017
  83.7659987  28.3475006 135.7745017  84.7229987  28.3475006 135.7745017
  83.5259987  29.2745006 135.7745017  87.8419987  34.1905006 134.6385017
  88.7989987  34.1905006 134.6385017  87.6019987  35.1175006 134.6385017
  93.9789987  25.5125006 122.5475017  94.9359987  25.5125006 122.5475017
  93.7389987  26.4395006 122.5475017  93.9599987  31.3675006 135.3605017
  94.9169987  31.3675006 135.3605017  93.7199987  32.2945006 135.3605017
  92.2419987  34.3445006 122.9585017  93.1989987  34.3445006 122.9585017
  92.0019987  35.2715006 122.9585017  89.4529987  29.1735006 130.0025017
  90.4099987  29.1735006 130.0025017  89.2129987  30.1005006 130.0025017
  81.9819987  33.4815006 126.1535017  82.9389987  33.4815006 126.1535017
  81.7419987  34.4085006 126.1535017  77.7429987  28.3275006 120.7245017
  78.6999987  28.3275006 120.7245017  77.5029987  29.2545006 120.7245017
  83.4049987  31.1475006 125.6825017  84.3619987  31.1475006 125.6825017
  83.1649987  32.0745006 125.6825017  83.8659987  35.3215006 132.0495017
  84.8229987  35.3215006 132.0495017  83.6259987  36.2485006 132.0495017
  82.0779987  36.1475006 125.2175017  83.0349987  36.1475006 125.2175017
  81.8379987  37.0745006 125.2175017  87.0619987  31.0765006 131.4745017
  88.0189987  31.0765006 131.4745017  86.8219987  32.0035006 131.4745017
  89.6959987  32.3885006 120.7925017  90.6529987  32.3885006 120.7925017
  89.4559987  33.3155006 120.7925017  90.1559987  35.9405006 134.2015017
  91.1129987  35.9405006 134.2015017  89.9159987  36.8675006 134.2015017
  94.1709987  36.7655006 121.0355017  95.1279987  36.7655006 121.0355017
  93.9309987  37.6925006 121.0355017  78.2529987  23.1985006 133.6425017
  79.2099987  23.1985006 133.6425017  78.0129987  24.1255006 133.6425017
  90.4909987  31.0315006 123.0275017  91.4479987  31.0315006 123.0275017
  90.2509987  31.9585006 123.0275017  77.8869987  34.9685006 132.0015017
  78.8439987  34.9685006 132.0015017  77.6469987  35.8955006 132.0015017
  83.8149987  33.4735006 119.2725017  84.7719987  33.4735006 119.2725017
  83.5749987  34.4005006 119.2725017  82.6349987  33.0045006 121.7285017
  83.5919987  33.0045006 121.7285017  82.3949987  33.9315006 121.7285017
  79.1479987  30.2505006 122.2195017  80.1049987  30.2505006 122.2195017
  78.9079987  31.1775006 122.2195017  86.9899987  22.9345006 132.5225017
  87.9469987  22.9345006 132.5225017  86.7499987  23.8615006 132.5225017
  87.7379987  22.5215006 123.6125017  88.6949987  22.5215006 123.6125017
  87.4979987  23.4485006 123.6125017  85.4209987  34.6755006 122.4475017
  86.3779987  34.6755006 122.4475017  85.1809987  35.6025006 122.4475017
  84.9559987  24.2775006 124.4435017  85.9129987  24.2775006 124.4435017
  84.7159987  25.2045006 124.4435017  85.5229987  25.2805006 133.5695017
  86.4799987  25.2805006 133.5695017  85.2829987  26.2075006 133.5695017
  85.8159987  21.3365006 125.3465017  86.7729987  21.3365006 125.3465017
  85.5759987  22.2635006 125.3465017  82.8019987  35.7115006 122.4585017
  83.7589987  35.7115006 122.4585017  82.5619987  36.6385006 122.4585017
  81.4669987  22.4375006 122.0545017  82.4239987  22.4375006 122.0545017
  81.2269987  23.3645006 122.0545017  91.6989987  23.1335006 134.4055017
  92.6559987  23.1335006 134.4055017  91.4589987  24.0605006 134.4055017
  90.3009987  26.9485006 128.5085017  91.2579987  26.9485006 128.5085017
  90.0609987  27.8755006 128.5085017  79.7099987  32.8675006 121.1005017
  80.6669987  32.8675006 121.1005017  79.4699987  33.7945006 121.1005017
  78.0519987  25.5375006 120.2305017  79.0089987  25.5375006 120.2305017
  77.8119987  26.4645006 120.2305017  91.3659987  36.1995006 130.1495017
  92.3229987  36.1995006 130.1495017  91.1259987  37.1265006 130.1495017
  78.8649987  20.3285006 128.9535017  79.8219987  20.3285006 128.9535017
  78.6249987  21.2555006 128.9535017  77.8179987  34.2455006 125.1025017
  78.7749987  34.2455006 125.1025017  77.5779987  35.1725006 125.1025017
  76.9259987  36.9205006 136.3285017  77.8829987  36.9205006 136.3285017
  76.6859987  37.8475006 136.3285017  85.8209987  35.3285006 119.4065017
  86.7779987  35.3285006 119.4065017  85.5809987  36.2555006 119.4065017
  90.3919987  35.0865006 119.6055017  91.3489987  35.0865006 119.6055017
  90.1519987  36.0135006 119.6055017  81.2899987  31.0205006 119.4395017
  82.2469987  31.0205006 119.4395017  81.0499987  31.9475006 119.4395017
  86.7069987  32.1135006 119.1995017  87.6639987  32.1135006 119.1995017
  86.4669987  33.0405006 119.1995017  89.5429987  30.3695006 134.5365017
  90.4999987  30.3695006 134.5365017  89.3029987  31.2965006 134.5365017
  82.4849987  29.0285006 121.8255017  83.4419987  29.0285006 121.8255017
  82.2449987  29.9555006 121.8255017  81.7879987  26.8685006 134.1575017
  82.7449987  26.8685006 134.1575017  81.5479987  27.7955006 134.1575017
  83.5579987  27.2505006 120.0475017  84.5149987  27.2505006 120.0475017
  83.3179987  28.1775006 120.0475017  92.9139987  29.5805006 119.4765017
  93.8709987  29.5805006 119.4765017  92.6739987  30.5075006 119.4765017
  81.9579987  24.3135006 135.0735017  82.9149987  24.3135006 135.0735017
  81.7179987  25.2405006 135.0735017  82.5489987  22.5935006 132.7665017
  83.5059987  22.5935006 132.7665017  82.3089987  23.5205006 132.7665017
  84.1329987  28.0725006 132.9825017  85.0899987  28.0725006 132.9825017
  83.8929987  28.9995006 132.9825017  89.7169987  28.2405006 135.6265017
  90.6739987  28.2405006 135.6265017  89.4769987  29.1675006 135.6265017
  83.3459987  20.0595006 133.1775017  84.3029987  20.0595006 133.1775017
  83.1059987  20.9865006 133.1775017  87.3369987  23.4605006 135.7855017
  88.2939987  23.4605006 135.7855017  87.0969987  24.3875006 135.7855017
  83.5689987  19.4085006 135.8535017  84.5259987  19.4085006 135.8535017
  83.3289987  20.3355006 135.8535017  83.4049987  37.9465006 121.1085017
  84.3619987  37.9465006 121.1085017  83.1649987  38.8735006 121.1085017
  76.9669987  32.5485006 120.5775017  77.9239987  32.5485006 120.5775017
  76.7269987  33.4755006 120.5775017  75.7229987  37.9325006 125.5665017
  76.6799987  37.9325006 125.5665017  75.4829987  38.8595006 125.5665017
  76.5519987  36.0495006 127.4225017  77.5089987  36.0495006 127.4225017
  76.3119987  36.9765006 127.4225017  94.0879987  36.8525006 130.3655017
  95.0449987  36.8525006 130.3655017  93.8479987  37.7795006 130.3655017
  93.6849987  36.4385006 133.2865017  94.6419987  36.4385006 133.2865017
  93.4449987  37.3655006 133.2865017  93.4139987  30.4875006 123.4265017
  94.3709987  30.4875006 123.4265017  93.1739987  31.4145006 123.4265017
  93.7869987  28.5575006 125.2935017  94.7439987  28.5575006 125.2935017
  93.5469987  29.4845006 125.2935017  93.5479987  31.2655006 130.2625017
  94.5049987  31.2655006 130.2625017  93.3079987  32.1925006 130.2625017
  92.0919987  34.1705006 132.5565017  93.0489987  34.1705006 132.5565017
  91.8519987  35.0975006 132.5565017  94.0859987  28.3945006 121.6915017
  95.0429987  28.3945006 121.6915017  93.8459987  29.3215006 121.6915017
  92.4539987  25.6335006 120.2145017  93.4109987  25.6335006 120.2145017
  92.2139987  26.5605006 120.2145017  91.6009987  27.0435006 125.8595017
  92.5579987  27.0435006 125.8595017  91.3609987  27.9705006 125.8595017
  76.6079987  29.1225006 129.9045017  77.5649987  29.1225006 129.9045017
  76.3679987  30.0495006 129.9045017  92.4659987  28.8325006 135.0855017
  93.4229987  28.8325006 135.0855017  92.2259987  29.7595006 135.0855017
  94.0049987  26.9345006 136.1135017  94.9619987  26.9345006 136.1135017
  93.7649987  27.8615006 136.1135017  91.6939987  23.0955006 119.3495017
  92.6509987  23.0955006 119.3495017  91.4539987  24.0225006 119.3495017
  91.2609987  24.6265006 124.2965017  92.2179987  24.6265006 124.2965017
  91.0209987  25.5535006 124.2965017  91.9029987  25.1725006 129.7605017
  92.8599987  25.1725006 129.7605017  91.6629987  26.0995006 129.7605017
  91.9699987  25.9065006 132.5495017  92.9269987  25.9065006 132.5495017
  91.7299987  26.8335006 132.5495017  76.2149987  24.4025006 136.0435017
  77.1719987  24.4025006 136.0435017  75.9749987  25.3295006 136.0435017
  91.9339987  21.9115006 124.3705017  92.8909987  21.9115006 124.3705017
  91.6939987  22.8385006 124.3705017  77.4279987  22.7155006 128.9165017
  78.3849987  22.7155006 128.9165017  77.1879987  23.6425006 128.9165017
  75.7119987  25.7095006 129.9715017  76.6689987  25.7095006 129.9715017
  75.4719987  26.6365006 129.9715017  93.8309987  22.0605006 136.0765017
  94.7879987  22.0605006 136.0765017  93.5909987  22.9875006 136.0765017
  93.7749987  21.9595006 120.9255017  94.7319987  21.9595006 120.9255017
  93.5349987  22.8865006 120.9255017  76.0789987  21.9875006 124.0425017
  77.0359987  21.9875006 124.0425017  75.8389987  22.9145006 124.0425017
  90.8129987  36.9315006 125.9875017  91.7699987  36.9315006 125.9875017
  90.5729987  37.8585006 125.9875017  76.0419987  20.6705006 132.3575017
  76.9989987  20.6705006 132.3575017  75.8019987  21.5975006 132.3575017
  78.2579987  33.9515006 136.4465017  79.2149987  33.9515006 136.4465017
  78.0179987  34.8785006 136.4465017  81.1619987  34.8285006 132.7585017
  82.1189987  34.8285006 132.7585017  80.9219987  35.7555006 132.7585017
  85.4489987  36.5035006 135.4995017  86.4059987  36.5035006 135.4995017
  85.2089987  37.4305006 135.4995017  87.8159987  37.5675006 134.9935017
  88.7729987  37.5675006 134.9935017  87.5759987  38.4945006 134.9935017
  92.7839987  20.1585006 134.0755017  93.7409987  20.1585006 134.0755017
  92.5439987  21.0855006 134.0755017  78.5879987  38.0865006 132.7745017
  79.5449987  38.0865006 132.7745017  78.3479987  39.0135006 132.7745017
  81.0479987  37.6605006 131.8205017  82.0049987  37.6605006 131.8205017
  80.8079987  38.5875006 131.8205017  85.7599987  37.5705006 131.0175017
  86.7169987  37.5705006 131.0175017  85.5199987  38.4975006 131.0175017
  88.0699987  36.4305006 131.9875017  89.0269987  36.4305006 131.9875017
  87.8299987  37.3575006 131.9875017  90.6509987  37.9885006 132.2775017
  91.6079987  37.9885006 132.2775017  90.4109987  38.9155006 132.2775017
  78.0209987  36.7295006 129.7155017  78.9779987  36.7295006 129.7155017
  77.7809987  37.6565006 129.7155017  80.1159987  35.4415006 128.3685017
  81.0729987  35.4415006 128.3685017  79.8759987  36.3685006 128.3685017
  82.6819987  35.9245006 129.2365017  83.6389987  35.9245006 129.2365017
  82.4419987  36.8515006 129.2365017  86.1789987  21.5725006 128.3885017
  87.1359987  21.5725006 128.3885017  85.9389987  22.4995006 128.3885017
  91.3139987  19.6305006 128.4735017  92.2709987  19.6305006 128.4735017
  91.0739987  20.5575006 128.4735017  92.9919987  20.8525006 126.7555017
  93.9489987  20.8525006 126.7555017  92.7519987  21.7795006 126.7555017
  78.5369987  20.2055006 126.2225017  79.4939987  20.2055006 126.2225017
  78.2969987  21.1325006 126.2225017  77.3159987  19.9635006 121.9745017
  78.2729987  19.9635006 121.9745017  77.0759987  20.8905006 121.9745017
  83.0369987  20.1255006 126.0155017  83.9939987  20.1255006 126.0155017
  82.7969987  21.0525006 126.0155017  88.7079987  20.1465006 127.6465017
  89.6649987  20.1465006 127.6465017  88.4679987  21.0735006 127.6465017
  90.0079987  20.1985006 123.3695017  90.9649987  20.1985006 123.3695017
  89.7679987  21.1255006 123.3695017  77.2399987  35.9115006 122.9555017
  78.1969987  35.9115006 122.9555017  76.9999987  36.8385006 122.9555017
  79.1609987  21.8965006 120.4545017  80.1179987  21.8965006 120.4545017
  78.9209987  22.8235006 120.4545017  84.1879987  22.1575006 122.8705017
  85.1449987  22.1575006 122.8705017  83.9479987  23.0845006 122.8705017
  86.1009987  37.1935006 121.3185017  87.0579987  37.1935006 121.3185017
  85.8609987  38.1205006 121.3185017  92.8139987  36.7195006 124.0215017
  93.7709987  36.7195006 124.0215017  92.5739987  37.6465006 124.0215017
  78.4189987  20.7105006 135.6875017  79.3759987  20.7105006 135.6875017
  78.1789987  21.6375006 135.6875017  79.0349987  36.8825006 119.9195017
  79.9919987  36.8825006 119.9195017  78.7949987  37.8095006 119.9195017
  92.2369987  35.5675006 135.9095017  93.1939987  35.5675006 135.9095017
  91.9969987  36.4945006 135.9095017 106.4689987  29.3085006 126.0775017
 107.4259987  29.3085006 126.0775017 106.2289987  30.2355006 126.0775017
 105.2799987  28.6185006 129.6045017 106.2369987  28.6185006 129.6045017
 105.0399987  29.5455006 129.6045017  97.7009987  28.2585006 131.1575017
  98.6579987  28.2585006 131.1575017  97.4609987  29.1855006 131.1575017
  98.6359987  32.7105006 129.6655017  99.5929987  32.7105006 129.6655017
  98.3959987  33.6375006 129.6655017  95.2789987  26.2875006 125.1275017
  96.2359987  26.2875006 125.1275017  95.0389987  27.2145006 125.1275017
  95.9749987  28.5015006 127.2605017  96.9319987  28.5015006 127.2605017
  95.7349987  29.4285006 127.2605017 106.1809987  36.6595006 128.0845017
 107.1379987  36.6595006 128.0845017 105.9409987  37.5865006 128.0845017
 103.6989987  30.9975006 130.0265017 104.6559987  30.9975006 130.0265017
 103.4589987  31.9245006 130.0265017 106.2199987  25.2195006 130.3075017
 107.1769987  25.2195006 130.3075017 105.9799987  26.1465006 130.3075017
 100.0169987  23.5505006 127.5935017 100.9739987  23.5505006 127.5935017
  99.7769987  24.4775006 127.5935017 107.5009987  24.1155006 125.7615017
 108.4579987  24.1155006 125.7615017 107.2609987  25.0425006 125.7615017
  96.6379987  25.9575006 128.3345017  97.5949987  25.9575006 128.3345017
  96.3979987  26.8845006 128.3345017 101.7919987  27.5195006 127.6155017
 102.7489987  27.5195006 127.6155017 101.5519987  28.4465006 127.6155017
  98.8989987  22.4435006 131.6495017  99.8559987  22.4435006 131.6495017
  98.6589987  23.3705006 131.6495017 106.2339987  31.9445006 125.1805017
 107.1909987  31.9445006 125.1805017 105.9939987  32.8715006 125.1805017
 101.4359987  30.0965006 131.8965017 102.3929987  30.0965006 131.8965017
 101.1959987  31.0235006 131.8965017  98.4559987  24.3195006 129.6355017
  99.4129987  24.3195006 129.6355017  98.2159987  25.2465006 129.6355017
  99.8569987  32.0915006 132.6815017 100.8139987  32.0915006 132.6815017
  99.6169987  33.0185006 132.6815017  95.9579987  31.7235006 123.4965017
  96.9149987  31.7235006 123.4965017  95.7179987  32.6505006 123.4965017
 102.8789987  19.7805006 129.1055017 103.8359987  19.7805006 129.1055017
 102.6389987  20.7075006 129.1055017 107.5019987  34.9865006 126.4385017
 108.4589987  34.9865006 126.4385017 107.2619987  35.9135006 126.4385017
 105.1289987  28.5825006 123.6015017 106.0859987  28.5825006 123.6015017
 104.8889987  29.5095006 123.6015017 105.1889987  27.1085006 120.6145017
 106.1459987  27.1085006 120.6145017 104.9489987  28.0355006 120.6145017
 100.2089987  29.4525006 126.4445017 101.1659987  29.4525006 126.4445017
  99.9689987  30.3795006 126.4445017 101.5399987  32.8475006 129.1265017
 102.4969987  32.8475006 129.1265017 101.2999987  33.7745006 129.1265017
 100.5479987  28.1945006 130.0985017 101.5049987  28.1945006 130.0985017
 100.3079987  29.1215006 130.0985017 106.5379987  33.7835006 130.8685017
 107.4949987  33.7835006 130.8685017 106.2979987  34.7105006 130.8685017
 101.4439987  32.5615006 134.7895017 102.4009987  32.5615006 134.7895017
 101.2039987  33.4885006 134.7895017 107.4829987  27.9395006 122.2225017
 108.4399987  27.9395006 122.2225017 107.2429987  28.8665006 122.2225017
  98.4109987  28.7975006 134.0025017  99.3679987  28.7975006 134.0025017
  98.1709987  29.7245006 134.0025017 105.0829987  34.7015006 125.6605017
 106.0399987  34.7015006 125.6605017 104.8429987  35.6285006 125.6605017
  99.7049987  34.6235006 135.5825017 100.6619987  34.6235006 135.5825017
  99.4649987  35.5505006 135.5825017  99.1849987  28.4785006 124.0595017
 100.1419987  28.4785006 124.0595017  98.9449987  29.4055006 124.0595017
  95.2929987  30.8985006 132.8955017  96.2499987  30.8985006 132.8955017
  95.0529987  31.8255006 132.8955017  95.0329987  33.6355006 129.7305017
  95.9899987  33.6355006 129.7305017  94.7929987  34.5625006 129.7305017
 104.2649987  33.9185006 134.2795017 105.2219987  33.9185006 134.2795017
 104.0249987  34.8455006 134.2795017 104.6649987  37.6315006 124.0885017
 105.6219987  37.6315006 124.0885017 104.4249987  38.5585006 124.0885017
  98.3019987  36.4935006 125.8935017  99.2589987  36.4935006 125.8935017
  98.0619987  37.4205006 125.8935017 107.7399987  36.8155006 121.0495017
 108.6969987  36.8155006 121.0495017 107.4999987  37.7425006 121.0495017
 107.2489987  36.5925006 123.6885017 108.2059987  36.5925006 123.6885017
 107.0089987  37.5195006 123.6885017  97.5419987  32.1945006 133.9025017
  98.4989987  32.1945006 133.9025017  97.3019987  33.1215006 133.9025017
 100.2189987  20.6785006 129.8555017 101.1759987  20.6785006 129.8555017
  99.9789987  21.6055006 129.8555017 104.8879987  20.3715006 133.2535017
 105.8449987  20.3715006 133.2535017 104.6479987  21.2985006 133.2535017
 104.5269987  22.9225006 120.5415017 105.4839987  22.9225006 120.5415017
 104.2869987  23.8495006 120.5415017 100.2949987  25.6365006 131.0435017
 101.2519987  25.6365006 131.0435017 100.0549987  26.5635006 131.0435017
 100.2819987  25.8045006 125.9465017 101.2389987  25.8045006 125.9465017
 100.0419987  26.7315006 125.9465017 105.8079987  26.2795006 124.7355017
 106.7649987  26.2795006 124.7355017 105.5679987  27.2065006 124.7355017
 104.8489987  26.2815006 135.9915017 105.8059987  26.2815006 135.9915017
 104.6089987  27.2085006 135.9915017 106.7949987  25.7745006 127.5865017
 107.7519987  25.7745006 127.5865017 106.5549987  26.7015006 127.5865017
  97.9899987  25.9245006 132.8285017  98.9469987  25.9245006 132.8285017
  97.7499987  26.8515006 132.8285017 101.3449987  23.3145006 119.6355017
 102.3019987  23.3145006 119.6355017 101.1049987  24.2415006 119.6355017
  94.6079987  23.0415006 126.7445017  95.5649987  23.0415006 126.7445017
  94.3679987  23.9685006 126.7445017  95.8839987  23.7545006 122.1195017
  96.8409987  23.7545006 122.1195017  95.6439987  24.6815006 122.1195017
 106.0459987  27.3625006 132.2035017 107.0029987  27.3625006 132.2035017
 105.8059987  28.2895006 132.2035017 102.8519987  23.3065006 126.9725017
 103.8089987  23.3065006 126.9725017 102.6119987  24.2335006 126.9725017
  97.6619987  24.8915006 125.8315017  98.6189987  24.8915006 125.8315017
  97.4219987  25.8185006 125.8315017 101.3059987  24.9155006 123.4585017
 102.2629987  24.9155006 123.4585017 101.0659987  25.8425006 123.4585017
 107.2419987  22.5085006 130.2705017 108.1989987  22.5085006 130.2705017
 107.0019987  23.4355006 130.2705017 100.0039987  26.1055006 121.0515017
 100.9609987  26.1055006 121.0515017  99.7639987  27.0325006 121.0515017
  97.9829987  30.6895006 136.0745017  98.9399987  30.6895006 136.0745017
  97.7429987  31.6165006 136.0745017 104.0919987  26.0755006 128.8205017
 105.0489987  26.0755006 128.8205017 103.8519987  27.0025006 128.8205017
  99.1459987  22.2285006 125.2985017 100.1029987  22.2285006 125.2985017
  98.9059987  23.1555006 125.2985017 102.7549987  24.4085006 131.2795017
 103.7119987  24.4085006 131.2795017 102.5149987  25.3355006 131.2795017
 103.3659987  30.6495006 122.9645017 104.3229987  30.6495006 122.9645017
 103.1259987  31.5765006 122.9645017 107.1389987  23.4695006 121.1945017
 108.0959987  23.4695006 121.1945017 106.8989987  24.3965006 121.1945017
 104.8439987  30.8665006 134.1665017 105.8009987  30.8665006 134.1665017
 104.6039987  31.7935006 134.1665017   0.1349987  25.4635006 122.8335017
   1.0919987  25.4635006 122.8335017  -0.1050013  26.3905006 122.8335017
  98.4629987  30.0145006 128.7685017  99.4199987  30.0145006 128.7685017
  98.2229987  30.9415006 128.7685017 105.4569987  32.1005006 121.9885017
 106.4139987  32.1005006 121.9885017 105.2169987  33.0275006 121.9885017
  95.4569987  28.4385006 134.0325017  96.4139987  28.4385006 134.0325017
  95.2169987  29.3655006 134.0325017 102.6209987  28.3465006 135.7745017
 103.5779987  28.3465006 135.7745017 102.3809987  29.2735006 135.7745017
 107.1609987  33.3955006 134.1485017 108.1179987  33.3955006 134.1485017
 106.9209987  34.3225006 134.1485017 100.8369987  33.4805006 126.1545017
 101.7939987  33.4805006 126.1545017 100.5969987  34.4075006 126.1545017
  96.5989987  28.3275006 120.7245017  97.5559987  28.3275006 120.7245017
  96.3589987  29.2545006 120.7245017 102.2549987  31.1485006 125.6795017
 103.2119987  31.1485006 125.6795017 102.0149987  32.0755006 125.6795017
 102.7089987  35.3215006 132.0455017 103.6659987  35.3215006 132.0455017
 102.4689987  36.2485006 132.0455017 100.9349987  36.1495006 125.2205017
 101.8919987  36.1495006 125.2205017 100.6949987  37.0765006 125.2205017
 106.2729987  31.3385006 131.7095017 107.2299987  31.3385006 131.7095017
 106.0329987  32.2655006 131.7095017  97.1089987  23.1985006 133.6425017
  98.0659987  23.1985006 133.6425017  96.8689987  24.1255006 133.6425017
  96.7419987  34.9685006 132.0025017  97.6989987  34.9685006 132.0025017
  96.5019987  35.8955006 132.0025017 102.6639987  33.4765006 119.2655017
 103.6209987  33.4765006 119.2655017 102.4239987  34.4035006 119.2655017
 101.4919987  33.0035006 121.7285017 102.4489987  33.0035006 121.7285017
 101.2519987  33.9305006 121.7285017  98.0039987  30.2505006 122.2195017
  98.9609987  30.2505006 122.2195017  97.7639987  31.1775006 122.2195017
 105.8519987  22.9175006 132.5215017 106.8089987  22.9175006 132.5215017
 105.6119987  23.8445006 132.5215017 106.3259987  22.7555006 123.5945017
 107.2829987  22.7555006 123.5945017 106.0859987  23.6825006 123.5945017
 104.2859987  34.6705006 122.4535017 105.2429987  34.6705006 122.4535017
 104.0459987  35.5975006 122.4535017 103.8069987  24.2855006 124.4405017
 104.7639987  24.2855006 124.4405017 103.5669987  25.2125006 124.4405017
 104.3489987  25.2545006 133.5865017 105.3059987  25.2545006 133.5865017
 104.1089987  26.1815006 133.5865017 104.7109987  21.3345006 125.3555017
 105.6679987  21.3345006 125.3555017 104.4709987  22.2615006 125.3555017
 101.6349987  35.7095006 122.4515017 102.5919987  35.7095006 122.4515017
 101.3949987  36.6365006 122.4515017 100.3269987  22.4255006 122.0485017
 101.2839987  22.4255006 122.0485017 100.0869987  23.3525006 122.0485017
  98.5649987  32.8675006 121.1015017  99.5219987  32.8675006 121.1015017
  98.3249987  33.7945006 121.1015017  96.9079987  25.5375006 120.2305017
  97.8649987  25.5375006 120.2305017  96.6679987  26.4645006 120.2305017
  97.7209987  20.3275006 128.9535017  98.6779987  20.3275006 128.9535017
  97.4809987  21.2545006 128.9535017  96.6739987  34.2455006 125.1025017
  97.6309987  34.2455006 125.1025017  96.4339987  35.1725006 125.1025017
  95.7829987  36.9215006 136.3295017  96.7399987  36.9215006 136.3295017
  95.5429987  37.8485006 136.3295017 104.7059987  35.3145006 119.4015017
 105.6629987  35.3145006 119.4015017 104.4659987  36.2415006 119.4015017
 100.1419987  31.0195006 119.4375017 101.0989987  31.0195006 119.4375017
  99.9019987  31.9465006 119.4375017 105.5989987  32.0945006 119.2095017
 106.5559987  32.0945006 119.2095017 105.3589987  33.0215006 119.2095017
 101.3419987  29.0285006 121.8245017 102.2989987  29.0285006 121.8245017
 101.1019987  29.9555006 121.8245017 100.6439987  26.8685006 134.1575017
 101.6009987  26.8685006 134.1575017 100.4039987  27.7955006 134.1575017
 102.4139987  27.2455006 120.0475017 103.3709987  27.2455006 120.0475017
 102.1739987  28.1725006 120.0475017 100.8149987  24.3135006 135.0735017
 101.7719987  24.3135006 135.0735017 100.5749987  25.2405006 135.0735017
 101.4049987  22.5925006 132.7665017 102.3619987  22.5925006 132.7665017
 101.1649987  23.5195006 132.7665017 102.9899987  28.0685006 132.9805017
 103.9469987  28.0685006 132.9805017 102.7499987  28.9955006 132.9805017
 102.2219987  20.0635006 133.1665017 103.1789987  20.0635006 133.1665017
 101.9819987  20.9905006 133.1665017 106.1359987  23.4465006 135.7835017
 107.0929987  23.4465006 135.7835017 105.8959987  24.3735006 135.7835017
 102.4209987  19.4115006 135.8545017 103.3779987  19.4115006 135.8545017
 102.1809987  20.3385006 135.8545017 102.2629987  37.9505006 121.1095017
 103.2199987  37.9505006 121.1095017 102.0229987  38.8775006 121.1095017
  95.8229987  32.5495006 120.5775017  96.7799987  32.5495006 120.5775017
  95.5829987  33.4765006 120.5775017  94.5789987  37.9325006 125.5675017
  95.5359987  37.9325006 125.5675017  94.3389987  38.8595006 125.5675017
  95.4079987  36.0495006 127.4225017  96.3649987  36.0495006 127.4225017
  95.1679987  36.9765006 127.4225017  95.4649987  29.1215006 129.9045017
  96.4219987  29.1215006 129.9045017  95.2249987  30.0485006 129.9045017
  95.0699987  24.4025006 136.0425017  96.0269987  24.4025006 136.0425017
  94.8299987  25.3295006 136.0425017  96.2799987  22.7145006 128.9195017
  97.2369987  22.7145006 128.9195017  96.0399987  23.6415006 128.9195017
  94.5679987  25.7075006 129.9715017  95.5249987  25.7075006 129.9715017
  94.3279987  26.6345006 129.9715017  94.9319987  21.9825006 124.0445017
  95.8889987  21.9825006 124.0445017  94.6919987  22.9095006 124.0445017
  94.8989987  20.6685006 132.3565017  95.8559987  20.6685006 132.3565017
  94.6589987  21.5955006 132.3565017  97.1139987  33.9515006 136.4465017
  98.0709987  33.9515006 136.4465017  96.8739987  34.8785006 136.4465017
 100.0199987  34.8295006 132.7585017 100.9769987  34.8295006 132.7585017
  99.7799987  35.7565006 132.7585017 104.2919987  36.5055006 135.5145017
 105.2489987  36.5055006 135.5145017 104.0519987  37.4325006 135.5145017
 106.6949987  37.5715006 134.9695017 107.6519987  37.5715006 134.9695017
 106.4549987  38.4985006 134.9695017  97.4419987  38.0865006 132.7755017
  98.3989987  38.0865006 132.7755017  97.2019987  39.0135006 132.7755017
  99.9029987  37.6635006 131.8195017 100.8599987  37.6635006 131.8195017
  99.6629987  38.5905006 131.8195017 104.5989987  37.5735006 131.0255017
 105.5559987  37.5735006 131.0255017 104.3589987  38.5005006 131.0255017
 106.9379987  36.4575006 132.0435017 107.8949987  36.4575006 132.0435017
 106.6979987  37.3845006 132.0435017  96.8759987  36.7285006 129.7165017
  97.8329987  36.7285006 129.7165017  96.6359987  37.6555006 129.7165017
  98.9709987  35.4415006 128.3685017  99.9279987  35.4415006 128.3685017
  98.7309987  36.3685006 128.3685017 101.5379987  35.9245006 129.2405017
 102.4949987  35.9245006 129.2405017 101.2979987  36.8515006 129.2405017
 105.0099987  21.5635006 128.3675017 105.9669987  21.5635006 128.3675017
 104.7699987  22.4905006 128.3675017  97.3939987  20.2055006 126.2235017
  98.3509987  20.2055006 126.2235017  97.1539987  21.1325006 126.2235017
  96.1829987  19.9625006 121.9695017  97.1399987  19.9625006 121.9695017
  95.9429987  20.8895006 121.9695017 101.9049987  20.1165006 126.0125017
 102.8619987  20.1165006 126.0125017 101.6649987  21.0435006 126.0125017
 107.4599987  20.0715006 127.8085017 108.4169987  20.0715006 127.8085017
 107.2199987  20.9985006 127.8085017  96.0959987  35.9115006 122.9555017
  97.0529987  35.9115006 122.9555017  95.8559987  36.8385006 122.9555017
  98.0149987  21.9035006 120.4565017  98.9719987  21.9035006 120.4565017
  97.7749987  22.8305006 120.4565017 103.0409987  22.1515006 122.8705017
 103.9979987  22.1515006 122.8705017 102.8009987  23.0785006 122.8705017
 104.9369987  37.1945006 121.3065017 105.8939987  37.1945006 121.3065017
 104.6969987  38.1215006 121.3065017  97.2749987  20.7115006 135.6875017
  98.2319987  20.7115006 135.6875017  97.0349987  21.6385006 135.6875017
  97.8909987  36.8825006 119.9185017  98.8479987  36.8825006 119.9185017
  97.6509987  37.8095006 119.9185017  12.1999987  48.1935006 126.1075017
  13.1569987  48.1935006 126.1075017  11.9599987  49.1205006 126.1075017
  11.0729987  47.4575006 129.5985017  12.0299987  47.4575006 129.5985017
  10.8329987  48.3845006 129.5985017   3.4729987  47.0885006 131.1305017
   4.4299987  47.0885006 131.1305017   3.2329987  48.0155006 131.1305017
  14.7699987  50.3975006 127.8725017  15.7269987  50.3975006 127.8725017
  14.5299987  51.3245006 127.8725017   4.3389987  51.5635006 129.6715017
   5.2959987  51.5635006 129.6715017   4.0989987  52.4905006 129.6715017
   1.0659987  45.2385006 125.0775017   2.0229987  45.2385006 125.0775017
   0.8259987  46.1655006 125.0775017   1.6839987  47.3205006 127.2395017
   2.6409987  47.3205006 127.2395017   1.4439987  48.2475006 127.2395017
  11.8829987  55.5495006 128.1065017  12.8399987  55.5495006 128.1065017
  11.6429987  56.4765006 128.1065017   9.4479987  49.8675006 130.0355017
  10.4049987  49.8675006 130.0355017   9.2079987  50.7945006 130.0355017
  18.1529987  40.8475006 130.6975017  19.1099987  40.8475006 130.6975017
  17.9129987  41.7745006 130.6975017  12.5689987  44.3195006 130.3575017
  13.5259987  44.3195006 130.3575017  12.3289987  45.2465006 130.3575017
   5.7359987  42.4005006 127.5815017   6.6929987  42.4005006 127.5815017
   5.4959987  43.3275006 127.5815017  13.4709987  42.4955006 125.9625017
  14.4279987  42.4955006 125.9625017  13.2309987  43.4225006 125.9625017
   2.5399987  44.8595006 128.2345017   3.4969987  44.8595006 128.2345017
   2.2999987  45.7865006 128.2345017   7.5189987  46.3695006 127.6185017
   8.4759987  46.3695006 127.6185017   7.2789987  47.2965006 127.6185017
  18.7699987  42.9925006 133.6925017  19.7269987  42.9925006 133.6925017
  18.5299987  43.9195006 133.6925017   4.6279987  41.3065006 131.6585017
   5.5849987  41.3065006 131.6585017   4.3879987  42.2335006 131.6585017
  11.9369987  50.7955006 125.1825017  12.8939987  50.7955006 125.1825017
  11.6969987  51.7225006 125.1825017   7.1549987  48.9505006 131.8945017
   8.1119987  48.9505006 131.8945017   6.9149987  49.8775006 131.8945017
  15.2559987  41.8225006 127.9445017  16.2129987  41.8225006 127.9445017
  15.0159987  42.7495006 127.9445017   4.1969987  43.1485006 129.6525017
   5.1539987  43.1485006 129.6525017   3.9569987  44.0755006 129.6525017
   5.5929987  50.9475006 132.6665017   6.5499987  50.9475006 132.6665017
   5.3529987  51.8745006 132.6665017   1.7049987  50.5965006 123.4675017
   2.6619987  50.5965006 123.4675017   1.4649987  51.5235006 123.4675017
  15.2949987  52.2345006 130.2395017  16.2519987  52.2345006 130.2395017
  15.0549987  53.1615006 130.2395017  15.5939987  40.5215006 131.6185017
  16.5509987  40.5215006 131.6185017  15.3539987  41.4485006 131.6185017
   8.5889987  38.6345006 129.0955017   9.5459987  38.6345006 129.0955017
   8.3489987  39.5615006 129.0955017  13.5459987  54.0195006 126.8415017
  14.5029987  54.0195006 126.8415017  13.3059987  54.9465006 126.8415017
  14.7479987  51.9465006 125.3505017  15.7049987  51.9465006 125.3505017
  14.5079987  52.8735006 125.3505017  16.4239987  50.5255006 133.8455017
  17.3809987  50.5255006 133.8455017  16.1839987  51.4525006 133.8455017
  10.8719987  47.4375006 123.6145017  11.8289987  47.4375006 123.6145017
  10.6319987  48.3645006 123.6145017  10.9359987  45.9715006 120.6265017
  11.8929987  45.9715006 120.6265017  10.6959987  46.8985006 120.6265017
  18.2769987  46.8535006 131.9055017  19.2339987  46.8535006 131.9055017
  18.0369987  47.7805006 131.9055017  14.3109987  47.6515006 124.5295017
  15.2679987  47.6515006 124.5295017  14.0709987  48.5785006 124.5295017
  14.1699987  45.7555006 133.5515017  15.1269987  45.7555006 133.5515017
  13.9299987  46.6825006 133.5515017   5.9519987  48.3205006 126.4445017
   6.9089987  48.3205006 126.4445017   5.7119987  49.2475006 126.4445017
   7.2609987  51.7065006 129.1235017   8.2179987  51.7065006 129.1235017
   7.0209987  52.6335006 129.1235017   6.2839987  47.0535006 130.0985017
   7.2409987  47.0535006 130.0985017   6.0439987  47.9805006 130.0985017
  12.6539987  52.6155006 130.8145017  13.6109987  52.6155006 130.8145017
  12.4139987  53.5425006 130.8145017   7.1619987  51.4185006 134.7925017
   8.1189987  51.4185006 134.7925017   6.9219987  52.3455006 134.7925017
  13.1769987  46.8355006 122.2075017  14.1339987  46.8355006 122.2075017
  12.9369987  47.7625006 122.2075017   4.1269987  47.6645006 134.0075017
   5.0839987  47.6645006 134.0075017   3.8869987  48.5915006 134.0075017
  10.8979987  53.5625006 125.6695017  11.8549987  53.5625006 125.6695017
  10.6579987  54.4895006 125.6695017   5.4329987  53.4965006 135.5825017
   6.3899987  53.4965006 135.5825017   5.1929987  54.4235006 135.5825017
  16.9089987  38.5815006 122.0755017  17.8659987  38.5815006 122.0755017
  16.6689987  39.5085006 122.0755017   4.9259987  47.3455006 124.0615017
   5.8829987  47.3455006 124.0615017   4.6859987  48.2725006 124.0615017
  18.0259987  52.9265006 120.4415017  18.9829987  52.9265006 120.4415017
  17.7859987  53.8535006 120.4415017   1.2489987  49.6515006 132.6395017
   2.2059987  49.6515006 132.6395017   1.0089987  50.5785006 132.6395017
   1.0079987  52.6255006 129.4585017   1.9649987  52.6255006 129.4585017
   0.7679987  53.5525006 129.4585017  19.0369987  53.1665006 135.3635017
  19.9939987  53.1665006 135.3635017  18.7969987  54.0935006 135.3635017
   9.9649987  52.7635006 134.2615017  10.9219987  52.7635006 134.2615017
   9.7249987  53.6905006 134.2615017  10.3799987  56.4845006 124.0865017
  11.3369987  56.4845006 124.0865017  10.1399987  57.4115006 124.0865017
   4.0209987  55.3435006 125.8785017   4.9779987  55.3435006 125.8785017
   3.7809987  56.2705006 125.8785017  13.4449987  55.6905006 121.0685017
  14.4019987  55.6905006 121.0685017  13.2049987  56.6175006 121.0685017
  13.1339987  55.6165006 123.8335017  14.0909987  55.6165006 123.8335017
  12.8939987  56.5435006 123.8335017  16.1019987  44.7015006 135.7035017
  17.0589987  44.7015006 135.7035017  15.8619987  45.6285006 135.7035017
   3.3059987  51.0585006 133.8775017   4.2629987  51.0585006 133.8775017
   3.0659987  51.9855006 133.8775017   5.9369987  39.5435006 129.8455017
   6.8939987  39.5435006 129.8455017   5.6969987  40.4705006 129.8455017
  10.5779987  39.2355006 133.2455017  11.5349987  39.2355006 133.2455017
  10.3379987  40.1625006 133.2455017  13.8469987  43.0315006 134.0955017
  14.8039987  43.0315006 134.0955017  13.6069987  43.9585006 134.0955017
  14.6409987  47.8595006 119.9675017  15.5979987  47.8595006 119.9675017
  14.4009987  48.7865006 119.9675017  10.2349987  41.7815006 120.5195017
  11.1919987  41.7815006 120.5195017   9.9949987  42.7085006 120.5195017
   6.0319987  44.4965006 131.0465017   6.9889987  44.4965006 131.0465017
   5.7919987  45.4235006 131.0465017   5.9849987  44.6605006 125.9475017
   6.9419987  44.6605006 125.9475017   5.7449987  45.5875006 125.9475017
  11.5239987  45.1305006 124.7385017  12.4809987  45.1305006 124.7385017
  11.2839987  46.0575006 124.7385017  10.5839987  45.1155006 135.9695017
  11.5409987  45.1155006 135.9695017  10.3439987  46.0425006 135.9695017
  12.5479987  44.6075006 127.5685017  13.5049987  44.6075006 127.5685017
  12.3079987  45.5345006 127.5685017   3.7169987  44.7685006 132.8355017
   4.6739987  44.7685006 132.8355017   3.4769987  45.6955006 132.8355017
   7.0789987  42.1685006 119.6295017   8.0359987  42.1685006 119.6295017
   6.8389987  43.0955006 119.6295017   0.4279987  41.2015006 127.0795017
   1.3849987  41.2015006 127.0795017   0.1879987  42.1285006 127.0795017
   1.8009987  42.6115006 122.2185017   2.7579987  42.6115006 122.2185017
   1.5609987  43.5385006 122.2185017  11.7689987  46.2255006 132.1845017
  12.7259987  46.2255006 132.1845017  11.5289987  47.1525006 132.1845017
   8.5579987  42.1705006 126.9795017   9.5149987  42.1705006 126.9795017
   8.3179987  43.0975006 126.9795017   3.3929987  43.7245006 125.8205017
   4.3499987  43.7245006 125.8205017   3.1529987  44.6515006 125.8205017
   7.0239987  43.7735006 123.4555017   7.9809987  43.7735006 123.4555017
   6.7839987  44.7005006 123.4555017  12.9629987  41.3965006 130.2125017
  13.9199987  41.3965006 130.2125017  12.7229987  42.3235006 130.2125017
   5.7079987  44.9665006 121.0435017   6.6649987  44.9665006 121.0435017
   5.4679987  45.8935006 121.0435017  16.2209987  57.0545006 136.4965017
  17.1779987  57.0545006 136.4965017  15.9809987  57.9815006 136.4965017
   3.7389987  49.4915006 136.0955017   4.6959987  49.4915006 136.0955017
   3.4989987  50.4185006 136.0955017   9.8569987  44.9375006 128.8635017
  10.8139987  44.9375006 128.8635017   9.6169987  45.8645006 128.8635017
   4.8559987  41.0905006 125.2815017   5.8129987  41.0905006 125.2815017
   4.6159987  42.0175006 125.2815017   8.4909987  43.2695006 131.2775017
   9.4479987  43.2695006 131.2775017   8.2509987  44.1965006 131.2775017
   9.0819987  49.5045006 122.9685017  10.0389987  49.5045006 122.9685017
   8.8419987  50.4315006 122.9685017  16.2239987  48.7155006 131.7885017
  17.1809987  48.7155006 131.7885017  15.9839987  49.6425006 131.7885017
  12.9189987  42.3155006 121.1495017  13.8759987  42.3155006 121.1495017
  12.6789987  43.2425006 121.1495017  10.5289987  49.7445006 134.1485017
  11.4859987  49.7445006 134.1485017  10.2889987  50.6715006 134.1485017
  13.6469987  44.2185006 122.7935017  14.6039987  44.2185006 122.7935017
  13.4069987  45.1455006 122.7935017   4.1809987  48.8755006 128.7685017
   5.1379987  48.8755006 128.7685017   3.9409987  49.8025006 128.7685017
  11.1859987  50.9685006 122.0025017  12.1429987  50.9685006 122.0025017
  10.9459987  51.8955006 122.0025017   1.2369987  47.2215006 133.9775017
   2.1939987  47.2215006 133.9775017   0.9969987  48.1485006 133.9775017
   8.3459987  47.2055006 135.7755017   9.3029987  47.2055006 135.7755017
   8.1059987  48.1325006 135.7755017  12.8669987  52.2015006 134.1755017
  13.8239987  52.2015006 134.1755017  12.6269987  53.1285006 134.1755017
  18.5529987  44.3705006 122.5485017  19.5099987  44.3705006 122.5485017
  18.3129987  45.2975006 122.5485017  18.5129987  50.2225006 135.3485017
  19.4699987  50.2225006 135.3485017  18.2729987  51.1495006 135.3485017
  16.8169987  53.1995006 122.9585017  17.7739987  53.1995006 122.9585017
  16.5769987  54.1265006 122.9585017  14.0269987  48.0295006 130.0195017
  14.9839987  48.0295006 130.0195017  13.7869987  48.9565006 130.0195017
   6.5689987  52.3305006 126.1535017   7.5259987  52.3305006 126.1535017
   6.3289987  53.2575006 126.1535017   2.2879987  47.1755006 120.7515017
   3.2449987  47.1755006 120.7515017   2.0479987  48.1025006 120.7515017
   7.9829987  50.0015006 125.6795017   8.9399987  50.0015006 125.6795017
   7.7429987  50.9285006 125.6795017   8.4359987  54.1805006 132.0455017
   9.3929987  54.1805006 132.0455017   8.1959987  55.1075006 132.0455017
   6.6629987  55.0015006 125.2165017   7.6199987  55.0015006 125.2165017
   6.4229987  55.9285006 125.2165017  11.9939987  50.2205006 131.7085017
  12.9509987  50.2205006 131.7085017  11.7539987  51.1475006 131.7085017
  14.2709987  51.2445006 120.7925017  15.2279987  51.2445006 120.7925017
  14.0309987  52.1715006 120.7925017  14.6979987  54.7945006 134.2055017
  15.6549987  54.7945006 134.2055017  14.4579987  55.7215006 134.2055017
  18.7469987  55.6215006 121.0355017  19.7039987  55.6215006 121.0355017
  18.5069987  56.5485006 121.0355017   2.8069987  42.0415006 133.6115017
   3.7639987  42.0415006 133.6115017   2.5669987  42.9685006 133.6115017
  15.0659987  49.8885006 123.0295017  16.0229987  49.8885006 123.0295017
  14.8259987  50.8155006 123.0295017   2.4859987  53.8345006 131.9885017
   3.4429987  53.8345006 131.9885017   2.2459987  54.7615006 131.9885017
   8.3999987  52.3315006 119.2855017   9.3569987  52.3315006 119.2855017
   8.1599987  53.2585006 119.2855017   7.2219987  51.8605006 121.7275017
   8.1789987  51.8605006 121.7275017   6.9819987  52.7875006 121.7275017
   3.6919987  49.0885006 122.2085017   4.6489987  49.0885006 122.2085017
   3.4519987  50.0155006 122.2085017  11.5669987  41.7905006 132.5215017
  12.5239987  41.7905006 132.5215017  11.3269987  42.7175006 132.5215017
  12.3149987  41.3785006 123.6185017  13.2719987  41.3785006 123.6185017
  12.0749987  42.3055006 123.6185017   9.9969987  53.5315006 122.4485017
  10.9539987  53.5315006 122.4485017   9.7569987  54.4585006 122.4485017
   9.5309987  43.1335006 124.4435017  10.4879987  43.1335006 124.4435017
   9.2909987  44.0605006 124.4435017  10.0949987  44.1305006 133.5695017
  11.0519987  44.1305006 133.5695017   9.8549987  45.0575006 133.5695017
  10.3889987  40.1925006 125.3485017  11.3459987  40.1925006 125.3485017
  10.1489987  41.1195006 125.3485017   7.3789987  54.5675006 122.4575017
   8.3359987  54.5675006 122.4575017   7.1389987  55.4945006 122.4575017
   6.0499987  41.2845006 122.0465017   7.0069987  41.2845006 122.0465017
   5.8099987  42.2115006 122.0465017  16.2669987  41.9755006 134.3975017
  17.2239987  41.9755006 134.3975017  16.0269987  42.9025006 134.3975017
  14.8139987  45.8675006 128.4665017  15.7709987  45.8675006 128.4665017
  14.5739987  46.7945006 128.4665017   4.2919987  51.7285006 121.0915017
   5.2489987  51.7285006 121.0915017   4.0519987  52.6555006 121.0915017
   2.5789987  44.4045006 120.2765017   3.5359987  44.4045006 120.2765017
   2.3389987  45.3315006 120.2765017  15.9409987  55.0495006 130.1535017
  16.8979987  55.0495006 130.1535017  15.7009987  55.9765006 130.1535017
   3.4609987  39.1815006 128.9385017   4.4179987  39.1815006 128.9385017
   3.2209987  40.1085006 128.9385017   2.3859987  53.1135006 125.1135017
   3.3429987  53.1135006 125.1135017   2.1459987  54.0405006 125.1135017
   1.4749987  55.7425006 136.3245017   2.4319987  55.7425006 136.3245017
   1.2349987  56.6695006 136.3245017  10.3989987  54.1885006 119.4195017
  11.3559987  54.1885006 119.4195017  10.1589987  55.1155006 119.4195017
  14.9689987  53.9425006 119.6065017  15.9259987  53.9425006 119.6065017
  14.7289987  54.8695006 119.6065017   5.8689987  49.8765006 119.4355017
   6.8259987  49.8765006 119.4355017   5.6289987  50.8035006 119.4355017
  11.2999987  50.9695006 119.2185017  12.2569987  50.9695006 119.2185017
  11.0599987  51.8965006 119.2185017  13.9259987  49.4535006 134.1725017
  14.8829987  49.4535006 134.1725017  13.6859987  50.3805006 134.1725017
   7.0619987  47.8845006 121.8255017   8.0189987  47.8845006 121.8255017
   6.8219987  48.8115006 121.8255017   6.3639987  45.7245006 134.1575017
   7.3209987  45.7245006 134.1575017   6.1239987  46.6515006 134.1575017
   8.1359987  46.1055006 120.0465017   9.0929987  46.1055006 120.0465017
   7.8959987  47.0325006 120.0465017  17.4899987  48.4365006 119.4765017
  18.4469987  48.4365006 119.4765017  17.2499987  49.3635006 119.4765017
   6.5329987  43.1705006 135.0745017   7.4899987  43.1705006 135.0745017
   6.2929987  44.0975006 135.0745017   7.1259987  41.4495006 132.7665017
   8.0829987  41.4495006 132.7665017   6.8859987  42.3765006 132.7665017
   8.6939987  46.9225006 132.9775017   9.6509987  46.9225006 132.9775017
   8.4539987  47.8495006 132.9775017  14.2849987  47.3165006 135.4995017
  15.2419987  47.3165006 135.4995017  14.0449987  48.2435006 135.4995017
   7.9219987  38.9155006 133.1775017   8.8789987  38.9155006 133.1775017
   7.6819987  39.8425006 133.1775017  11.9129987  42.3155006 135.7895017
  12.8699987  42.3155006 135.7895017  11.6729987  43.2425006 135.7895017
   8.1459987  38.2645006 135.8535017   9.1029987  38.2645006 135.8535017
   7.9059987  39.1915006 135.8535017   7.9809987  56.8025006 121.1085017
   8.9379987  56.8025006 121.1085017   7.7409987  57.7295006 121.1085017
   1.5899987  51.4155006 120.5625017   2.5469987  51.4155006 120.5625017
   1.3499987  52.3425006 120.5625017 108.0929987  56.8405006 125.5825017
 109.0499987  56.8405006 125.5825017 107.8529987  57.7675006 125.5825017
   1.5129987  55.0545006 127.5325017   2.4699987  55.0545006 127.5325017
   1.2729987  55.9815006 127.5325017  18.6629987  55.7085006 130.3645017
  19.6199987  55.7085006 130.3645017  18.4229987  56.6355006 130.3645017
  18.2659987  55.2985006 133.2885017  19.2229987  55.2985006 133.2885017
  18.0259987  56.2255006 133.2885017  17.9899987  49.3435006 123.4265017
  18.9469987  49.3435006 123.4265017  17.7499987  50.2705006 123.4265017
  18.3639987  47.4145006 125.2945017  19.3209987  47.4145006 125.2945017
  18.1239987  48.3415006 125.2945017  18.1169987  50.1255006 130.2725017
  19.0739987  50.1255006 130.2725017  17.8769987  51.0525006 130.2725017
  16.6589987  53.0115006 132.5625017  17.6159987  53.0115006 132.5625017
  16.4189987  53.9385006 132.5625017  18.6619987  47.2515006 121.6915017
  19.6189987  47.2515006 121.6915017  18.4219987  48.1785006 121.6915017
  17.0279987  44.4885006 120.2145017  17.9849987  44.4885006 120.2145017
  16.7879987  45.4155006 120.2145017  16.1749987  45.8975006 125.8645017
  17.1319987  45.8975006 125.8645017  15.9349987  46.8245006 125.8645017
   1.1779987  47.9615006 129.9165017   2.1349987  47.9615006 129.9165017
   0.9379987  48.8885006 129.9165017  17.0209987  47.7125006 135.0815017
  17.9779987  47.7125006 135.0815017  16.7809987  48.6395006 135.0815017
  18.5659987  45.8055006 136.1375017  19.5229987  45.8055006 136.1375017
  18.3259987  46.7325006 136.1375017  16.2689987  41.9455006 119.3455017
  17.2259987  41.9455006 119.3455017  16.0289987  42.8725006 119.3455017
  15.8369987  43.4815006 124.2955017  16.7939987  43.4815006 124.2955017
  15.5969987  44.4085006 124.2955017  16.2459987  44.1875006 129.6155017
  17.2029987  44.1875006 129.6155017  16.0059987  45.1145006 129.6155017
  16.4669987  44.8275006 132.7205017  17.4239987  44.8275006 132.7205017
  16.2269987  45.7545006 132.7205017   0.8539987  43.2555006 136.0095017
   1.8109987  43.2555006 136.0095017   0.6139987  44.1825006 136.0095017
  16.5109987  40.7655006 124.3705017  17.4679987  40.7655006 124.3705017
  16.2709987  41.6925006 124.3705017   2.0859987  41.5995006 128.9115017
   3.0429987  41.5995006 128.9115017   1.8459987  42.5265006 128.9115017
   0.8889987  44.5335006 130.1275017   1.8459987  44.5335006 130.1275017
   0.6489987  45.4605006 130.1275017  18.4069987  40.8995006 136.0885017
  19.3639987  40.8995006 136.0885017  18.1669987  41.8265006 136.0885017
  18.3379987  40.8055006 120.9215017  19.2949987  40.8055006 120.9215017
  18.0979987  41.7325006 120.9215017   0.8919987  40.7775006 124.0555017
   1.8489987  40.7775006 124.0555017   0.6519987  41.7045006 124.0555017
  15.3879987  55.7885006 125.9875017  16.3449987  55.7885006 125.9875017
  15.1479987  56.7155006 125.9875017 108.3429987  39.5175006 132.3935017
 109.2999987  39.5175006 132.3935017 108.1029987  40.4445006 132.3935017
   2.8469987  52.8665006 136.4695017   3.8039987  52.8665006 136.4695017
   2.6069987  53.7935006 136.4695017   5.7349987  53.6865006 132.7595017
   6.6919987  53.6865006 132.7595017   5.4949987  54.6135006 132.7595017
  10.0209987  55.3455006 135.4935017  10.9779987  55.3455006 135.4935017
   9.7809987  56.2725006 135.4935017  12.3849987  56.3935006 135.0025017
  13.3419987  56.3935006 135.0025017  12.1449987  57.3205006 135.0025017
  17.3489987  39.0005006 134.0915017  18.3059987  39.0005006 134.0915017
  17.1089987  39.9275006 134.0915017   3.1519987  56.9595006 132.8085017
   4.1089987  56.9595006 132.8085017   2.9119987  57.8865006 132.8085017
   5.6309987  56.5305006 131.8255017   6.5879987  56.5305006 131.8255017
   5.3909987  57.4575006 131.8255017  10.3379987  56.4265006 131.0195017
  11.2949987  56.4265006 131.0195017  10.0979987  57.3535006 131.0195017
  12.6389987  55.2695006 132.0095017  13.5959987  55.2695006 132.0095017
  12.3989987  56.1965006 132.0095017  15.2169987  56.8345006 132.2785017
  16.1739987  56.8345006 132.2785017  14.9769987  57.7615006 132.2785017
   2.6349987  55.6065006 129.7735017   3.5919987  55.6065006 129.7735017
   2.3949987  56.5335006 129.7735017   4.6819987  54.2955006 128.3695017
   5.6389987  54.2955006 128.3695017   4.4419987  55.2225006 128.3695017
   7.2699987  54.7745006 129.2455017   8.2269987  54.7745006 129.2455017
   7.0299987  55.7015006 129.2455017  10.7539987  40.4285006 128.3865017
  11.7109987  40.4285006 128.3865017  10.5139987  41.3555006 128.3865017
  15.8899987  38.4845006 128.4705017  16.8469987  38.4845006 128.4705017
  15.6499987  39.4115006 128.4705017  17.5579987  39.7025006 126.7385017
  18.5149987  39.7025006 126.7385017  17.3179987  40.6295006 126.7385017
   3.1309987  39.0585006 126.1805017   4.0879987  39.0585006 126.1805017
   2.8909987  39.9855006 126.1805017   1.9409987  38.8135006 122.0225017
   2.8979987  38.8135006 122.0225017   1.7009987  39.7405006 122.0225017
   7.6149987  38.9805006 126.0145017   8.5719987  38.9805006 126.0145017
   7.3749987  39.9075006 126.0145017  13.2809987  39.0045006 127.6535017
  14.2379987  39.0045006 127.6535017  13.0409987  39.9315006 127.6535017
  14.5789987  39.0485006 123.3355017  15.5359987  39.0485006 123.3355017
  14.3389987  39.9755006 123.3355017   1.9219987  54.7825006 122.9495017
   2.8789987  54.7825006 122.9495017   1.6819987  55.7095006 122.9495017
   3.7349987  40.7685006 120.4575017   4.6919987  40.7685006 120.4575017
   3.4949987  41.6955006 120.4575017   8.7599987  41.0145006 122.8715017
   9.7169987  41.0145006 122.8715017   8.5199987  41.9415006 122.8715017
  10.6759987  56.0505006 121.3195017  11.6329987  56.0505006 121.3195017
  10.4359987  56.9775006 121.3195017  17.3899987  55.5755006 124.0215017
  18.3469987  55.5755006 124.0215017  17.1499987  56.5025006 124.0215017
   2.9979987  39.5275006 135.6445017   3.9549987  39.5275006 135.6445017
   2.7579987  40.4545006 135.6445017   3.5879987  55.7165006 119.9045017
   4.5449987  55.7165006 119.9045017   3.3479987  56.6435006 119.9045017
  16.8059987  54.4225006 135.9015017  17.7629987  54.4225006 135.9015017
  16.5659987  55.3495006 135.9015017  31.0589987  48.1945006 126.1095017
  32.0159987  48.1945006 126.1095017  30.8189987  49.1215006 126.1095017
  29.9279987  47.4585006 129.5975017  30.8849987  47.4585006 129.5975017
  29.6879987  48.3855006 129.5975017  22.2839987  47.1225006 131.1545017
  23.2409987  47.1225006 131.1545017  22.0439987  48.0495006 131.1545017
  33.4499987  50.4255006 127.8545017  34.4069987  50.4255006 127.8545017
  33.2099987  51.3525006 127.8545017  23.2119987  51.5655006 129.6685017
  24.1689987  51.5655006 129.6685017  22.9719987  52.4925006 129.6685017
  19.8569987  45.1415006 125.1225017  20.8139987  45.1415006 125.1225017
  19.6169987  46.0685006 125.1225017  20.5579987  47.3675006 127.2555017
  21.5149987  47.3675006 127.2555017  20.3179987  48.2945006 127.2555017
  30.7379987  55.5515006 128.1085017  31.6949987  55.5515006 128.1085017
  30.4979987  56.4785006 128.1085017  28.3029987  49.8655006 130.0365017
  29.2599987  49.8655006 130.0365017  28.0629987  50.7925006 130.0365017
  36.9229987  41.5025006 130.8075017  37.8799987  41.5025006 130.8075017
  36.6829987  42.4295006 130.8075017  31.4669987  44.3215006 130.3615017
  32.4239987  44.3215006 130.3615017  31.2269987  45.2485006 130.3615017
  24.5939987  42.4055006 127.5935017  25.5509987  42.4055006 127.5935017
  24.3539987  43.3325006 127.5935017  32.3269987  42.4955006 125.9635017
  33.2839987  42.4955006 125.9635017  32.0869987  43.4225006 125.9635017
  21.4439987  44.8605006 128.2615017  22.4009987  44.8605006 128.2615017
  21.2039987  45.7875006 128.2615017  26.3769987  46.3715006 127.6205017
  27.3339987  46.3715006 127.6205017  26.1369987  47.2985006 127.6205017
  37.3609987  42.9375006 133.0595017  38.3179987  42.9375006 133.0595017
  37.1209987  43.8645006 133.0595017  23.4769987  41.3065006 131.6475017
  24.4339987  41.3065006 131.6475017  23.2369987  42.2335006 131.6475017
  30.7909987  50.7945006 125.1815017  31.7479987  50.7945006 125.1815017
  30.5509987  51.7215006 125.1815017  26.0069987  48.9545006 131.9385017
  26.9639987  48.9545006 131.9385017  25.7669987  49.8815006 131.9385017
  34.1179987  41.8325006 127.9555017  35.0749987  41.8325006 127.9555017
  33.8779987  42.7595006 127.9555017  23.0449987  43.1585006 129.6485017
  24.0019987  43.1585006 129.6485017  22.8049987  44.0855006 129.6485017
  24.4379987  50.9415006 132.7045017  25.3949987  50.9415006 132.7045017
  24.1979987  51.8685006 132.7045017  20.5339987  50.5795006 123.4965017
  21.4909987  50.5795006 123.4965017  20.2939987  51.5065006 123.4965017
  34.1449987  52.2405006 130.2855017  35.1019987  52.2405006 130.2855017
  33.9049987  53.1675006 130.2855017  34.4559987  40.5165006 131.6195017
  35.4129987  40.5165006 131.6195017  34.2159987  41.4435006 131.6195017
  27.4469987  38.6355006 129.0975017  28.4039987  38.6355006 129.0975017
  27.2069987  39.5625006 129.0975017  32.3859987  54.0265006 126.8325017
  33.3429987  54.0265006 126.8325017  32.1459987  54.9535006 126.8325017
  33.5609987  51.9615006 125.3445017  34.5179987  51.9615006 125.3445017
  33.3209987  52.8885006 125.3445017  35.2739987  50.5225006 133.8375017
  36.2309987  50.5225006 133.8375017  35.0339987  51.4495006 133.8375017
  29.7309987  47.4375006 123.6175017  30.6879987  47.4375006 123.6175017
  29.4909987  48.3645006 123.6175017  29.7909987  45.9705006 120.6255017
  30.7479987  45.9705006 120.6255017  29.5509987  46.8975006 120.6255017
  37.1099987  46.8295006 131.8845017  38.0669987  46.8295006 131.8845017
  36.8699987  47.7565006 131.8845017  33.1479987  47.6305006 124.5195017
  34.1049987  47.6305006 124.5195017  32.9079987  48.5575006 124.5195017
  33.0829987  45.7575006 133.5315017  34.0399987  45.7575006 133.5315017
  32.8429987  46.6845006 133.5315017  24.7849987  48.3085006 126.4445017
  25.7419987  48.3085006 126.4445017  24.5449987  49.2355006 126.4445017
  26.1159987  51.7045006 129.1255017  27.0729987  51.7045006 129.1255017
  25.8759987  52.6315006 129.1255017  25.1249987  47.0515006 130.1135017
  26.0819987  47.0515006 130.1135017  24.8849987  47.9785006 130.1135017
  31.5119987  52.6145006 130.8155017  32.4689987  52.6145006 130.8155017
  31.2719987  53.5415006 130.8155017  25.9839987  51.3725006 134.8265017
  26.9409987  51.3725006 134.8265017  25.7439987  52.2995006 134.8265017
  32.0319987  46.8335006 122.2045017  32.9889987  46.8335006 122.2045017
  31.7919987  47.7605006 122.2045017  22.8399987  47.6235006 133.8155017
  23.7969987  47.6235006 133.8155017  22.5999987  48.5505006 133.8155017
  29.7519987  53.5625006 125.6695017  30.7089987  53.5625006 125.6695017
  29.5119987  54.4895006 125.6695017  24.2869987  53.4395006 135.5845017
  25.2439987  53.4395006 135.5845017  24.0469987  54.3665006 135.5845017
  35.7559987  38.5715006 122.0845017  36.7129987  38.5715006 122.0845017
  35.5159987  39.4985006 122.0845017  23.7609987  47.3345006 124.0585017
  24.7179987  47.3345006 124.0585017  23.5209987  48.2615006 124.0585017
  36.8829987  52.9265006 120.4435017  37.8399987  52.9265006 120.4435017
  36.6429987  53.8535006 120.4435017  19.8819987  49.7565006 132.9055017
  20.8389987  49.7565006 132.9055017  19.6419987  50.6835006 132.9055017
  19.6089987  52.4905006 129.7315017  20.5659987  52.4905006 129.7315017
  19.3689987  53.4175006 129.7315017  37.8969987  53.1705006 135.3785017
  38.8539987  53.1705006 135.3785017  37.6569987  54.0975006 135.3785017
  28.8299987  52.7655006 134.2575017  29.7869987  52.7655006 134.2575017
  28.5899987  53.6925006 134.2575017  29.2359987  56.4845006 124.0865017
  30.1929987  56.4845006 124.0865017  28.9959987  57.4115006 124.0865017
  22.8769987  55.3495006 125.8925017  23.8339987  55.3495006 125.8925017
  22.6369987  56.2765006 125.8925017  32.2999987  55.6905006 121.0655017
  33.2569987  55.6905006 121.0655017  32.0599987  56.6175006 121.0655017
  31.9889987  55.6165006 123.8325017  32.9459987  55.6165006 123.8325017
  31.7489987  56.5435006 123.8325017  34.9919987  44.7025006 135.6815017
  35.9489987  44.7025006 135.6815017  34.7519987  45.6295006 135.6815017
  22.1319987  51.0295006 133.8925017  23.0889987  51.0295006 133.8925017
  21.8919987  51.9565006 133.8925017  24.7949987  39.5345006 129.8565017
  25.7519987  39.5345006 129.8565017  24.5549987  40.4615006 129.8565017
  29.4349987  39.2355006 133.2455017  30.3919987  39.2355006 133.2455017
  29.1949987  40.1625006 133.2455017  32.7229987  43.0345006 134.1005017
  33.6799987  43.0345006 134.1005017  32.4829987  43.9615006 134.1005017
  33.4869987  47.8715006 119.9585017  34.4439987  47.8715006 119.9585017
  33.2469987  48.7985006 119.9585017  29.0819987  41.7845006 120.5075017
  30.0389987  41.7845006 120.5075017  28.8419987  42.7115006 120.5075017
  24.8879987  44.5015006 131.0625017  25.8449987  44.5015006 131.0625017
  24.6479987  45.4285006 131.0625017  24.8579987  44.6605006 125.9465017
  25.8149987  44.6605006 125.9465017  24.6179987  45.5875006 125.9465017
  30.3809987  45.1305006 124.7385017  31.3379987  45.1305006 124.7385017
  30.1409987  46.0575006 124.7385017  29.4219987  45.1285006 135.9725017
  30.3789987  45.1285006 135.9725017  29.1819987  46.0555006 135.9725017
  31.4079987  44.6105006 127.5685017  32.3649987  44.6105006 127.5685017
  31.1679987  45.5375006 127.5685017  22.5729987  44.7675006 132.8205017
  23.5299987  44.7675006 132.8205017  22.3329987  45.6945006 132.8205017
  25.9209987  42.1485006 119.6195017  26.8779987  42.1485006 119.6195017
  25.6809987  43.0755006 119.6195017  19.1819987  41.8895006 126.7315017
  20.1389987  41.8895006 126.7315017  18.9419987  42.8165006 126.7315017
  20.4589987  42.6115006 122.1185017  21.4159987  42.6115006 122.1185017
  20.2189987  43.5385006 122.1185017  30.6269987  46.2245006 132.1855017
  31.5839987  46.2245006 132.1855017  30.3869987  47.1515006 132.1855017
  27.4139987  42.1705006 126.9795017  28.3709987  42.1705006 126.9795017
  27.1739987  43.0975006 126.9795017  22.2459987  43.7475006 125.8155017
  23.2029987  43.7475006 125.8155017  22.0059987  44.6745006 125.8155017
  25.8859987  43.7705006 123.4525017  26.8429987  43.7705006 123.4525017
  25.6459987  44.6975006 123.4525017  31.8279987  41.4085006 130.2195017
  32.7849987  41.4085006 130.2195017  31.5879987  42.3355006 130.2195017
  24.5759987  44.9605006 121.0515017  25.5329987  44.9605006 121.0515017
  24.3359987  45.8875006 121.0515017  35.0769987  57.0555006 136.4945017
  36.0339987  57.0555006 136.4945017  34.8369987  57.9825006 136.4945017
  22.5169987  49.6215006 136.1205017  23.4739987  49.6215006 136.1205017
  22.2769987  50.5485006 136.1205017  28.7129987  44.9395006 128.8645017
  29.6699987  44.9395006 128.8645017  28.4729987  45.8665006 128.8645017
  23.7209987  41.0845006 125.2985017  24.6779987  41.0845006 125.2985017
  23.4809987  42.0115006 125.2985017  27.3469987  43.2695006 131.2775017
  28.3039987  43.2695006 131.2775017  27.1069987  44.1965006 131.2775017
  27.9379987  49.5045006 122.9675017  28.8949987  49.5045006 122.9675017
  27.6979987  50.4315006 122.9675017  35.0859987  48.6865006 131.7815017
  36.0429987  48.6865006 131.7815017  34.8459987  49.6135006 131.7815017
  31.7729987  42.3165006 121.1535017  32.7299987  42.3165006 121.1535017
  31.5329987  43.2435006 121.1535017  29.3559987  49.7395006 134.1405017
  30.3129987  49.7395006 134.1405017  29.1159987  50.6665006 134.1405017
  32.5049987  44.2165006 122.7925017  33.4619987  44.2165006 122.7925017
  32.2649987  45.1435006 122.7925017  23.0399987  48.8735006 128.7765017
  23.9969987  48.8735006 128.7765017  22.7999987  49.8005006 128.7765017
  30.0419987  50.9675006 121.9995017  30.9989987  50.9675006 121.9995017
  29.8019987  51.8945006 121.9995017  20.0539987  47.2985006 134.0475017
  21.0109987  47.2985006 134.0475017  19.8139987  48.2255006 134.0475017
  27.1599987  47.2105006 135.7715017  28.1169987  47.2105006 135.7715017
  26.9199987  48.1375006 135.7715017  31.7229987  52.2035006 134.1765017
  32.6799987  52.2035006 134.1765017  31.4829987  53.1305006 134.1765017
  37.4089987  44.3695006 122.5475017  38.3659987  44.3695006 122.5475017
  37.1689987  45.2965006 122.5475017  37.3729987  50.2215006 135.3515017
  38.3299987  50.2215006 135.3515017  37.1329987  51.1485006 135.3515017
  35.6519987  53.2085006 122.9485017  36.6089987  53.2085006 122.9485017
  35.4119987  54.1355006 122.9485017  32.8759987  48.0135006 130.0355017
  33.8329987  48.0135006 130.0355017  32.6359987  48.9405006 130.0355017
  25.4139987  52.3375006 126.1535017  26.3709987  52.3375006 126.1535017
  25.1739987  53.2645006 126.1535017  21.1749987  47.1835006 120.7245017
  22.1319987  47.1835006 120.7245017  20.9349987  48.1105006 120.7245017
  26.8379987  50.0015006 125.6795017  27.7949987  50.0015006 125.6795017
  26.5979987  50.9285006 125.6795017  27.2939987  54.1795006 132.0465017
  28.2509987  54.1795006 132.0465017  27.0539987  55.1065006 132.0465017
  25.5099987  55.0035006 125.2175017  26.4669987  55.0035006 125.2175017
  25.2699987  55.9305006 125.2175017  30.8499987  50.2205006 131.7085017
  31.8069987  50.2205006 131.7085017  30.6099987  51.1475006 131.7085017
  33.1279987  51.2445006 120.7925017  34.0849987  51.2445006 120.7925017
  32.8879987  52.1715006 120.7925017  33.5539987  54.7945006 134.2055017
  34.5109987  54.7945006 134.2055017  33.3139987  55.7215006 134.2055017
  37.6049987  55.6195006 121.0375017  38.5619987  55.6195006 121.0375017
  37.3649987  56.5465006 121.0375017  21.6889987  42.0535006 133.6415017
  22.6459987  42.0535006 133.6415017  21.4489987  42.9805006 133.6415017
  33.9229987  49.8765006 123.0105017  34.8799987  49.8765006 123.0105017
  33.6829987  50.8035006 123.0105017  21.3179987  53.8255006 132.0005017
  22.2749987  53.8255006 132.0005017  21.0779987  54.7525006 132.0005017
  27.2479987  52.3295006 119.2725017  28.2049987  52.3295006 119.2725017
  27.0079987  53.2565006 119.2725017  26.0669987  51.8605006 121.7285017
  27.0239987  51.8605006 121.7285017  25.8269987  52.7875006 121.7285017
  22.5799987  49.1065006 122.2195017  23.5369987  49.1065006 122.2195017
  22.3399987  50.0335006 122.2195017  30.4219987  41.7915006 132.5225017
  31.3789987  41.7915006 132.5225017  30.1819987  42.7185006 132.5225017
  31.1709987  41.3805006 123.6195017  32.1279987  41.3805006 123.6195017
  30.9309987  42.3075006 123.6195017  28.8529987  53.5315006 122.4475017
  29.8099987  53.5315006 122.4475017  28.6129987  54.4585006 122.4475017
  28.3879987  43.1335006 124.4435017  29.3449987  43.1335006 124.4435017
  28.1479987  44.0605006 124.4435017  28.9509987  44.1295006 133.5675017
  29.9079987  44.1295006 133.5675017  28.7109987  45.0565006 133.5675017
  29.2489987  40.1905006 125.3495017  30.2059987  40.1905006 125.3495017
  29.0089987  41.1175006 125.3495017  26.2339987  54.5675006 122.4585017
  27.1909987  54.5675006 122.4585017  25.9939987  55.4945006 122.4585017
  24.9029987  41.2835006 122.0445017  25.8599987  41.2835006 122.0445017
  24.6629987  42.2105006 122.0445017  35.1329987  41.9885006 134.4055017
  36.0899987  41.9885006 134.4055017  34.8929987  42.9155006 134.4055017
  33.7229987  45.7935006 128.5135017  34.6799987  45.7935006 128.5135017
  33.4829987  46.7205006 128.5135017  23.1419987  51.7235006 121.1005017
  24.0989987  51.7235006 121.1005017  22.9019987  52.6505006 121.1005017
  21.4839987  44.3935006 120.2305017  22.4409987  44.3935006 120.2305017
  21.2439987  45.3205006 120.2305017  34.7909987  55.0705006 130.1745017
  35.7479987  55.0705006 130.1745017  34.5509987  55.9975006 130.1745017
  22.2999987  39.1815006 128.9525017  23.2569987  39.1815006 128.9525017
  22.0599987  40.1085006 128.9525017  21.2499987  53.1015006 125.1025017
  22.2069987  53.1015006 125.1025017  21.0099987  54.0285006 125.1025017
  20.3609987  55.7735006 136.3295017  21.3179987  55.7735006 136.3295017
  20.1209987  56.7005006 136.3295017  29.2529987  54.1845006 119.4065017
  30.2099987  54.1845006 119.4065017  29.0129987  55.1115006 119.4065017
  33.8229987  53.9425006 119.6055017  34.7799987  53.9425006 119.6055017
  33.5829987  54.8695006 119.6055017  24.7219987  49.8765006 119.4395017
  25.6789987  49.8765006 119.4395017  24.4819987  50.8035006 119.4395017
  30.1389987  50.9645006 119.1985017  31.0959987  50.9645006 119.1985017
  29.8989987  51.8915006 119.1985017  32.7809987  49.4535006 134.1745017
  33.7379987  49.4535006 134.1745017  32.5409987  50.3805006 134.1745017
  25.9179987  47.8845006 121.8255017  26.8749987  47.8845006 121.8255017
  25.6779987  48.8115006 121.8255017  25.2519987  45.7555006 134.1775017
  26.2089987  45.7555006 134.1775017  25.0119987  46.6825006 134.1775017
  26.9899987  46.1055006 120.0455017  27.9469987  46.1055006 120.0455017
  26.7499987  47.0325006 120.0455017  36.3459987  48.4365006 119.4755017
  37.3029987  48.4365006 119.4755017  36.1059987  49.3635006 119.4755017
  25.3849987  43.1785006 135.0745017  26.3419987  43.1785006 135.0745017
  25.1449987  44.1055006 135.0745017  25.9819987  41.4495006 132.7665017
  26.9389987  41.4495006 132.7665017  25.7419987  42.3765006 132.7665017
  27.5349987  46.9275006 132.9855017  28.4919987  46.9275006 132.9855017
  27.2949987  47.8545006 132.9855017  33.1309987  47.3135006 135.4995017
  34.0879987  47.3135006 135.4995017  32.8909987  48.2405006 135.4995017
  26.7829987  38.9125006 133.1755017  27.7399987  38.9125006 133.1755017
  26.5429987  39.8395006 133.1755017  30.7669987  42.3185006 135.7875017
  31.7239987  42.3185006 135.7875017  30.5269987  43.2455006 135.7875017
  27.0019987  38.2685006 135.8525017  27.9589987  38.2685006 135.8525017
  26.7619987  39.1955006 135.8525017  26.8369987  56.8025006 121.1085017
  27.7939987  56.8025006 121.1085017  26.5969987  57.7295006 121.1085017
  20.3989987  51.4055006 120.5775017  21.3559987  51.4055006 120.5775017
  20.1589987  52.3325006 120.5775017  19.1539987  56.7875006 125.5675017
  20.1109987  56.7875006 125.5675017  18.9139987  57.7145006 125.5675017
  19.9829987  54.9055006 127.4215017  20.9399987  54.9055006 127.4215017
  19.7429987  55.8325006 127.4215017  37.5139987  55.7315006 130.3745017
  38.4709987  55.7315006 130.3745017  37.2739987  56.6585006 130.3745017
  37.1209987  55.2985006 133.2895017  38.0779987  55.2985006 133.2895017
  36.8809987  56.2255006 133.2895017  36.8619987  49.3195006 123.3945017
  37.8189987  49.3195006 123.3945017  36.6219987  50.2465006 123.3945017
  37.2379987  47.3805006 125.2835017  38.1949987  47.3805006 125.2835017
  36.9979987  48.3075006 125.2835017  37.0479987  50.1255006 130.4465017
  38.0049987  50.1255006 130.4465017  36.8079987  51.0525006 130.4465017
  35.5119987  53.0165006 132.5755017  36.4689987  53.0165006 132.5755017
  35.2719987  53.9435006 132.5755017  37.5189987  47.2525006 121.6935017
  38.4759987  47.2525006 121.6935017  37.2789987  48.1795006 121.6935017
  35.8839987  44.4845006 120.2035017  36.8409987  44.4845006 120.2035017
  35.6439987  45.4115006 120.2035017  35.0229987  45.8865006 125.8515017
  35.9799987  45.8865006 125.8515017  34.7829987  46.8135006 125.8515017
  20.0489987  48.0475006 129.9145017  21.0059987  48.0475006 129.9145017
  19.8089987  48.9745006 129.9145017  35.8799987  47.7095006 135.0855017
  36.8369987  47.7095006 135.0855017  35.6399987  48.6365006 135.0855017
  37.4249987  45.7975006 136.1075017  38.3819987  45.7975006 136.1075017
  37.1849987  46.7245006 136.1075017  35.1229987  41.9455006 119.3465017
  36.0799987  41.9455006 119.3465017  34.8829987  42.8725006 119.3465017
  34.6929987  43.4815006 124.2955017  35.6499987  43.4815006 124.2955017
  34.4529987  44.4085006 124.2955017  35.3349987  44.0285006 129.7615017
  36.2919987  44.0285006 129.7615017  35.0949987  44.9555006 129.7615017
  35.4009987  44.7575006 132.5555017  36.3579987  44.7575006 132.5555017
  35.1609987  45.6845006 132.5555017  19.6469987  43.2755006 136.1385017
  20.6039987  43.2755006 136.1385017  19.4069987  44.2025006 136.1385017
  35.3669987  40.7655006 124.3705017  36.3239987  40.7655006 124.3705017
  35.1269987  41.6925006 124.3705017  20.8889987  41.5625006 128.8765017
  21.8459987  41.5625006 128.8765017  20.6489987  42.4895006 128.8765017
  19.2919987  45.2545006 129.3595017  20.2489987  45.2545006 129.3595017
  19.0519987  46.1815006 129.3595017  37.2639987  40.9155006 136.0775017
  38.2209987  40.9155006 136.0775017  37.0239987  41.8425006 136.0775017
  37.1889987  40.8025006 120.9225017  38.1459987  40.8025006 120.9225017
  36.9489987  41.7295006 120.9225017  19.5119987  40.8425006 124.0415017
  20.4689987  40.8425006 124.0415017  19.2719987  41.7695006 124.0415017
  34.2379987  55.8045006 125.9785017  35.1949987  55.8045006 125.9785017
  33.9979987  56.7315006 125.9785017  19.5089987  39.5105006 132.4035017
  20.4659987  39.5105006 132.4035017  19.2689987  40.4375006 132.4035017
  21.7009987  52.7835006 136.4455017  22.6579987  52.7835006 136.4455017
  21.4609987  53.7105006 136.4455017  24.5949987  53.6855006 132.7585017
  25.5519987  53.6855006 132.7585017  24.3549987  54.6125006 132.7585017
  28.8799987  55.3575006 135.5015017  29.8369987  55.3575006 135.5015017
  28.6399987  56.2845006 135.5015017  31.2409987  56.3935006 135.0035017
  32.1979987  56.3935006 135.0035017  31.0009987  57.3205006 135.0035017
  36.2159987  39.0125006 134.0755017  37.1729987  39.0125006 134.0755017
  35.9759987  39.9395006 134.0755017  22.0119987  56.9275006 132.7765017
  22.9689987  56.9275006 132.7765017  21.7719987  57.8545006 132.7765017
  24.4779987  56.5195006 131.8185017  25.4349987  56.5195006 131.8185017
  24.2379987  57.4465006 131.8185017  29.1939987  56.4265006 131.0195017
  30.1509987  56.4265006 131.0195017  28.9539987  57.3535006 131.0195017
  31.4949987  55.2695006 132.0095017  32.4519987  55.2695006 132.0095017
  31.2549987  56.1965006 132.0095017  34.0739987  56.8365006 132.2805017
  35.0309987  56.8365006 132.2805017  33.8339987  57.7635006 132.2805017
  21.4539987  55.5865006 129.7145017  22.4109987  55.5865006 129.7145017
  21.2139987  56.5135006 129.7145017  23.5489987  54.2975006 128.3695017
  24.5059987  54.2975006 128.3695017  23.3089987  55.2245006 128.3695017
  26.1379987  54.7765006 129.2465017  27.0949987  54.7765006 129.2465017
  25.8979987  55.7035006 129.2465017  29.6109987  40.4275006 128.3885017
  30.5679987  40.4275006 128.3885017  29.3709987  41.3545006 128.3885017
  34.7459987  38.4865006 128.4735017  35.7029987  38.4865006 128.4735017
  34.5059987  39.4135006 128.4735017  36.4229987  39.7095006 126.7535017
  37.3799987  39.7095006 126.7535017  36.1829987  40.6365006 126.7535017
  21.9699987  39.0605006 126.2235017  22.9269987  39.0605006 126.2235017
  21.7299987  39.9875006 126.2235017  20.7699987  38.8275006 121.9735017
  21.7269987  38.8275006 121.9735017  20.5299987  39.7545006 121.9735017
  26.4709987  38.9805006 126.0135017  27.4279987  38.9805006 126.0135017
  26.2309987  39.9075006 126.0135017  32.1379987  39.0055006 127.6535017
  33.0949987  39.0055006 127.6535017  31.8979987  39.9325006 127.6535017
  33.4359987  39.0365006 123.3345017  34.3929987  39.0365006 123.3345017
  33.1959987  39.9635006 123.3345017  20.6719987  54.7675006 122.9555017
  21.6289987  54.7675006 122.9555017  20.4319987  55.6945006 122.9555017
  22.5909987  40.7595006 120.4555017  23.5479987  40.7595006 120.4555017
  22.3509987  41.6865006 120.4555017  27.6189987  41.0135006 122.8705017
  28.5759987  41.0135006 122.8705017  27.3789987  41.9405006 122.8705017
  29.5329987  56.0495006 121.3185017  30.4899987  56.0495006 121.3185017
  29.2929987  56.9765006 121.3185017  36.2489987  55.5825006 124.0155017
  37.2059987  55.5825006 124.0155017  36.0089987  56.5095006 124.0155017
  21.8429987  39.5705006 135.6785017  22.7999987  39.5705006 135.6785017
  21.6029987  40.4975006 135.6785017  22.4669987  55.7385006 119.9195017
  23.4239987  55.7385006 119.9195017  22.2269987  56.6655006 119.9195017
  35.6619987  54.4225006 135.9015017  36.6189987  54.4225006 135.9015017
  35.4219987  55.3495006 135.9015017  49.9119987  48.1935006 126.1085017
  50.8689987  48.1935006 126.1085017  49.6719987  49.1205006 126.1085017
  48.7729987  47.4595006 129.6155017  49.7299987  47.4595006 129.6155017
  48.5329987  48.3865006 129.6155017  41.1359987  47.1145006 131.1585017
  42.0929987  47.1145006 131.1585017  40.8959987  48.0415006 131.1585017
  52.4819987  50.3995006 127.8715017  53.4389987  50.3995006 127.8715017
  52.2419987  51.3265006 127.8715017  42.0709987  51.5665006 129.6675017
  43.0279987  51.5665006 129.6675017  41.8309987  52.4935006 129.6675017
  38.7119987  45.1455006 125.1265017  39.6689987  45.1455006 125.1265017
  38.4719987  46.0725006 125.1265017  39.4139987  47.3455006 127.2575017
  40.3709987  47.3455006 127.2575017  39.1739987  48.2725006 127.2575017
  49.6019987  55.5585006 128.1165017  50.5589987  55.5585006 128.1165017
  49.3619987  56.4855006 128.1165017  47.1549987  49.8365006 130.0665017
  48.1119987  49.8365006 130.0665017  46.9149987  50.7635006 130.0665017
  55.7799987  41.5005006 130.8095017  56.7369987  41.5005006 130.8095017
  55.5399987  42.4275006 130.8095017  50.3109987  44.3305006 130.3655017
  51.2679987  44.3305006 130.3655017  50.0709987  45.2575006 130.3655017
  43.4499987  42.4065006 127.5935017  44.4069987  42.4065006 127.5935017
  43.2099987  43.3335006 127.5935017  51.1879987  42.4855006 125.9555017
  52.1449987  42.4855006 125.9555017  50.9479987  43.4125006 125.9555017
  40.0699987  44.8125006 128.3355017  41.0269987  44.8125006 128.3355017
  39.8299987  45.7395006 128.3355017  45.2349987  46.3725006 127.6205017
  46.1919987  46.3725006 127.6205017  44.9949987  47.2995006 127.6205017
  56.2219987  42.9305006 133.0605017  57.1789987  42.9305006 133.0605017
  55.9819987  43.8575006 133.0605017  42.3309987  41.3005006 131.6495017
  43.2879987  41.3005006 131.6495017  42.0909987  42.2275006 131.6495017
  49.6489987  50.7955006 125.1825017  50.6059987  50.7955006 125.1825017
  49.4089987  51.7225006 125.1825017  44.8909987  48.9655006 131.9325017
  45.8479987  48.9655006 131.9325017  44.6509987  49.8925006 131.9325017
  52.9909987  41.8225006 127.9455017  53.9479987  41.8225006 127.9455017
  52.7509987  42.7495006 127.9455017  41.8919987  43.1775006 129.6355017
  42.8489987  43.1775006 129.6355017  41.6519987  44.1045006 129.6355017
  43.2959987  50.9425006 132.6845017  44.2529987  50.9425006 132.6845017
  43.0559987  51.8695006 132.6845017  39.4199987  50.5805006 123.4805017
  40.3769987  50.5805006 123.4805017  39.1799987  51.5075006 123.4805017
  53.0099987  52.2265006 130.2385017  53.9669987  52.2265006 130.2385017
  52.7699987  53.1535006 130.2385017  53.3139987  40.5165006 131.6185017
  54.2709987  40.5165006 131.6185017  53.0739987  41.4435006 131.6185017
  46.3029987  38.6355006 129.0975017  47.2599987  38.6355006 129.0975017
  46.0629987  39.5625006 129.0975017  51.2569987  54.0195006 126.8415017
  52.2139987  54.0195006 126.8415017  51.0169987  54.9465006 126.8415017
  52.4599987  51.9465006 125.3505017  53.4169987  51.9465006 125.3505017
  52.2199987  52.8735006 125.3505017  54.1219987  50.5245006 133.8435017
  55.0789987  50.5245006 133.8435017  53.8819987  51.4515006 133.8435017
  48.5879987  47.4345006 123.6175017  49.5449987  47.4345006 123.6175017
  48.3479987  48.3615006 123.6175017  48.6479987  45.9715006 120.6265017
  49.6049987  45.9715006 120.6265017  48.4079987  46.8985006 120.6265017
  55.9709987  46.8325006 131.8855017  56.9279987  46.8325006 131.8855017
  55.7309987  47.7595006 131.8855017  52.0229987  47.6495006 124.5305017
  52.9799987  47.6495006 124.5305017  51.7829987  48.5765006 124.5305017
  51.9119987  45.7505006 133.5415017  52.8689987  45.7505006 133.5415017
  51.6719987  46.6775006 133.5415017  43.6409987  48.3085006 126.4445017
  44.5979987  48.3085006 126.4445017  43.4009987  49.2355006 126.4445017
  44.9739987  51.7085006 129.1245017  45.9309987  51.7085006 129.1245017
  44.7339987  52.6355006 129.1245017  43.9909987  47.0465006 130.1035017
  44.9479987  47.0465006 130.1035017  43.7509987  47.9735006 130.1035017
  50.3759987  52.6275006 130.8185017  51.3329987  52.6275006 130.8185017
  50.1359987  53.5545006 130.8185017  44.8839987  51.4075006 134.7885017
  45.8409987  51.4075006 134.7885017  44.6439987  52.3345006 134.7885017
  50.8889987  46.8365006 122.2075017  51.8459987  46.8365006 122.2075017
  50.6489987  47.7635006 122.2075017  41.8419987  47.6515006 134.0035017
  42.7989987  47.6515006 134.0035017  41.6019987  48.5785006 134.0035017
  48.6099987  53.5625006 125.6685017  49.5669987  53.5625006 125.6685017
  48.3699987  54.4895006 125.6685017  43.1369987  53.4775006 135.5815017
  44.0939987  53.4775006 135.5815017  42.8969987  54.4045006 135.5815017
  54.4709987  38.4685006 121.8555017  55.4279987  38.4685006 121.8555017
  54.2309987  39.3955006 121.8555017  42.6169987  47.3345006 124.0595017
  43.5739987  47.3345006 124.0595017  42.3769987  48.2615006 124.0595017
  55.7389987  52.9265006 120.4425017  56.6959987  52.9265006 120.4425017
  55.4989987  53.8535006 120.4425017  38.7189987  49.7535006 132.9075017
  39.6759987  49.7535006 132.9075017  38.4789987  50.6805006 132.9075017
  38.4809987  52.5035006 129.7605017  39.4379987  52.5035006 129.7605017
  38.2409987  53.4305006 129.7605017  56.7479987  53.1655006 135.3605017
  57.7049987  53.1655006 135.3605017  56.5079987  54.0925006 135.3605017
  47.6859987  52.7615006 134.2595017  48.6429987  52.7615006 134.2595017
  47.4459987  53.6885006 134.2595017  48.0919987  56.4845006 124.0855017
  49.0489987  56.4845006 124.0855017  47.8519987  57.4115006 124.0855017
  41.7349987  55.3515006 125.8955017  42.6919987  55.3515006 125.8955017
  41.4949987  56.2785006 125.8955017  51.1569987  55.6895006 121.0685017
  52.1139987  55.6895006 121.0685017  50.9169987  56.6165006 121.0685017
  50.8459987  55.6165006 123.8335017  51.8029987  55.6165006 123.8335017
  50.6059987  56.5435006 123.8335017  53.8519987  44.7015006 135.6805017
  54.8089987  44.7015006 135.6805017  53.6119987  45.6285006 135.6805017
  40.9759987  51.0525006 133.8985017  41.9329987  51.0525006 133.8985017
  40.7359987  51.9795006 133.8985017  43.6509987  39.5345006 129.8565017
  44.6079987  39.5345006 129.8565017  43.4109987  40.4615006 129.8565017
  48.2899987  39.2365006 133.2455017  49.2469987  39.2365006 133.2455017
  48.0499987  40.1635006 133.2455017  51.5699987  43.0285006 134.0895017
  52.5269987  43.0285006 134.0895017  51.3299987  43.9555006 134.0895017
  52.3489987  47.8615006 119.9635017  53.3059987  47.8615006 119.9635017
  52.1089987  48.7885006 119.9635017  47.9469987  41.7805006 120.5195017
  48.9039987  41.7805006 120.5195017  47.7069987  42.7075006 120.5195017
  43.7329987  44.4905006 131.0395017  44.6899987  44.4905006 131.0395017
  43.4929987  45.4175006 131.0395017  43.7139987  44.6605006 125.9465017
  44.6709987  44.6605006 125.9465017  43.4739987  45.5875006 125.9465017
  49.2379987  45.1285006 124.7385017  50.1949987  45.1285006 124.7385017
  48.9979987  46.0555006 124.7385017  48.2889987  45.1495006 135.9535017
  49.2459987  45.1495006 135.9535017  48.0489987  46.0765006 135.9535017
  50.2649987  44.6105006 127.5695017  51.2219987  44.6105006 127.5695017
  50.0249987  45.5375006 127.5695017  41.4359987  44.7835006 132.8295017
  42.3929987  44.7835006 132.8295017  41.1959987  45.7105006 132.8295017
  44.7779987  42.1695006 119.6275017  45.7349987  42.1695006 119.6275017
  44.5379987  43.0965006 119.6275017  38.0399987  41.8975006 126.7445017
  38.9969987  41.8975006 126.7445017  37.7999987  42.8245006 126.7445017
  39.3149987  42.6095006 122.1185017  40.2719987  42.6095006 122.1185017
  39.0749987  43.5365006 122.1185017  49.4499987  46.2185006 132.2015017
  50.4069987  46.2185006 132.2015017  49.2099987  47.1455006 132.2015017
  46.2709987  42.1715006 126.9805017  47.2279987  42.1715006 126.9805017
  46.0309987  43.0985006 126.9805017  41.0939987  43.7465006 125.8325017
  42.0509987  43.7465006 125.8325017  40.8539987  44.6735006 125.8325017
  44.7419987  43.7705006 123.4535017  45.6989987  43.7705006 123.4535017
  44.5019987  44.6975006 123.4535017  50.6889987  41.4075006 130.2135017
  51.6459987  41.4075006 130.2135017  50.4489987  42.3345006 130.2135017
  43.4319987  44.9605006 121.0505017  44.3889987  44.9605006 121.0505017
  43.1919987  45.8875006 121.0505017  53.9249987  57.0585006 136.4865017
  54.8819987  57.0585006 136.4865017  53.6849987  57.9855006 136.4865017
  41.4159987  49.5455006 136.0725017  42.3729987  49.5455006 136.0725017
  41.1759987  50.4725006 136.0725017  47.5749987  44.9485006 128.8835017
  48.5319987  44.9485006 128.8835017  47.3349987  45.8755006 128.8835017
  42.5769987  41.0845006 125.2985017  43.5339987  41.0845006 125.2985017
  42.3369987  42.0115006 125.2985017  46.2079987  43.2755006 131.2735017
  47.1649987  43.2755006 131.2735017  45.9679987  44.2025006 131.2735017
  46.7919987  49.5045006 122.9675017  47.7489987  49.5045006 122.9675017
  46.5519987  50.4315006 122.9675017  53.9499987  48.6915006 131.7765017
  54.9069987  48.6915006 131.7765017  53.7099987  49.6185006 131.7765017
  50.6309987  42.3175006 121.1475017  51.5879987  42.3175006 121.1475017
  50.3909987  43.2445006 121.1475017  48.2919987  49.9055006 134.2035017
  49.2489987  49.9055006 134.2035017  48.0519987  50.8325006 134.2035017
  51.3449987  44.2285006 122.7915017  52.3019987  44.2285006 122.7915017
  51.1049987  45.1555006 122.7915017  41.9129987  48.8675006 128.7745017
  42.8699987  48.8675006 128.7745017  41.6729987  49.7945006 128.7745017
  48.8979987  50.9675006 122.0005017  49.8549987  50.9675006 122.0005017
  48.6579987  51.8945006 122.0005017  38.8899987  47.2945006 134.0305017
  39.8469987  47.2945006 134.0305017  38.6499987  48.2215006 134.0305017
  46.1339987  47.2075006 135.6875017  47.0909987  47.2075006 135.6875017
  45.8939987  48.1345006 135.6875017  50.5749987  52.2105006 134.1755017
  51.5319987  52.2105006 134.1755017  50.3349987  53.1375006 134.1755017
  56.2569987  44.3635006 122.5505017  57.2139987  44.3635006 122.5505017
  56.0169987  45.2905006 122.5505017  56.2279987  50.2245006 135.3495017
  57.1849987  50.2245006 135.3495017  55.9879987  51.1515006 135.3495017
  54.5279987  53.1995006 122.9605017  55.4849987  53.1995006 122.9605017
  54.2879987  54.1265006 122.9605017  51.7319987  48.0175006 130.0385017
  52.6889987  48.0175006 130.0385017  51.4919987  48.9445006 130.0385017
  44.2699987  52.3375006 126.1535017  45.2269987  52.3375006 126.1535017
  44.0299987  53.2645006 126.1535017  40.0309987  47.1835006 120.7245017
  40.9879987  47.1835006 120.7245017  39.7909987  48.1105006 120.7245017
  45.6939987  50.0015006 125.6805017  46.6509987  50.0015006 125.6805017
  45.4539987  50.9285006 125.6805017  46.1519987  54.1795006 132.0475017
  47.1089987  54.1795006 132.0475017  45.9119987  55.1065006 132.0475017
  44.3729987  55.0035006 125.2235017  45.3299987  55.0035006 125.2235017
  44.1329987  55.9305006 125.2235017  49.6829987  50.2045006 131.6975017
  50.6399987  50.2045006 131.6975017  49.4429987  51.1315006 131.6975017
  51.9829987  51.2445006 120.7925017  52.9399987  51.2445006 120.7925017
  51.7429987  52.1715006 120.7925017  52.3579987  54.8435006 134.2145017
  53.3149987  54.8435006 134.2145017  52.1179987  55.7705006 134.2145017
  56.4589987  55.6215006 121.0355017  57.4159987  55.6215006 121.0355017
  56.2189987  56.5485006 121.0355017  40.5419987  42.0545006 133.6425017
  41.4989987  42.0545006 133.6425017  40.3019987  42.9815006 133.6425017
  52.7789987  49.8875006 123.0275017  53.7359987  49.8875006 123.0275017
  52.5389987  50.8145006 123.0275017  40.1779987  53.8265006 132.0015017
  41.1349987  53.8265006 132.0015017  39.9379987  54.7535006 132.0015017
  46.1029987  52.3295006 119.2725017  47.0599987  52.3295006 119.2725017
  45.8629987  53.2565006 119.2725017  44.9229987  51.8605006 121.7285017
  45.8799987  51.8605006 121.7285017  44.6829987  52.7875006 121.7285017
  41.4369987  49.1055006 122.2185017  42.3939987  49.1055006 122.2185017
  41.1969987  50.0325006 122.2185017  49.2779987  41.7915006 132.5235017
  50.2349987  41.7915006 132.5235017  49.0379987  42.7185006 132.5235017
  50.0489987  41.3635006 123.6205017  51.0059987  41.3635006 123.6205017
  49.8089987  42.2905006 123.6205017  47.7089987  53.5315006 122.4475017
  48.6659987  53.5315006 122.4475017  47.4689987  54.4585006 122.4475017
  47.2449987  43.1325006 124.4435017  48.2019987  43.1325006 124.4435017
  47.0049987  44.0595006 124.4435017  47.8449987  44.1845006 133.5575017
  48.8019987  44.1845006 133.5575017  47.6049987  45.1115006 133.5575017
  48.0869987  40.1915006 125.3455017  49.0439987  40.1915006 125.3455017
  47.8469987  41.1185006 125.3455017  45.0899987  54.5675006 122.4585017
  46.0469987  54.5675006 122.4585017  44.8499987  55.4945006 122.4585017
  43.7569987  41.2835006 122.0455017  44.7139987  41.2835006 122.0455017
  43.5169987  42.2105006 122.0455017  53.9889987  41.9865006 134.4045017
  54.9459987  41.9865006 134.4045017  53.7489987  42.9135006 134.4045017
  52.5879987  45.8055006 128.5095017  53.5449987  45.8055006 128.5095017
  52.3479987  46.7325006 128.5095017  41.9989987  51.7225006 121.1025017
  42.9559987  51.7225006 121.1025017  41.7589987  52.6495006 121.1025017
  40.3389987  44.3965006 120.2345017  41.2959987  44.3965006 120.2345017
  40.0989987  45.3235006 120.2345017  53.6419987  55.0765006 130.1785017
  54.5989987  55.0765006 130.1785017  53.4019987  56.0035006 130.1785017
  41.1529987  39.1835006 128.9535017  42.1099987  39.1835006 128.9535017
  40.9129987  40.1105006 128.9535017  40.1209987  53.1105006 125.0995017
  41.0779987  53.1105006 125.0995017  39.8809987  54.0375006 125.0995017
  39.2139987  55.7775006 136.3295017  40.1709987  55.7775006 136.3295017
  38.9739987  56.7045006 136.3295017  48.1089987  54.1845006 119.4065017
  49.0659987  54.1845006 119.4065017  47.8689987  55.1115006 119.4065017
  52.6799987  53.9425006 119.6055017  53.6369987  53.9425006 119.6055017
  52.4399987  54.8695006 119.6055017  43.5779987  49.8765006 119.4385017
  44.5349987  49.8765006 119.4385017  43.3379987  50.8035006 119.4385017
  48.9949987  50.9695006 119.1995017  49.9519987  50.9695006 119.1995017
  48.7549987  51.8965006 119.1995017  51.6079987  49.4535006 134.1595017
  52.5649987  49.4535006 134.1595017  51.3679987  50.3805006 134.1595017
  44.7749987  47.8845006 121.8255017  45.7319987  47.8845006 121.8255017
  44.5349987  48.8115006 121.8255017  44.1019987  45.7455006 134.1835017
  45.0589987  45.7455006 134.1835017  43.8619987  46.6725006 134.1835017
  45.8459987  46.1065006 120.0485017  46.8029987  46.1065006 120.0485017
  45.6059987  47.0335006 120.0485017  55.2029987  48.4375006 119.4775017
  56.1599987  48.4375006 119.4775017  54.9629987  49.3645006 119.4775017
  44.2709987  43.1795006 135.0785017  45.2279987  43.1795006 135.0785017
  44.0309987  44.1065006 135.0785017  44.8399987  41.4515006 132.7665017
  45.7969987  41.4515006 132.7665017  44.5999987  42.3785006 132.7665017
  46.1589987  46.7815006 132.7495017  47.1159987  46.7815006 132.7495017
  45.9189987  47.7085006 132.7495017  51.9769987  47.3205006 135.4905017
  52.9339987  47.3205006 135.4905017  51.7369987  48.2475006 135.4905017
  45.6339987  38.9155006 133.1775017  46.5909987  38.9155006 133.1775017
  45.3939987  39.8425006 133.1775017  49.6219987  42.3245006 135.7885017
  50.5789987  42.3245006 135.7885017  49.3819987  43.2515006 135.7885017
  45.8569987  38.2645006 135.8535017  46.8139987  38.2645006 135.8535017
  45.6169987  39.1915006 135.8535017  45.6929987  56.8025006 121.1085017
  46.6499987  56.8025006 121.1085017  45.4529987  57.7295006 121.1085017
  39.2549987  51.4055006 120.5765017  40.2119987  51.4055006 120.5765017
  39.0149987  52.3325006 120.5765017  38.0099987  56.7795006 125.5765017
  38.9669987  56.7795006 125.5765017  37.7699987  57.7065006 125.5765017
  38.8469987  54.9095006 127.4205017  39.8039987  54.9095006 127.4205017
  38.6069987  55.8365006 127.4205017  56.3749987  55.7075006 130.3645017
  57.3319987  55.7075006 130.3645017  56.1349987  56.6345006 130.3645017
  55.9569987  55.3015006 133.2925017  56.9139987  55.3015006 133.2925017
  55.7169987  56.2285006 133.2925017  55.7019987  49.3435006 123.4265017
  56.6589987  49.3435006 123.4265017  55.4619987  50.2705006 123.4265017
  56.0779987  47.4125006 125.2945017  57.0349987  47.4125006 125.2945017
  55.8379987  48.3395006 125.2945017  55.8279987  50.1265006 130.2725017
  56.7849987  50.1265006 130.2725017  55.5879987  51.0535006 130.2725017
  54.3659987  53.0195006 132.5635017  55.3229987  53.0195006 132.5635017
  54.1259987  53.9465006 132.5635017  56.3739987  47.2505006 121.6925017
  57.3309987  47.2505006 121.6925017  56.1339987  48.1775006 121.6925017
  54.7449987  44.4835006 120.2165017  55.7019987  44.4835006 120.2165017
  54.5049987  45.4105006 120.2165017  53.8909987  45.8975006 125.8585017
  54.8479987  45.8975006 125.8585017  53.6509987  46.8245006 125.8585017
  38.8999987  47.9445006 129.9135017  39.8569987  47.9445006 129.9135017
  38.6599987  48.8715006 129.9135017  54.7319987  47.7115006 135.0835017
  55.6889987  47.7115006 135.0835017  54.4919987  48.6385006 135.0835017
  56.2939987  45.7975006 136.1125017  57.2509987  45.7975006 136.1125017
  56.0539987  46.7245006 136.1125017  53.9829987  41.9415006 119.3555017
  54.9399987  41.9415006 119.3555017  53.7429987  42.8685006 119.3555017
  53.5529987  43.5055006 124.2895017  54.5099987  43.5055006 124.2895017
  53.3129987  44.4325006 124.2895017  54.1929987  44.0205006 129.7645017
  55.1499987  44.0205006 129.7645017  53.9529987  44.9475006 129.7645017
  54.2629987  44.7595006 132.5535017  55.2199987  44.7595006 132.5535017
  54.0229987  45.6865006 132.5535017  38.5029987  43.2585006 136.0425017
  39.4599987  43.2585006 136.0425017  38.2629987  44.1855006 136.0425017
  53.9049987  40.8975006 124.5715017  54.8619987  40.8975006 124.5715017
  53.6649987  41.8245006 124.5715017  39.7129987  41.5705006 128.9195017
  40.6699987  41.5705006 128.9195017  39.4729987  42.4975006 128.9195017
  37.9999987  44.5655006 129.9715017  38.9569987  44.5655006 129.9715017
  37.7599987  45.4925006 129.9715017  56.1199987  40.9195006 136.0765017
  57.0769987  40.9195006 136.0765017  55.8799987  41.8465006 136.0765017
  56.0759987  40.7545006 121.0035017  57.0329987  40.7545006 121.0035017
  55.8359987  41.6815006 121.0035017  38.3639987  40.8395006 124.0435017
  39.3209987  40.8395006 124.0435017  38.1239987  41.7665006 124.0435017
  53.1009987  55.7875006 125.9885017  54.0579987  55.7875006 125.9885017
  52.8609987  56.7145006 125.9885017  38.3309987  39.5255006 132.3565017
  39.2879987  39.5255006 132.3565017  38.0909987  40.4525006 132.3565017
  40.5469987  52.8065006 136.4465017  41.5039987  52.8065006 136.4465017
  40.3069987  53.7335006 136.4465017  43.4499987  53.6835006 132.7605017
  44.4069987  53.6835006 132.7605017  43.2099987  54.6105006 132.7605017
  47.7439987  55.3465006 135.4865017  48.7009987  55.3465006 135.4865017
  47.5039987  56.2735006 135.4865017  50.1239987  56.4125006 134.9925017
  51.0809987  56.4125006 134.9925017  49.8839987  57.3395006 134.9925017
  55.0719987  39.0145006 134.0745017  56.0289987  39.0145006 134.0745017
  54.8319987  39.9415006 134.0745017  40.8769987  56.9415006 132.7755017
  41.8339987  56.9415006 132.7755017  40.6369987  57.8685006 132.7755017
  43.3349987  56.5195006 131.8205017  44.2919987  56.5195006 131.8205017
  43.0949987  57.4465006 131.8205017  48.0919987  56.4425006 131.0165017
  49.0489987  56.4425006 131.0165017  47.8519987  57.3695006 131.0165017
  50.3179987  55.2345006 132.0265017  51.2749987  55.2345006 132.0265017
  50.0779987  56.1615006 132.0265017  52.9899987  56.8215006 132.2485017
  53.9469987  56.8215006 132.2485017  52.7499987  57.7485006 132.2485017
  40.3089987  55.5855006 129.7165017  41.2659987  55.5855006 129.7165017
  40.0689987  56.5125006 129.7165017  42.4049987  54.2975006 128.3695017
  43.3619987  54.2975006 128.3695017  42.1649987  55.2245006 128.3695017
  44.9989987  54.7795006 129.2435017  45.9559987  54.7795006 129.2435017
  44.7589987  55.7065006 129.2435017  48.4679987  40.4285006 128.3865017
  49.4249987  40.4285006 128.3865017  48.2279987  41.3555006 128.3865017
  53.6049987  38.4755006 128.4535017  54.5619987  38.4755006 128.4535017
  53.3649987  39.4025006 128.4535017  55.2649987  39.7215006 126.6885017
  56.2219987  39.7215006 126.6885017  55.0249987  40.6485006 126.6885017
  40.8259987  39.0615006 126.2235017  41.7829987  39.0615006 126.2235017
  40.5859987  39.9885006 126.2235017  39.6099987  38.8195006 121.9725017
  40.5669987  38.8195006 121.9725017  39.3699987  39.7465006 121.9725017
  45.3269987  38.9805006 126.0135017  46.2839987  38.9805006 126.0135017
  45.0869987  39.9075006 126.0135017  50.9859987  39.0085006 127.6615017
  51.9429987  39.0085006 127.6615017  50.7459987  39.9355006 127.6615017
  52.3219987  39.0375006 123.3295017  53.2789987  39.0375006 123.3295017
  52.0819987  39.9645006 123.3295017  39.5279987  54.7675006 122.9545017
  40.4849987  54.7675006 122.9545017  39.2879987  55.6945006 122.9545017
  41.4469987  40.7585006 120.4555017  42.4039987  40.7585006 120.4555017
  41.2069987  41.6855006 120.4555017  46.4749987  41.0135006 122.8705017
  47.4319987  41.0135006 122.8705017  46.2349987  41.9405006 122.8705017
  48.3889987  56.0495006 121.3185017  49.3459987  56.0495006 121.3185017
  48.1489987  56.9765006 121.3185017  55.0969987  55.5765006 124.0235017
  56.0539987  55.5765006 124.0235017  54.8569987  56.5035006 124.0235017
  40.7079987  39.5685006 135.6865017  41.6649987  39.5685006 135.6865017
  40.4679987  40.4955006 135.6865017  41.3219987  55.7375006 119.9255017
  42.2789987  55.7375006 119.9255017  41.0819987  56.6645006 119.9255017
  54.5099987  54.4155006 135.8855017  55.4669987  54.4155006 135.8855017
  54.2699987  55.3425006 135.8855017  68.7679987  48.1915006 126.1075017
  69.7249987  48.1915006 126.1075017  68.5279987  49.1185006 126.1075017
  67.6399987  47.4575006 129.5975017  68.5969987  47.4575006 129.5975017
  67.3999987  48.3845006 129.5975017  59.9879987  47.1185006 131.1545017
  60.9449987  47.1185006 131.1545017  59.7479987  48.0455006 131.1545017
  71.3379987  50.3995006 127.8715017  72.2949987  50.3995006 127.8715017
  71.0979987  51.3265006 127.8715017  60.9239987  51.5645006 129.6685017
  61.8809987  51.5645006 129.6685017  60.6839987  52.4915006 129.6685017
  57.5799987  45.1345006 125.1345017  58.5369987  45.1345006 125.1345017
  57.3399987  46.0615006 125.1345017  58.2629987  47.3575006 127.2595017
  59.2199987  47.3575006 127.2595017  58.0229987  48.2845006 127.2595017
  68.4329987  55.5325006 128.1025017  69.3899987  55.5325006 128.1025017
  68.1929987  56.4595006 128.1025017  66.0159987  49.8675006 130.0355017
  66.9729987  49.8675006 130.0355017  65.7759987  50.7945006 130.0355017
  74.6349987  41.5025006 130.8075017  75.5919987  41.5025006 130.8075017
  74.3949987  42.4295006 130.8075017  69.1789987  44.3215006 130.3615017
  70.1359987  44.3215006 130.3615017  68.9389987  45.2485006 130.3615017
  62.3749987  42.5005006 127.6365017  63.3319987  42.5005006 127.6365017
  62.1349987  43.4275006 127.6365017  70.0329987  42.4965006 125.9665017
  70.9899987  42.4965006 125.9665017  69.7929987  43.4235006 125.9665017
  58.9289987  44.8175006 128.3425017  59.8859987  44.8175006 128.3425017
  58.6889987  45.7445006 128.3425017  64.0909987  46.3765006 127.6165017
  65.0479987  46.3765006 127.6165017  63.8509987  47.3035006 127.6165017
  75.0729987  42.9365006 133.0595017  76.0299987  42.9365006 133.0595017
  74.8329987  43.8635006 133.0595017  61.1699987  41.2715006 131.6385017
  62.1269987  41.2715006 131.6385017  60.9299987  42.1985006 131.6385017
  68.5049987  50.7945006 125.1825017  69.4619987  50.7945006 125.1825017
  68.2649987  51.7215006 125.1825017  63.7199987  48.9515006 131.8955017
  64.6769987  48.9515006 131.8955017  63.4799987  49.8785006 131.8955017
  71.8299987  41.8325006 127.9555017  72.7869987  41.8325006 127.9555017
  71.5899987  42.7595006 127.9555017  60.7469987  43.1605006 129.6315017
  61.7039987  43.1605006 129.6315017  60.5069987  44.0875006 129.6315017
  62.1459987  50.9465006 132.6815017  63.1029987  50.9465006 132.6815017
  61.9059987  51.8735006 132.6815017  58.2459987  50.5795006 123.4965017
  59.2029987  50.5795006 123.4965017  58.0059987  51.5065006 123.4965017
  71.8629987  52.2335006 130.2395017  72.8199987  52.2335006 130.2395017
  71.6229987  53.1605006 130.2395017  72.1689987  40.5165006 131.6195017
  73.1259987  40.5165006 131.6195017  71.9289987  41.4435006 131.6195017
  65.1429987  38.6475006 129.0545017  66.0999987  38.6475006 129.0545017
  64.9029987  39.5745006 129.0545017  70.1139987  54.0215006 126.8405017
  71.0709987  54.0215006 126.8405017  69.8739987  54.9485006 126.8405017
  71.3159987  51.9465006 125.3505017  72.2729987  51.9465006 125.3505017
  71.0759987  52.8735006 125.3505017  72.9849987  50.5235006 133.8445017
  73.9419987  50.5235006 133.8445017  72.7449987  51.4505006 133.8445017
  67.4419987  47.4385006 123.6195017  68.3989987  47.4385006 123.6195017
  67.2019987  48.3655006 123.6195017  67.5049987  45.9655006 120.6315017
  68.4619987  45.9655006 120.6315017  67.2649987  46.8925006 120.6315017
  74.8249987  46.8335006 131.8835017  75.7819987  46.8335006 131.8835017
  74.5849987  47.7605006 131.8835017  70.8799987  47.6505006 124.5305017
  71.8369987  47.6505006 124.5305017  70.6399987  48.5775006 124.5305017
  70.7949987  45.7585006 133.5315017  71.7519987  45.7585006 133.5315017
  70.5549987  46.6855006 133.5315017  62.4999987  48.3205006 126.4395017
  63.4569987  48.3205006 126.4395017  62.2599987  49.2475006 126.4395017
  63.8289987  51.7055006 129.1255017  64.7859987  51.7055006 129.1255017
  63.5889987  52.6325006 129.1255017  62.8369987  47.0505006 130.0985017
  63.7939987  47.0505006 130.0985017  62.5969987  47.9775006 130.0985017
  69.2259987  52.6135006 130.8155017  70.1829987  52.6135006 130.8155017
  68.9859987  53.5405006 130.8155017  63.7309987  51.4185006 134.7925017
  64.6879987  51.4185006 134.7925017  63.4909987  52.3455006 134.7925017
  69.7459987  46.8365006 122.2065017  70.7029987  46.8365006 122.2065017
  69.5059987  47.7635006 122.2065017  60.6789987  47.6175006 134.0455017
  61.6359987  47.6175006 134.0455017  60.4389987  48.5445006 134.0455017
  67.4659987  53.5625006 125.6695017  68.4229987  53.5625006 125.6695017
  67.2259987  54.4895006 125.6695017  61.9919987  53.4775006 135.5825017
  62.9489987  53.4775006 135.5825017  61.7519987  54.4045006 135.5825017
  73.4709987  38.5695006 122.0775017  74.4279987  38.5695006 122.0775017
  73.2309987  39.4965006 122.0775017  61.4719987  47.3335006 124.0605017
  62.4289987  47.3335006 124.0605017  61.2319987  48.2605006 124.0605017
  74.5939987  52.9255006 120.4425017  75.5509987  52.9255006 120.4425017
  74.3539987  53.8525006 120.4425017  57.5709987  49.7585006 132.8985017
  58.5279987  49.7585006 132.8985017  57.3309987  50.6855006 132.8985017
  57.3159987  52.4945006 129.7325017  58.2729987  52.4945006 129.7325017
  57.0759987  53.4215006 129.7325017  75.6119987  53.1585006 135.3835017
  76.5689987  53.1585006 135.3835017  75.3719987  54.0855006 135.3835017
  66.5369987  52.7635006 134.2625017  67.4939987  52.7635006 134.2625017
  66.2969987  53.6905006 134.2625017  66.9389987  56.4795006 124.0825017
  67.8959987  56.4795006 124.0825017  66.6989987  57.4065006 124.0825017
  60.5899987  55.3495006 125.8935017  61.5469987  55.3495006 125.8935017
  60.3499987  56.2765006 125.8935017  70.0159987  55.6945006 121.0725017
  70.9729987  55.6945006 121.0725017  69.7759987  56.6215006 121.0725017
  69.6949987  55.6015006 123.8205017  70.6519987  55.6015006 123.8205017
  69.4549987  56.5285006 123.8205017  72.7069987  44.7015006 135.6805017
  73.6639987  44.7015006 135.6805017  72.4669987  45.6285006 135.6805017
  59.8369987  51.0415006 133.9065017  60.7939987  51.0415006 133.9065017
  59.5969987  51.9685006 133.9065017  62.5029987  39.5625006 129.8205017
  63.4599987  39.5625006 129.8205017  62.2629987  40.4895006 129.8205017
  67.1369987  39.2295006 133.2445017  68.0939987  39.2295006 133.2445017
  66.8969987  40.1565006 133.2445017  70.4329987  43.0315006 134.0945017
  71.3899987  43.0315006 134.0945017  70.1929987  43.9585006 134.0945017
  71.2059987  47.8695006 119.9405017  72.1629987  47.8695006 119.9405017
  70.9659987  48.7965006 119.9405017  66.8089987  41.7665006 120.5405017
  67.7659987  41.7665006 120.5405017  66.5689987  42.6935006 120.5405017
  62.5799987  44.4825006 131.0245017  63.5369987  44.4825006 131.0245017
  62.3399987  45.4095006 131.0245017  62.5709987  44.6095006 125.9645017
  63.5279987  44.6095006 125.9645017  62.3309987  45.5365006 125.9645017
  68.0879987  45.1295006 124.7375017  69.0449987  45.1295006 124.7375017
  67.8479987  46.0565006 124.7375017  67.1509987  45.1145006 135.9685017
  68.1079987  45.1145006 135.9685017  66.9109987  46.0415006 135.9685017
  69.1199987  44.6105006 127.5685017  70.0769987  44.6105006 127.5685017
  68.8799987  45.5375006 127.5685017  60.2749987  44.7735006 132.8305017
  61.2319987  44.7735006 132.8305017  60.0349987  45.7005006 132.8305017
  63.6379987  42.1665006 119.6225017  64.5949987  42.1665006 119.6225017
  63.3979987  43.0935006 119.6225017  56.8949987  41.8675006 126.7405017
  57.8519987  41.8675006 126.7405017  56.6549987  42.7945006 126.7405017
  58.1689987  42.6075006 122.1305017  59.1259987  42.6075006 122.1305017
  57.9289987  43.5345006 122.1305017  68.3389987  46.2245006 132.1865017
  69.2959987  46.2245006 132.1865017  68.0989987  47.1515006 132.1865017
  65.1179987  42.1445006 126.9765017  66.0749987  42.1445006 126.9765017
  64.8779987  43.0715006 126.9765017  59.9439987  43.6865006 125.8775017
  60.9009987  43.6865006 125.8775017  59.7039987  44.6135006 125.8775017
  63.5919987  43.7815006 123.4725017  64.5489987  43.7815006 123.4725017
  63.3519987  44.7085006 123.4725017  69.5399987  41.4085006 130.2195017
  70.4969987  41.4085006 130.2195017  69.2999987  42.3355006 130.2195017
  62.2789987  44.9655006 121.0595017  63.2359987  44.9655006 121.0595017
  62.0389987  45.8925006 121.0595017  72.7889987  57.0555006 136.4935017
  73.7459987  57.0555006 136.4935017  72.5489987  57.9825006 136.4935017
  60.2729987  49.4595006 136.1045017  61.2299987  49.4595006 136.1045017
  60.0329987  50.3865006 136.1045017  66.4219987  44.9375006 128.8635017
  67.3789987  44.9375006 128.8635017  66.1819987  45.8645006 128.8635017
  61.5019987  41.0715006 124.4895017  62.4589987  41.0715006 124.4895017
  61.2619987  41.9985006 124.4895017  65.0569987  43.2685006 131.2805017
  66.0139987  43.2685006 131.2805017  64.8169987  44.1955006 131.2805017
  65.6469987  49.5045006 122.9675017  66.6039987  49.5045006 122.9675017
  65.4069987  50.4315006 122.9675017  72.8019987  48.6905006 131.7775017
  73.7589987  48.6905006 131.7775017  72.5619987  49.6175006 131.7775017
  69.4829987  42.3105006 121.1675017  70.4399987  42.3105006 121.1675017
  69.2429987  43.2375006 121.1675017  67.0969987  49.7435006 134.1485017
  68.0539987  49.7435006 134.1485017  66.8569987  50.6705006 134.1485017
  70.2169987  44.2195006 122.7945017  71.1739987  44.2195006 122.7945017
  69.9769987  45.1465006 122.7945017  60.7519987  48.8665006 128.7705017
  61.7089987  48.8665006 128.7705017  60.5119987  49.7935006 128.7705017
  67.7499987  50.9665006 121.9955017  68.7069987  50.9665006 121.9955017
  67.5099987  51.8935006 121.9955017  57.7609987  47.2865006 134.0335017
  58.7179987  47.2865006 134.0335017  57.5209987  48.2135006 134.0335017
  64.8919987  47.2005006 135.7895017  65.8489987  47.2005006 135.7895017
  64.6519987  48.1275006 135.7895017  69.4359987  52.2005006 134.1745017
  70.3929987  52.2005006 134.1745017  69.1959987  53.1275006 134.1745017
  75.1219987  44.3705006 122.5485017  76.0789987  44.3705006 122.5485017
  74.8819987  45.2975006 122.5485017  75.0869987  50.2245006 135.3635017
  76.0439987  50.2245006 135.3635017  74.8469987  51.1515006 135.3635017
  73.3889987  53.2045006 122.9635017  74.3459987  53.2045006 122.9635017
  73.1489987  54.1315006 122.9635017  70.5949987  48.0315006 130.0145017
  71.5519987  48.0315006 130.0145017  70.3549987  48.9585006 130.0145017
  63.1239987  52.3355006 126.1545017  64.0809987  52.3355006 126.1545017
  62.8839987  53.2625006 126.1545017  58.8899987  47.1825006 120.7235017
  59.8469987  47.1825006 120.7235017  58.6499987  48.1095006 120.7235017
  64.5499987  50.0015006 125.6805017  65.5069987  50.0015006 125.6805017
  64.3099987  50.9285006 125.6805017  65.0059987  54.1805006 132.0455017
  65.9629987  54.1805006 132.0455017  64.7659987  55.1075006 132.0455017
  63.2209987  55.0045006 125.2185017  64.1779987  55.0045006 125.2185017
  62.9809987  55.9315006 125.2185017  68.5629987  50.2215006 131.7095017
  69.5199987  50.2215006 131.7095017  68.3229987  51.1485006 131.7095017
  70.8369987  51.2425006 120.7845017  71.7939987  51.2425006 120.7845017
  70.5969987  52.1695006 120.7845017  71.2729987  54.7905006 134.2075017
  72.2299987  54.7905006 134.2075017  71.0329987  55.7175006 134.2075017
  75.3139987  55.6225006 121.0365017  76.2709987  55.6225006 121.0365017
  75.0739987  56.5495006 121.0365017  59.3949987  42.0555006 133.6495017
  60.3519987  42.0555006 133.6495017  59.1549987  42.9825006 133.6495017
  71.6329987  49.8845006 123.0205017  72.5899987  49.8845006 123.0205017
  71.3929987  50.8115006 123.0205017  59.0289987  53.8245006 132.0005017
  59.9859987  53.8245006 132.0005017  58.7889987  54.7515006 132.0005017
  64.9459987  52.3135006 119.2625017  65.9029987  52.3135006 119.2625017
  64.7059987  53.2405006 119.2625017  63.7799987  51.8605006 121.7285017
  64.7369987  51.8605006 121.7285017  63.5399987  52.7875006 121.7285017
  60.2919987  49.1065006 122.2195017  61.2489987  49.1065006 122.2195017
  60.0519987  50.0335006 122.2195017  68.1309987  41.7885006 132.5255017
  69.0879987  41.7885006 132.5255017  67.8909987  42.7155006 132.5255017
  68.8829987  41.3765006 123.6225017  69.8399987  41.3765006 123.6225017
  68.6429987  42.3035006 123.6225017  66.5649987  53.5315006 122.4475017
  67.5219987  53.5315006 122.4475017  66.3249987  54.4585006 122.4475017
  66.1009987  43.1335006 124.4435017  67.0579987  43.1335006 124.4435017
  65.8609987  44.0605006 124.4435017  66.6609987  44.1315006 133.5685017
  67.6179987  44.1315006 133.5685017  66.4209987  45.0585006 133.5685017
  66.9609987  40.1905006 125.3485017  67.9179987  40.1905006 125.3485017
  66.7209987  41.1175006 125.3485017  63.9459987  54.5675006 122.4585017
  64.9029987  54.5675006 122.4585017  63.7059987  55.4945006 122.4585017
  62.6399987  41.2935006 121.9955017  63.5969987  41.2935006 121.9955017
  62.3999987  42.2205006 121.9955017  72.8449987  41.9905006 134.4055017
  73.8019987  41.9905006 134.4055017  72.6049987  42.9175006 134.4055017
  71.4439987  45.8055006 128.5095017  72.4009987  45.8055006 128.5095017
  71.2039987  46.7325006 128.5095017  60.8539987  51.7235006 121.1005017
  61.8109987  51.7235006 121.1005017  60.6139987  52.6505006 121.1005017
  59.1919987  44.4005006 120.2165017  60.1489987  44.4005006 120.2165017
  58.9519987  45.3275006 120.2165017  72.5139987  55.0395006 130.1585017
  73.4709987  55.0395006 130.1585017  72.2739987  55.9665006 130.1585017
  60.0339987  39.1815006 128.9275017  60.9909987  39.1815006 128.9275017
  59.7939987  40.1085006 128.9275017  58.9619987  53.1015006 125.1025017
  59.9189987  53.1015006 125.1025017  58.7219987  54.0285006 125.1025017
  58.0699987  55.7815006 136.3295017  59.0269987  55.7815006 136.3295017
  57.8299987  56.7085006 136.3295017  66.9689987  54.1905006 119.4265017
  67.9259987  54.1905006 119.4265017  66.7289987  55.1175006 119.4265017
  71.5399987  53.9495006 119.6245017  72.4969987  53.9495006 119.6245017
  71.2999987  54.8765006 119.6245017  62.4219987  49.8635006 119.4275017
  63.3789987  49.8635006 119.4275017  62.1819987  50.7905006 119.4275017
  67.8379987  50.9625006 119.2015017  68.7949987  50.9625006 119.2015017
  67.5979987  51.8895006 119.2015017  70.4939987  49.4525006 134.1735017
  71.4509987  49.4525006 134.1735017  70.2539987  50.3795006 134.1735017
  63.6289987  47.8875006 121.8175017  64.5859987  47.8875006 121.8175017
  63.3889987  48.8145006 121.8175017  62.9269987  45.7335006 134.1715017
  63.8839987  45.7335006 134.1715017  62.6869987  46.6605006 134.1715017
  64.6979987  46.0865006 120.1275017  65.6549987  46.0865006 120.1275017
  64.4579987  47.0135006 120.1275017  74.0549987  48.4415006 119.4795017
  75.0119987  48.4415006 119.4795017  73.8149987  49.3685006 119.4795017
  63.0839987  43.1855006 135.0765017  64.0409987  43.1855006 135.0765017
  62.8439987  44.1125006 135.0765017  63.6969987  41.4255006 132.7645017
  64.6539987  41.4255006 132.7645017  63.4569987  42.3525006 132.7645017
  65.2609987  46.9215006 132.9785017  66.2179987  46.9215006 132.9785017
  65.0209987  47.8485006 132.9785017  70.8439987  47.3135006 135.5025017
  71.8009987  47.3135006 135.5025017  70.6039987  48.2405006 135.5025017
  64.4579987  38.8915006 133.2045017  65.4149987  38.8915006 133.2045017
  64.2179987  39.8185006 133.2045017  68.4829987  42.3155006 135.7905017
  69.4399987  42.3155006 135.7905017  68.2429987  43.2425006 135.7905017
  64.6629987  38.2205006 135.8385017  65.6199987  38.2205006 135.8385017
  64.4229987  39.1475006 135.8385017  64.5489987  56.8025006 121.1085017
  65.5059987  56.8025006 121.1085017  64.3089987  57.7295006 121.1085017
  58.1109987  51.4055006 120.5775017  59.0679987  51.4055006 120.5775017
  57.8709987  52.3325006 120.5775017  56.8669987  56.7885006 125.5665017
  57.8239987  56.7885006 125.5665017  56.6269987  57.7155006 125.5665017
  57.6949987  54.9055006 127.4215017  58.6519987  54.9055006 127.4215017
  57.4549987  55.8325006 127.4215017  75.2199987  55.7305006 130.3655017
  76.1769987  55.7305006 130.3655017  74.9799987  56.6575006 130.3655017
  74.8329987  55.2985006 133.2895017  75.7899987  55.2985006 133.2895017
  74.5929987  56.2255006 133.2895017  74.5579987  49.3435006 123.4265017
  75.5149987  49.3435006 123.4265017  74.3179987  50.2705006 123.4265017
  74.9309987  47.4165006 125.2955017  75.8879987  47.4165006 125.2955017
  74.6909987  48.3435006 125.2955017  74.6839987  50.1275006 130.2745017
  75.6409987  50.1275006 130.2745017  74.4439987  51.0545006 130.2745017
  73.2279987  53.0075006 132.5645017  74.1849987  53.0075006 132.5645017
  72.9879987  53.9345006 132.5645017  75.2299987  47.2515006 121.6915017
  76.1869987  47.2515006 121.6915017  74.9899987  48.1785006 121.6915017
  73.6079987  44.4855006 120.2235017  74.5649987  44.4855006 120.2235017
  73.3679987  45.4125006 120.2235017  72.7449987  45.8995006 125.8595017
  73.7019987  45.8995006 125.8595017  72.5049987  46.8265006 125.8595017
  57.7519987  47.9785006 129.9055017  58.7089987  47.9785006 129.9055017
  57.5119987  48.9055006 129.9055017  73.5949987  47.7145006 135.0945017
  74.5519987  47.7145006 135.0945017  73.3549987  48.6415006 135.0945017
  75.1369987  45.8075006 136.1455017  76.0939987  45.8075006 136.1455017
  74.8969987  46.7345006 136.1455017  72.8429987  41.9495006 119.3605017
  73.7999987  41.9495006 119.3605017  72.6029987  42.8765006 119.3605017
  72.4089987  43.4815006 124.3075017  73.3659987  43.4815006 124.3075017
  72.1689987  44.4085006 124.3075017  73.0469987  44.0285006 129.7605017
  74.0039987  44.0285006 129.7605017  72.8069987  44.9555006 129.7605017
  73.1149987  44.7635006 132.5535017  74.0719987  44.7635006 132.5535017
  72.8749987  45.6905006 132.5535017  57.3669987  43.2695006 136.0615017
  58.3239987  43.2695006 136.0615017  57.1269987  44.1965006 136.0615017
  73.0789987  40.7645006 124.3705017  74.0359987  40.7645006 124.3705017
  72.8389987  41.6915006 124.3705017  58.6329987  41.5705006 128.8455017
  59.5899987  41.5705006 128.8455017  58.3929987  42.4975006 128.8455017
  56.8549987  44.5645006 129.9745017  57.8119987  44.5645006 129.9745017
  56.6149987  45.4915006 129.9745017  74.9759987  40.9165006 136.0765017
  75.9329987  40.9165006 136.0765017  74.7359987  41.8435006 136.0765017
  74.9059987  40.8045006 120.9235017  75.8629987  40.8045006 120.9235017
  74.6659987  41.7315006 120.9235017  57.3909987  40.9935006 124.1155017
  58.3479987  40.9935006 124.1155017  57.1509987  41.9205006 124.1155017
  71.9559987  55.7925006 125.9905017  72.9129987  55.7925006 125.9905017
  71.7159987  56.7195006 125.9905017  57.1959987  39.5225006 132.3655017
  58.1529987  39.5225006 132.3655017  56.9559987  40.4495006 132.3655017
  59.4029987  52.8025006 136.4475017  60.3599987  52.8025006 136.4475017
  59.1629987  53.7295006 136.4475017  62.3059987  53.6845006 132.7585017
  63.2629987  53.6845006 132.7585017  62.0659987  54.6115006 132.7585017
  66.5889987  55.3435006 135.4935017  67.5459987  55.3435006 135.4935017
  66.3489987  56.2705006 135.4935017  68.9529987  56.3935006 135.0035017
  69.9099987  56.3935006 135.0035017  68.7129987  57.3205006 135.0035017
  73.9279987  39.0145006 134.0755017  74.8849987  39.0145006 134.0755017
  73.6879987  39.9415006 134.0755017  59.7289987  56.9355006 132.7765017
  60.6859987  56.9355006 132.7765017  59.4889987  57.8625006 132.7765017
  62.1899987  56.5195006 131.8185017  63.1469987  56.5195006 131.8185017
  61.9499987  57.4465006 131.8185017  66.9059987  56.4265006 131.0195017
  67.8629987  56.4265006 131.0195017  66.6659987  57.3535006 131.0195017
  69.2069987  55.2695006 132.0095017  70.1639987  55.2695006 132.0095017
  68.9669987  56.1965006 132.0095017  71.7919987  56.8335006 132.2765017
  72.7489987  56.8335006 132.2765017  71.5519987  57.7605006 132.2765017
  59.1659987  55.5855006 129.7155017  60.1229987  55.5855006 129.7155017
  58.9259987  56.5125006 129.7155017  61.2609987  54.2975006 128.3695017
  62.2179987  54.2975006 128.3695017  61.0209987  55.2245006 128.3695017
  63.8529987  54.7795006 129.2435017  64.8099987  54.7795006 129.2435017
  63.6129987  55.7065006 129.2435017  67.3249987  40.4285006 128.3885017
  68.2819987  40.4285006 128.3885017  67.0849987  41.3555006 128.3885017
  72.4579987  38.4865006 128.4725017  73.4149987  38.4865006 128.4725017
  72.2179987  39.4135006 128.4725017  74.1359987  39.7095006 126.7545017
  75.0929987  39.7095006 126.7545017  73.8959987  40.6365006 126.7545017
  59.5779987  38.9565006 126.2055017  60.5349987  38.9565006 126.2055017
  59.3379987  39.8835006 126.2055017  58.4659987  38.8155006 121.9875017
  59.4229987  38.8155006 121.9875017  58.2259987  39.7425006 121.9875017
  64.1409987  39.0465006 126.0405017  65.0979987  39.0465006 126.0405017
  63.9009987  39.9735006 126.0405017  69.8499987  39.0055006 127.6535017
  70.8069987  39.0055006 127.6535017  69.6099987  39.9325006 127.6535017
  71.1479987  39.0375006 123.3345017  72.1049987  39.0375006 123.3345017
  70.9079987  39.9645006 123.3345017  58.3839987  54.7675006 122.9555017
  59.3409987  54.7675006 122.9555017  58.1439987  55.6945006 122.9555017
  60.2829987  40.7465006 120.4665017  61.2399987  40.7465006 120.4665017
  60.0429987  41.6735006 120.4665017  65.3059987  41.0125006 122.8835017
  66.2629987  41.0125006 122.8835017  65.0659987  41.9395006 122.8835017
  67.2439987  56.0505006 121.3175017  68.2009987  56.0505006 121.3175017
  67.0039987  56.9775006 121.3175017  73.9609987  55.5765006 124.0205017
  74.9179987  55.5765006 124.0205017  73.7209987  56.5035006 124.0205017
  59.5909987  39.5225006 135.6465017  60.5479987  39.5225006 135.6465017
  59.3509987  40.4495006 135.6465017  60.1789987  55.7385006 119.9185017
  61.1359987  55.7385006 119.9185017  59.9389987  56.6655006 119.9185017
  73.3769987  54.4215006 135.9025017  74.3339987  54.4215006 135.9025017
  73.1369987  55.3485006 135.9025017  87.6279987  48.2015006 126.1065017
  88.5849987  48.2015006 126.1065017  87.3879987  49.1285006 126.1065017
  86.4959987  47.4585006 129.5975017  87.4529987  47.4585006 129.5975017
  86.2559987  48.3855006 129.5975017  78.8449987  47.1145006 131.1575017
  79.8019987  47.1145006 131.1575017  78.6049987  48.0415006 131.1575017
  90.2099987  50.3795006 127.8825017  91.1669987  50.3795006 127.8825017
  89.9699987  51.3065006 127.8825017  79.7789987  51.5655006 129.6665017
  80.7359987  51.5655006 129.6665017  79.5389987  52.4925006 129.6665017
  76.4229987  45.1435006 125.1275017  77.3799987  45.1435006 125.1275017
  76.1829987  46.0705006 125.1275017  77.1189987  47.3575006 127.2605017
  78.0759987  47.3575006 127.2605017  76.8789987  48.2845006 127.2605017
  87.4049987  55.6695006 128.3835017  88.3619987  55.6695006 128.3835017
  87.1649987  56.5965006 128.3835017  84.8709987  49.8665006 130.0355017
  85.8279987  49.8665006 130.0355017  84.6309987  50.7935006 130.0355017
  93.4909987  41.5025006 130.8075017  94.4479987  41.5025006 130.8075017
  93.2509987  42.4295006 130.8075017  88.0349987  44.3215006 130.3615017
  88.9919987  44.3215006 130.3615017  87.7949987  45.2485006 130.3615017
  81.1609987  42.4065006 127.5935017  82.1179987  42.4065006 127.5935017
  80.9209987  43.3335006 127.5935017  88.8949987  42.4955006 125.9635017
  89.8519987  42.4955006 125.9635017  88.6549987  43.4225006 125.9635017
  77.7819987  44.8135006 128.3345017  78.7389987  44.8135006 128.3345017
  77.5419987  45.7405006 128.3345017  82.9449987  46.3715006 127.6195017
  83.9019987  46.3715006 127.6195017  82.7049987  47.2985006 127.6195017
  93.9329987  42.9455006 133.0595017  94.8899987  42.9455006 133.0595017
  93.6929987  43.8725006 133.0595017  80.0429987  41.2995006 131.6495017
  80.9999987  41.2995006 131.6495017  79.8029987  42.2265006 131.6495017
  87.3609987  50.7915006 125.1805017  88.3179987  50.7915006 125.1805017
  87.1209987  51.7185006 125.1805017  82.5759987  48.9515006 131.8955017
  83.5329987  48.9515006 131.8955017  82.3359987  49.8785006 131.8955017
  90.6859987  41.8325006 127.9555017  91.6429987  41.8325006 127.9555017
  90.4459987  42.7595006 127.9555017  79.6019987  43.1775006 129.6355017
  80.5589987  43.1775006 129.6355017  79.3619987  44.1045006 129.6355017
  81.0019987  50.9475006 132.6815017  81.9589987  50.9475006 132.6815017
  80.7619987  51.8745006 132.6815017  77.1019987  50.5795006 123.4965017
  78.0589987  50.5795006 123.4965017  76.8619987  51.5065006 123.4965017
  90.7219987  52.2365006 130.2555017  91.6789987  52.2365006 130.2555017
  90.4819987  53.1635006 130.2555017  91.0249987  40.5185006 131.6195017
  91.9819987  40.5185006 131.6195017  90.7849987  41.4455006 131.6195017
  84.0149987  38.6355006 129.0975017  84.9719987  38.6355006 129.0975017
  83.7749987  39.5625006 129.0975017  89.6919987  53.8095006 127.2245017
  90.6489987  53.8095006 127.2245017  89.4519987  54.7365006 127.2245017
  90.2049987  51.9165006 125.3205017  91.1619987  51.9165006 125.3205017
  89.9649987  52.8435006 125.3205017  91.8389987  50.5235006 133.8435017
  92.7959987  50.5235006 133.8435017  91.5989987  51.4505006 133.8435017
  86.2969987  47.4385006 123.6175017  87.2539987  47.4385006 123.6175017
  86.0569987  48.3655006 123.6175017  86.3599987  45.9715006 120.6265017
  87.3169987  45.9715006 120.6265017  86.1199987  46.8985006 120.6265017
  93.6789987  46.8335006 131.8825017  94.6359987  46.8335006 131.8825017
  93.4389987  47.7605006 131.8825017  89.7359987  47.6505006 124.5305017
  90.6929987  47.6505006 124.5305017  89.4959987  48.5775006 124.5305017
  89.6509987  45.7575006 133.5315017  90.6079987  45.7575006 133.5315017
  89.4109987  46.6845006 133.5315017  81.3529987  48.3085006 126.4445017
  82.3099987  48.3085006 126.4445017  81.1129987  49.2355006 126.4445017
  82.6819987  51.7025006 129.1285017  83.6389987  51.7025006 129.1285017
  82.4419987  52.6295006 129.1285017  81.6919987  47.0505006 130.0975017
  82.6489987  47.0505006 130.0975017  81.4519987  47.9775006 130.0975017
  88.0799987  52.6085006 130.8295017  89.0369987  52.6085006 130.8295017
  87.8399987  53.5355006 130.8295017  82.5869987  51.4185006 134.7925017
  83.5439987  51.4185006 134.7925017  82.3469987  52.3455006 134.7925017
  88.6009987  46.8345006 122.2075017  89.5579987  46.8345006 122.2075017
  88.3609987  47.7615006 122.2075017  79.5549987  47.6515006 133.9985017
  80.5119987  47.6515006 133.9985017  79.3149987  48.5785006 133.9985017
  85.6179987  53.2455006 125.8195017  86.5749987  53.2455006 125.8195017
  85.3779987  54.1725006 125.8195017  80.8489987  53.4785006 135.5845017
  81.8059987  53.4785006 135.5845017  80.6089987  54.4055006 135.5845017
  92.3269987  38.5695006 122.0775017  93.2839987  38.5695006 122.0775017
  92.0869987  39.4965006 122.0775017  80.3289987  47.3345006 124.0595017
  81.2859987  47.3345006 124.0595017  80.0889987  48.2615006 124.0595017
  93.4499987  52.9275006 120.4395017  94.4069987  52.9275006 120.4395017
  93.2099987  53.8545006 120.4395017  76.4269987  49.7565006 132.8995017
  77.3839987  49.7565006 132.8995017  76.1869987  50.6835006 132.8995017
  76.1769987  52.4895006 129.7325017  77.1339987  52.4895006 129.7325017
  75.9369987  53.4165006 129.7325017  94.4639987  53.1645006 135.3605017
  95.4209987  53.1645006 135.3605017  94.2239987  54.0915006 135.3605017
  85.3929987  52.7675006 134.2575017  86.3499987  52.7675006 134.2575017
  85.1529987  53.6945006 134.2575017  85.7499987  56.5135006 124.0595017
  86.7069987  56.5135006 124.0595017  85.5099987  57.4405006 124.0595017
  79.4449987  55.3505006 125.8935017  80.4019987  55.3505006 125.8935017
  79.2049987  56.2775006 125.8935017  88.8609987  55.6935006 120.9985017
  89.8179987  55.6935006 120.9985017  88.6209987  56.6205006 120.9985017
  88.6809987  55.7075006 123.4645017  89.6379987  55.7075006 123.4645017
  88.4409987  56.6345006 123.4645017  91.5609987  44.7025006 135.6815017
  92.5179987  44.7025006 135.6815017  91.3209987  45.6295006 135.6815017
  78.6879987  51.0535006 133.8985017  79.6449987  51.0535006 133.8985017
  78.4479987  51.9805006 133.8985017  81.3629987  39.5345006 129.8565017
  82.3199987  39.5345006 129.8565017  81.1229987  40.4615006 129.8565017
  85.9979987  39.2545006 133.2485017  86.9549987  39.2545006 133.2485017
  85.7579987  40.1815006 133.2485017  89.2889987  43.0315006 134.0945017
  90.2459987  43.0315006 134.0945017  89.0489987  43.9585006 134.0945017
  90.0549987  47.8715006 119.9565017  91.0119987  47.8715006 119.9565017
  89.8149987  48.7985006 119.9565017  85.6589987  41.7815006 120.5205017
  86.6159987  41.7815006 120.5205017  85.4189987  42.7085006 120.5205017
  81.4489987  44.4945006 131.0435017  82.4059987  44.4945006 131.0435017
  81.2089987  45.4215006 131.0435017  81.4259987  44.6615006 125.9465017
  82.3829987  44.6615006 125.9465017  81.1859987  45.5885006 125.9465017
  86.9489987  45.1305006 124.7395017  87.9059987  45.1305006 124.7395017
  86.7089987  46.0575006 124.7395017  86.0079987  45.1155006 135.9695017
  86.9649987  45.1155006 135.9695017  85.7679987  46.0425006 135.9695017
  87.9769987  44.6105006 127.5685017  88.9339987  44.6105006 127.5685017
  87.7369987  45.5375006 127.5685017  79.1349987  44.7805006 132.8285017
  80.0919987  44.7805006 132.8285017  78.8949987  45.7075006 132.8285017
  82.4909987  42.1705006 119.6365017  83.4479987  42.1705006 119.6365017
  82.2509987  43.0975006 119.6365017  75.7519987  41.8975006 126.7445017
  76.7089987  41.8975006 126.7445017  75.5119987  42.8245006 126.7445017
  77.0269987  42.6105006 122.1195017  77.9839987  42.6105006 122.1195017
  76.7869987  43.5375006 122.1195017  87.1959987  46.2245006 132.1865017
  88.1529987  46.2245006 132.1865017  86.9559987  47.1515006 132.1865017
  83.9819987  42.1705006 126.9795017  84.9389987  42.1705006 126.9795017
  83.7419987  43.0975006 126.9795017  78.8059987  43.7465006 125.8315017
  79.7629987  43.7465006 125.8315017  78.5659987  44.6735006 125.8315017
  82.4519987  43.7715006 123.4565017  83.4089987  43.7715006 123.4565017
  82.2119987  44.6985006 123.4565017  88.3949987  41.4125006 130.2175017
  89.3519987  41.4125006 130.2175017  88.1549987  42.3395006 130.2175017
  81.1429987  44.9615006 121.0515017  82.0999987  44.9615006 121.0515017
  80.9029987  45.8885006 121.0515017  91.6459987  57.0445006 136.5045017
  92.6029987  57.0445006 136.5045017  91.4059987  57.9715006 136.5045017
  79.1219987  49.5315006 136.0785017  80.0789987  49.5315006 136.0785017
  78.8819987  50.4585006 136.0785017  85.2789987  44.9375006 128.8645017
  86.2359987  44.9375006 128.8645017  85.0389987  45.8645006 128.8645017
  80.2889987  41.0845006 125.2985017  81.2459987  41.0845006 125.2985017
  80.0489987  42.0115006 125.2985017  83.9149987  43.2705006 131.2775017
  84.8719987  43.2705006 131.2775017  83.6749987  44.1975006 131.2775017
  84.5079987  49.5125006 122.9735017  85.4649987  49.5125006 122.9735017
  84.2679987  50.4395006 122.9735017  91.6579987  48.6905006 131.7765017
  92.6149987  48.6905006 131.7765017  91.4179987  49.6175006 131.7765017
  88.3429987  42.3155006 121.1505017  89.2999987  42.3155006 121.1505017
  88.1029987  43.2425006 121.1505017  85.9539987  49.7445006 134.1495017
  86.9109987  49.7445006 134.1495017  85.7139987  50.6715006 134.1495017
  89.0719987  44.2175006 122.7935017  90.0289987  44.2175006 122.7935017
  88.8319987  45.1445006 122.7935017  79.6069987  48.8695006 128.7695017
  80.5639987  48.8695006 128.7695017  79.3669987  49.7965006 128.7695017
  86.6069987  50.9605006 121.9865017  87.5639987  50.9605006 121.9865017
  86.3669987  51.8875006 121.9865017  76.5959987  47.3005006 134.0425017
  77.5529987  47.3005006 134.0425017  76.3559987  48.2275006 134.0425017
  83.7659987  47.2055006 135.7725017  84.7229987  47.2055006 135.7725017
  83.5259987  48.1325006 135.7725017  88.2909987  52.2005006 134.1685017
  89.2479987  52.2005006 134.1685017  88.0509987  53.1275006 134.1685017
  93.9789987  44.3685006 122.5475017  94.9359987  44.3685006 122.5475017
  93.7389987  45.2955006 122.5475017  93.9449987  50.2205006 135.3545017
  94.9019987  50.2205006 135.3545017  93.7049987  51.1475006 135.3545017
  92.2689987  53.1955006 122.9625017  93.2259987  53.1955006 122.9625017
  92.0289987  54.1225006 122.9625017  89.4509987  48.0305006 130.0135017
  90.4079987  48.0305006 130.0135017  89.2109987  48.9575006 130.0135017
  81.9809987  52.3385006 126.1555017  82.9379987  52.3385006 126.1555017
  81.7409987  53.2655006 126.1555017  77.7429987  47.1845006 120.7225017
  78.6999987  47.1845006 120.7225017  77.5029987  48.1115006 120.7225017
  83.4039987  50.0005006 125.6805017  84.3609987  50.0005006 125.6805017
  83.1639987  50.9275006 125.6805017  83.8619987  54.1785006 132.0445017
  84.8189987  54.1785006 132.0445017  83.6219987  55.1055006 132.0445017
  82.0709987  55.0075006 125.2215017  83.0279987  55.0075006 125.2215017
  81.8309987  55.9345006 125.2215017  87.4169987  50.2195006 131.7085017
  88.3739987  50.2195006 131.7085017  87.1769987  51.1465006 131.7085017
  89.6979987  51.2415006 120.7845017  90.6549987  51.2415006 120.7845017
  89.4579987  52.1685006 120.7845017  90.1219987  54.7885006 134.2215017
  91.0789987  54.7885006 134.2215017  89.8819987  55.7155006 134.2215017
  94.1689987  55.6235006 121.0355017  95.1259987  55.6235006 121.0355017
  93.9289987  56.5505006 121.0355017  78.2529987  42.0545006 133.6425017
  79.2099987  42.0545006 133.6425017  78.0129987  42.9815006 133.6425017
  90.4939987  49.8885006 123.0255017  91.4509987  49.8885006 123.0255017
  90.2539987  50.8155006 123.0255017  77.8859987  53.8245006 131.9995017
  78.8429987  53.8245006 131.9995017  77.6459987  54.7515006 131.9995017
  83.8139987  52.3295006 119.2725017  84.7709987  52.3295006 119.2725017
  83.5739987  53.2565006 119.2725017  82.6339987  51.8585006 121.7255017
  83.5909987  51.8585006 121.7255017  82.3939987  52.7855006 121.7255017
  79.1479987  49.1065006 122.2185017  80.1049987  49.1065006 122.2185017
  78.9079987  50.0335006 122.2185017  86.9909987  41.7915006 132.5225017
  87.9479987  41.7915006 132.5225017  86.7509987  42.7185006 132.5225017
  87.7389987  41.3785006 123.6185017  88.6959987  41.3785006 123.6185017
  87.4989987  42.3055006 123.6185017  85.4199987  53.5185006 122.4305017
  86.3769987  53.5185006 122.4305017  85.1799987  54.4455006 122.4305017
  84.9559987  43.1335006 124.4435017  85.9129987  43.1335006 124.4435017
  84.7159987  44.0605006 124.4435017  85.5179987  44.1315006 133.5685017
  86.4749987  44.1315006 133.5685017  85.2779987  45.0585006 133.5685017
  85.8149987  40.1915006 125.3495017  86.7719987  40.1915006 125.3495017
  85.5749987  41.1185006 125.3495017  82.7769987  54.5675006 122.4465017
  83.7339987  54.5675006 122.4465017  82.5369987  55.4945006 122.4465017
  81.4699987  41.2825006 122.0475017  82.4269987  41.2825006 122.0475017
  81.2299987  42.2095006 122.0475017  91.7019987  41.9905006 134.4045017
  92.6589987  41.9905006 134.4045017  91.4619987  42.9175006 134.4045017
  90.2999987  45.8055006 128.5085017  91.2569987  45.8055006 128.5085017
  90.0599987  46.7325006 128.5085017  79.7089987  51.7235006 121.1015017
  80.6659987  51.7235006 121.1015017  79.4689987  52.6505006 121.1015017
  78.0529987  44.3915006 120.2335017  79.0099987  44.3915006 120.2335017
  77.8129987  45.3185006 120.2335017  91.3749987  55.0555006 130.1875017
  92.3319987  55.0555006 130.1875017  91.1349987  55.9825006 130.1875017
  78.8649987  39.1845006 128.9535017  79.8219987  39.1845006 128.9535017
  78.6249987  40.1115006 128.9535017  77.8179987  53.1025006 125.1035017
  78.7749987  53.1025006 125.1035017  77.5779987  54.0295006 125.1035017
  76.9249987  55.7755006 136.3265017  77.8819987  55.7755006 136.3265017
  76.6849987  56.7025006 136.3265017  85.8209987  54.1835006 119.4095017
  86.7779987  54.1835006 119.4095017  85.5809987  55.1105006 119.4095017
  90.3919987  53.9405006 119.6055017  91.3489987  53.9405006 119.6055017
  90.1519987  54.8675006 119.6055017  81.2859987  49.8755006 119.4365017
  82.2429987  49.8755006 119.4365017  81.0459987  50.8025006 119.4365017
  86.7069987  50.9695006 119.1995017  87.6639987  50.9695006 119.1995017
  86.4669987  51.8965006 119.1995017  89.3489987  49.4535006 134.1745017
  90.3059987  49.4535006 134.1745017  89.1089987  50.3805006 134.1745017
  82.4859987  47.8845006 121.8255017  83.4429987  47.8845006 121.8255017
  82.2459987  48.8115006 121.8255017  81.7889987  45.7235006 134.1565017
  82.7459987  45.7235006 134.1565017  81.5489987  46.6505006 134.1565017
  83.5579987  46.1065006 120.0475017  84.5149987  46.1065006 120.0475017
  83.3179987  47.0335006 120.0475017  92.9139987  48.4355006 119.4765017
  93.8709987  48.4355006 119.4765017  92.6739987  49.3625006 119.4765017
  81.9579987  43.1695006 135.0735017  82.9149987  43.1695006 135.0735017
  81.7179987  44.0965006 135.0735017  82.5489987  41.4495006 132.7665017
  83.5059987  41.4495006 132.7665017  82.3089987  42.3765006 132.7665017
  84.1179987  46.9235006 132.9785017  85.0749987  46.9235006 132.9785017
  83.8779987  47.8505006 132.9785017  89.7019987  47.3135006 135.4985017
  90.6589987  47.3135006 135.4985017  89.4619987  48.2405006 135.4985017
  83.3459987  38.9145006 133.1775017  84.3029987  38.9145006 133.1775017
  83.1059987  39.8415006 133.1775017  87.3369987  42.3165006 135.7865017
  88.2939987  42.3165006 135.7865017  87.0969987  43.2435006 135.7865017
  83.5729987  38.2595006 135.8535017  84.5299987  38.2595006 135.8535017
  83.3329987  39.1865006 135.8535017  83.4029987  56.8045006 121.1085017
  84.3599987  56.8045006 121.1085017  83.1629987  57.7315006 121.1085017
  76.9669987  51.4045006 120.5775017  77.9239987  51.4045006 120.5775017
  76.7269987  52.3315006 120.5775017  75.7389987  56.7805006 125.5635017
  76.6959987  56.7805006 125.5635017  75.4989987  57.7075006 125.5635017
  76.5339987  54.9255006 127.4285017  77.4909987  54.9255006 127.4285017
  76.2939987  55.8525006 127.4285017  94.0989987  55.7085006 130.3775017
  95.0559987  55.7085006 130.3775017  93.8589987  56.6355006 130.3775017
  93.6879987  55.3005006 133.2945017  94.6449987  55.3005006 133.2945017
  93.4479987  56.2275006 133.2945017  93.4149987  49.3435006 123.4265017
  94.3719987  49.3435006 123.4265017  93.1749987  50.2705006 123.4265017
  93.7869987  47.4135006 125.2935017  94.7439987  47.4135006 125.2935017
  93.5469987  48.3405006 125.2935017  93.5389987  50.1285006 130.2715017
  94.4959987  50.1285006 130.2715017  93.2989987  51.0555006 130.2715017
  92.0879987  53.0075006 132.5755017  93.0449987  53.0075006 132.5755017
  91.8479987  53.9345006 132.5755017  94.0869987  47.2505006 121.6925017
  95.0439987  47.2505006 121.6925017  93.8469987  48.1775006 121.6925017
  92.4519987  44.4885006 120.2145017  93.4089987  44.4885006 120.2145017
  92.2119987  45.4155006 120.2145017  91.6009987  45.8995006 125.8595017
  92.5579987  45.8995006 125.8595017  91.3609987  46.8265006 125.8595017
  76.6049987  47.9785006 129.9105017  77.5619987  47.9785006 129.9105017
  76.3649987  48.9055006 129.9105017  92.4489987  47.7095006 135.0845017
  93.4059987  47.7095006 135.0845017  92.2089987  48.6365006 135.0845017
  93.9929987  45.7985006 136.1065017  94.9499987  45.7985006 136.1065017
  93.7529987  46.7255006 136.1065017  91.6929987  41.9455006 119.3455017
  92.6499987  41.9455006 119.3455017  91.4529987  42.8725006 119.3455017
  91.2609987  43.4815006 124.2955017  92.2179987  43.4815006 124.2955017
  91.0209987  44.4085006 124.2955017  91.9029987  44.0285006 129.7605017
  92.8599987  44.0285006 129.7605017  91.6629987  44.9555006 129.7605017
  91.9709987  44.7635006 132.5535017  92.9279987  44.7635006 132.5535017
  91.7309987  45.6905006 132.5535017  76.2149987  43.2595006 136.0425017
  77.1719987  43.2595006 136.0425017  75.9749987  44.1865006 136.0425017
  91.9349987  40.7655006 124.3705017  92.8919987  40.7655006 124.3705017
  91.6949987  41.6925006 124.3705017  77.4239987  41.5705006 128.9195017
  78.3809987  41.5705006 128.9195017  77.1839987  42.4975006 128.9195017
  75.7129987  44.5645006 129.9715017  76.6699987  44.5645006 129.9715017
  75.4729987  45.4915006 129.9715017  93.8319987  40.9165006 136.0765017
  94.7889987  40.9165006 136.0765017  93.5919987  41.8435006 136.0765017
  93.7629987  40.8045006 120.9235017  94.7199987  40.8045006 120.9235017
  93.5229987  41.7315006 120.9235017  76.0759987  40.8395006 124.0435017
  77.0329987  40.8395006 124.0435017  75.8359987  41.7665006 124.0435017
  90.8499987  55.9345006 125.9255017  91.8069987  55.9345006 125.9255017
  90.6099987  56.8615006 125.9255017  76.0429987  39.5255006 132.3565017
  76.9999987  39.5255006 132.3565017  75.8029987  40.4525006 132.3565017
  78.2459987  52.7655006 136.4525017  79.2029987  52.7655006 136.4525017
  78.0059987  53.6925006 136.4525017  81.1609987  53.6835006 132.7605017
  82.1179987  53.6835006 132.7605017  80.9209987  54.6105006 132.7605017
  85.4379987  55.3455006 135.4925017  86.3949987  55.3455006 135.4925017
  85.1979987  56.2725006 135.4925017  87.8069987  56.3825006 135.0205017
  88.7639987  56.3825006 135.0205017  87.5669987  57.3095006 135.0205017
  92.7849987  39.0155006 134.0745017  93.7419987  39.0155006 134.0745017
  92.5449987  39.9425006 134.0745017  78.5889987  56.9435006 132.7795017
  79.5459987  56.9435006 132.7795017  78.3489987  57.8705006 132.7795017
  81.0459987  56.5185006 131.8205017  82.0029987  56.5185006 131.8205017
  80.8059987  57.4455006 131.8205017  85.7569987  56.4225006 131.0345017
  86.7139987  56.4225006 131.0345017  85.5169987  57.3495006 131.0345017
  88.0609987  55.2735006 132.0215017  89.0179987  55.2735006 132.0215017
  87.8209987  56.2005006 132.0215017  90.6479987  56.8405006 132.2915017
  91.6049987  56.8405006 132.2915017  90.4079987  57.7675006 132.2915017
  78.0109987  55.5975006 129.7125017  78.9679987  55.5975006 129.7125017
  77.7709987  56.5245006 129.7125017  80.1189987  54.2985006 128.3705017
  81.0759987  54.2985006 128.3705017  79.8789987  55.2255006 128.3705017
  82.7079987  54.7765006 129.2435017  83.6649987  54.7765006 129.2435017
  82.4679987  55.7035006 129.2435017  86.1789987  40.4285006 128.3875017
  87.1359987  40.4285006 128.3875017  85.9389987  41.3555006 128.3875017
  91.3129987  38.4915006 128.4685017  92.2699987  38.4915006 128.4685017
  91.0729987  39.4185006 128.4685017  92.9909987  39.7105006 126.7555017
  93.9479987  39.7105006 126.7555017  92.7509987  40.6375006 126.7555017
  78.5379987  39.0615006 126.2235017  79.4949987  39.0615006 126.2235017
  78.2979987  39.9885006 126.2235017  77.3259987  38.8175006 121.9695017
  78.2829987  38.8175006 121.9695017  77.0859987  39.7445006 121.9695017
  83.0389987  38.9805006 126.0135017  83.9959987  38.9805006 126.0135017
  82.7989987  39.9075006 126.0135017  88.7059987  39.0055006 127.6535017
  89.6629987  39.0055006 127.6535017  88.4659987  39.9325006 127.6535017
  90.0039987  39.0365006 123.3345017  90.9609987  39.0365006 123.3345017
  89.7639987  39.9635006 123.3345017  77.2399987  54.7675006 122.9555017
  78.1969987  54.7675006 122.9555017  76.9999987  55.6945006 122.9555017
  79.1589987  40.7595006 120.4555017  80.1159987  40.7595006 120.4555017
  78.9189987  41.6865006 120.4555017  84.1869987  41.0135006 122.8705017
  85.1439987  41.0135006 122.8705017  83.9469987  41.9405006 122.8705017
  86.0879987  56.0645006 121.2985017  87.0449987  56.0645006 121.2985017
  85.8479987  56.9915006 121.2985017  92.8329987  55.5815006 124.0155017
  93.7899987  55.5815006 124.0155017  92.5929987  56.5085006 124.0155017
  78.4189987  39.5675006 135.6875017  79.3759987  39.5675006 135.6875017
  78.1789987  40.4945006 135.6875017  79.0349987  55.7385006 119.9185017
  79.9919987  55.7385006 119.9185017  78.7949987  56.6655006 119.9185017
  92.2269987  54.4135006 135.9195017  93.1839987  54.4135006 135.9195017
  91.9869987  55.3405006 135.9195017 106.4689987  48.1645006 126.0785017
 107.4259987  48.1645006 126.0785017 106.2289987  49.0915006 126.0785017
 105.2799987  47.4735006 129.6045017 106.2369987  47.4735006 129.6045017
 105.0399987  48.4005006 129.6045017  97.7009987  47.1145006 131.1575017
  98.6579987  47.1145006 131.1575017  97.4609987  48.0415006 131.1575017
  98.6359987  51.5665006 129.6655017  99.5929987  51.5665006 129.6655017
  98.3959987  52.4935006 129.6655017  95.2789987  45.1425006 125.1275017
  96.2359987  45.1425006 125.1275017  95.0389987  46.0695006 125.1275017
  95.9749987  47.3575006 127.2605017  96.9319987  47.3575006 127.2605017
  95.7349987  48.2845006 127.2605017 106.1809987  55.5145006 128.0895017
 107.1379987  55.5145006 128.0895017 105.9409987  56.4415006 128.0895017
 103.6989987  49.8535006 130.0265017 104.6559987  49.8535006 130.0265017
 103.4589987  50.7805006 130.0265017 106.2189987  44.0725006 130.3035017
 107.1759987  44.0725006 130.3035017 105.9789987  44.9995006 130.3035017
 100.0169987  42.4065006 127.5935017 100.9739987  42.4065006 127.5935017
  99.7769987  43.3335006 127.5935017 107.7189987  42.9885006 125.5635017
 108.6759987  42.9885006 125.5635017 107.4789987  43.9155006 125.5635017
  96.6379987  44.8135006 128.3345017  97.5949987  44.8135006 128.3345017
  96.3979987  45.7405006 128.3345017 101.7909987  46.3755006 127.6165017
 102.7479987  46.3755006 127.6165017 101.5509987  47.3025006 127.6165017
  98.8989987  41.2995006 131.6495017  99.8559987  41.2995006 131.6495017
  98.6589987  42.2265006 131.6495017 106.2329987  50.7995006 125.1805017
 107.1899987  50.7995006 125.1805017 105.9929987  51.7265006 125.1805017
 101.4339987  48.9515006 131.8935017 102.3909987  48.9515006 131.8935017
 101.1939987  49.8785006 131.8935017  98.4569987  43.1765006 129.6355017
  99.4139987  43.1765006 129.6355017  98.2169987  44.1035006 129.6355017
  99.8579987  50.9465006 132.6805017 100.8149987  50.9465006 132.6805017
  99.6179987  51.8735006 132.6805017  95.9579987  50.5795006 123.4965017
  96.9149987  50.5795006 123.4965017  95.7179987  51.5065006 123.4965017
 102.8789987  38.6365006 129.1055017 103.8359987  38.6365006 129.1055017
 102.6389987  39.5635006 129.1055017 107.5009987  53.8435006 126.4415017
 108.4579987  53.8435006 126.4415017 107.2609987  54.7705006 126.4415017
 105.1289987  47.4305006 123.5985017 106.0859987  47.4305006 123.5985017
 104.8889987  48.3575006 123.5985017 105.1939987  45.9625006 120.6195017
 106.1509987  45.9625006 120.6195017 104.9539987  46.8895006 120.6195017
 100.2089987  48.3085006 126.4445017 101.1659987  48.3085006 126.4445017
  99.9689987  49.2355006 126.4445017 101.5399987  51.7055006 129.1265017
 102.4969987  51.7055006 129.1265017 101.2999987  52.6325006 129.1265017
 100.5489987  47.0515006 130.0995017 101.5059987  47.0515006 130.0995017
 100.3089987  47.9785006 130.0995017 106.5289987  52.6405006 130.8635017
 107.4859987  52.6405006 130.8635017 106.2889987  53.5675006 130.8635017
 101.4379987  51.4155006 134.7915017 102.3949987  51.4155006 134.7915017
 101.1979987  52.3425006 134.7915017 107.4589987  46.8185006 122.2235017
 108.4159987  46.8185006 122.2235017 107.2189987  47.7455006 122.2235017
  98.4109987  47.6535006 134.0015017  99.3679987  47.6535006 134.0015017
  98.1709987  48.5805006 134.0015017 105.0829987  53.5575006 125.6605017
 106.0399987  53.5575006 125.6605017 104.8429987  54.4845006 125.6605017
  99.7029987  53.4805006 135.5785017 100.6599987  53.4805006 135.5785017
  99.4629987  54.4075006 135.5785017  99.1849987  47.3345006 124.0595017
 100.1419987  47.3345006 124.0595017  98.9449987  48.2615006 124.0595017
  95.2839987  49.7565006 132.8985017  96.2409987  49.7565006 132.8985017
  95.0439987  50.6835006 132.8985017  95.0319987  52.4925006 129.7275017
  95.9889987  52.4925006 129.7275017  94.7919987  53.4195006 129.7275017
 104.2359987  52.7815006 134.2595017 105.1929987  52.7815006 134.2595017
 103.9959987  53.7085006 134.2595017 104.6649987  56.4875006 124.0885017
 105.6219987  56.4875006 124.0885017 104.4249987  57.4145006 124.0885017
  98.3039987  55.3505006 125.8945017  99.2609987  55.3505006 125.8945017
  98.0639987  56.2775006 125.8945017 107.7399987  55.6715006 121.0495017
 108.6969987  55.6715006 121.0495017 107.4999987  56.5985006 121.0495017
 107.2489987  55.4485006 123.6885017 108.2059987  55.4485006 123.6885017
 107.0089987  56.3755006 123.6885017  97.5439987  51.0525006 133.9045017
  98.5009987  51.0525006 133.9045017  97.3039987  51.9795006 133.9045017
 100.2189987  39.5345006 129.8565017 101.1759987  39.5345006 129.8565017
  99.9789987  40.4615006 129.8565017 104.8879987  39.2275006 133.2535017
 105.8449987  39.2275006 133.2535017 104.6479987  40.1545006 133.2535017
 104.5259987  41.7775006 120.5415017 105.4829987  41.7775006 120.5415017
 104.2859987  42.7045006 120.5415017 100.2949987  44.4925006 131.0435017
 101.2519987  44.4925006 131.0435017 100.0549987  45.4195006 131.0435017
 100.2819987  44.6605006 125.9465017 101.2389987  44.6605006 125.9465017
 100.0419987  45.5875006 125.9465017 105.7869987  45.1365006 124.7375017
 106.7439987  45.1365006 124.7375017 105.5469987  46.0635006 124.7375017
 104.8499987  45.1405006 135.9925017 105.8069987  45.1405006 135.9925017
 104.6099987  46.0675006 135.9925017 106.7859987  44.5935006 127.5615017
 107.7429987  44.5935006 127.5615017 106.5459987  45.5205006 127.5615017
  97.9909987  44.7805006 132.8285017  98.9479987  44.7805006 132.8285017
  97.7509987  45.7075006 132.8285017 101.3479987  42.1705006 119.6365017
 102.3049987  42.1705006 119.6365017 101.1079987  43.0975006 119.6365017
  94.6079987  41.8975006 126.7445017  95.5649987  41.8975006 126.7445017
  94.3679987  42.8245006 126.7445017  95.8829987  42.6105006 122.1185017
  96.8399987  42.6105006 122.1185017  95.6429987  43.5375006 122.1185017
 106.0289987  46.2075006 132.1885017 106.9859987  46.2075006 132.1885017
 105.7889987  47.1345006 132.1885017 102.8439987  42.1625006 126.9755017
 103.8009987  42.1625006 126.9755017 102.6039987  43.0895006 126.9755017
  97.6619987  43.7465006 125.8315017  98.6189987  43.7465006 125.8315017
  97.4219987  44.6735006 125.8315017 101.3079987  43.7725006 123.4585017
 102.2649987  43.7725006 123.4585017 101.0679987  44.6995006 123.4585017
 107.2429987  41.3645006 130.2695017 108.1999987  41.3645006 130.2695017
 107.0029987  42.2915006 130.2695017 100.0029987  44.9615006 121.0515017
 100.9599987  44.9615006 121.0515017  99.7629987  45.8885006 121.0515017
  97.9839987  49.5415006 136.0765017  98.9409987  49.5415006 136.0765017
  97.7439987  50.4685006 136.0765017 104.0939987  44.9315006 128.8195017
 105.0509987  44.9315006 128.8195017 103.8539987  45.8585006 128.8195017
  99.1459987  41.0845006 125.2985017 100.1029987  41.0845006 125.2985017
  98.9059987  42.0115006 125.2985017 102.7549987  43.2645006 131.2795017
 103.7119987  43.2645006 131.2795017 102.5149987  44.1915006 131.2795017
 103.3659987  49.5055006 122.9655017 104.3229987  49.5055006 122.9655017
 103.1259987  50.4325006 122.9655017 107.1549987  42.3375006 121.1575017
 108.1119987  42.3375006 121.1575017 106.9149987  43.2645006 121.1575017
 104.7909987  49.7145006 134.1325017 105.7479987  49.7145006 134.1325017
 104.5509987  50.6415006 134.1325017   0.1189987  44.3225006 122.8565017
   1.0759987  44.3225006 122.8565017  -0.1210013  45.2495006 122.8565017
  98.4619987  48.8705006 128.7685017  99.4189987  48.8705006 128.7685017
  98.2219987  49.7975006 128.7685017 105.4569987  50.9565006 121.9875017
 106.4139987  50.9565006 121.9875017 105.2169987  51.8835006 121.9875017
  95.4579987  47.2945006 134.0335017  96.4149987  47.2945006 134.0335017
  95.2179987  48.2215006 134.0335017 102.6219987  47.2015006 135.7745017
 103.5789987  47.2015006 135.7745017 102.3819987  48.1285006 135.7745017
 107.0229987  52.6635006 134.0635017 107.9799987  52.6635006 134.0635017
 106.7829987  53.5905006 134.0635017 100.8369987  52.3365006 126.1545017
 101.7939987  52.3365006 126.1545017 100.5969987  53.2635006 126.1545017
  96.5989987  47.1835006 120.7245017  97.5559987  47.1835006 120.7245017
  96.3589987  48.1105006 120.7245017 102.2539987  50.0055006 125.6805017
 103.2109987  50.0055006 125.6805017 102.0139987  50.9325006 125.6805017
 102.7039987  54.1835006 132.0535017 103.6609987  54.1835006 132.0535017
 102.4639987  55.1105006 132.0535017 100.9359987  55.0055006 125.2205017
 101.8929987  55.0055006 125.2205017 100.6959987  55.9325006 125.2205017
 106.2459987  50.1795006 131.6935017 107.2029987  50.1795006 131.6935017
 106.0059987  51.1065006 131.6935017  97.1089987  42.0545006 133.6425017
  98.0659987  42.0545006 133.6425017  96.8689987  42.9815006 133.6425017
  96.7359987  53.8245006 132.0065017  97.6929987  53.8245006 132.0065017
  96.4959987  54.7515006 132.0065017 102.6639987  52.3325006 119.2655017
 103.6209987  52.3325006 119.2655017 102.4239987  53.2595006 119.2655017
 101.4919987  51.8595006 121.7285017 102.4489987  51.8595006 121.7285017
 101.2519987  52.7865006 121.7285017  98.0039987  49.1065006 122.2195017
  98.9609987  49.1065006 122.2195017  97.7639987  50.0335006 122.2195017
 105.8529987  41.7755006 132.5215017 106.8099987  41.7755006 132.5215017
 105.6129987  42.7025006 132.5215017 106.3259987  41.6025006 123.5975017
 107.2829987  41.6025006 123.5975017 106.0859987  42.5295006 123.5975017
 104.2859987  53.5265006 122.4535017 105.2429987  53.5265006 122.4535017
 104.0459987  54.4535006 122.4535017 103.7909987  43.1555006 124.4405017
 104.7479987  43.1555006 124.4405017 103.5509987  44.0825006 124.4405017
 104.3489987  44.1105006 133.5875017 105.3059987  44.1105006 133.5875017
 104.1089987  45.0375006 133.5875017 104.6989987  40.1905006 125.3535017
 105.6559987  40.1905006 125.3535017 104.4589987  41.1175006 125.3535017
 101.6349987  54.5655006 122.4515017 102.5919987  54.5655006 122.4515017
 101.3949987  55.4925006 122.4515017 100.3269987  41.2815006 122.0485017
 101.2839987  41.2815006 122.0485017 100.0869987  42.2085006 122.0485017
  98.5649987  51.7245006 121.1015017  99.5219987  51.7245006 121.1015017
  98.3249987  52.6515006 121.1015017  96.9079987  44.3935006 120.2305017
  97.8649987  44.3935006 120.2305017  96.6679987  45.3205006 120.2305017
  97.7209987  39.1835006 128.9535017  98.6779987  39.1835006 128.9535017
  97.4809987  40.1105006 128.9535017  96.6749987  53.1015006 125.1025017
  97.6319987  53.1015006 125.1025017  96.4349987  54.0285006 125.1025017
  95.7789987  55.7765006 136.3325017  96.7359987  55.7765006 136.3325017
  95.5389987  56.7035006 136.3325017 104.7059987  54.1705006 119.4015017
 105.6629987  54.1705006 119.4015017 104.4659987  55.0975006 119.4015017
 100.1419987  49.8755006 119.4375017 101.0989987  49.8755006 119.4375017
  99.9019987  50.8025006 119.4375017 105.5969987  50.9525006 119.2075017
 106.5539987  50.9525006 119.2075017 105.3569987  51.8795006 119.2075017
 101.3409987  47.8855006 121.8235017 102.2979987  47.8855006 121.8235017
 101.1009987  48.8125006 121.8235017 100.6449987  45.7265006 134.1615017
 101.6019987  45.7265006 134.1615017 100.4049987  46.6535006 134.1615017
 102.4119987  46.1035006 120.0485017 103.3689987  46.1035006 120.0485017
 102.1719987  47.0305006 120.0485017 100.8149987  43.1685006 135.0745017
 101.7719987  43.1685006 135.0745017 100.5749987  44.0955006 135.0745017
 101.4059987  41.4495006 132.7675017 102.3629987  41.4495006 132.7675017
 101.1659987  42.3765006 132.7675017 102.9859987  46.9185006 132.9755017
 103.9429987  46.9185006 132.9755017 102.7459987  47.8455006 132.9755017
 102.2219987  38.9195006 133.1665017 103.1789987  38.9195006 133.1665017
 101.9819987  39.8465006 133.1665017 106.1359987  42.3035006 135.7835017
 107.0929987  42.3035006 135.7835017 105.8959987  43.2305006 135.7835017
 102.4209987  38.2675006 135.8545017 103.3779987  38.2675006 135.8545017
 102.1809987  39.1945006 135.8545017 102.2629987  56.8065006 121.1095017
 103.2199987  56.8065006 121.1095017 102.0229987  57.7335006 121.1095017
  95.8229987  51.4055006 120.5775017  96.7799987  51.4055006 120.5775017
  95.5829987  52.3325006 120.5775017  94.5589987  56.8055006 125.5835017
  95.5159987  56.8055006 125.5835017  94.3189987  57.7325006 125.5835017
  95.4279987  54.9035006 127.4215017  96.3849987  54.9035006 127.4215017
  95.1879987  55.8305006 127.4215017  95.4639987  47.9785006 129.9045017
  96.4209987  47.9785006 129.9045017  95.2239987  48.9055006 129.9045017
  95.0709987  43.2585006 136.0425017  96.0279987  43.2585006 136.0425017
  94.8309987  44.1855006 136.0425017  96.2799987  41.5705006 128.9195017
  97.2369987  41.5705006 128.9195017  96.0399987  42.4975006 128.9195017
  94.5679987  44.5645006 129.9715017  95.5249987  44.5645006 129.9715017
  94.3279987  45.4915006 129.9715017  94.9319987  40.8395006 124.0435017
  95.8889987  40.8395006 124.0435017  94.6919987  41.7665006 124.0435017
  94.8989987  39.5255006 132.3565017  95.8559987  39.5255006 132.3565017
  94.6589987  40.4525006 132.3565017  97.1179987  52.8035006 136.4495017
  98.0749987  52.8035006 136.4495017  96.8779987  53.7305006 136.4495017
 100.0179987  53.6825006 132.7605017 100.9749987  53.6825006 132.7605017
  99.7779987  54.6095006 132.7605017 104.2919987  55.3965006 135.5295017
 105.2489987  55.3965006 135.5295017 104.0519987  56.3235006 135.5295017
 106.6899987  56.4445006 134.9645017 107.6469987  56.4445006 134.9645017
 106.4499987  57.3715006 134.9645017  97.4419987  56.9395006 132.7745017
  98.3989987  56.9395006 132.7745017  97.2019987  57.8665006 132.7745017
  99.9159987  56.5505006 131.8475017 100.8729987  56.5505006 131.8475017
  99.6759987  57.4775006 131.8475017 104.5859987  56.4285006 131.0345017
 105.5429987  56.4285006 131.0345017 104.3459987  57.3555006 131.0345017
 106.9429987  55.3085006 132.0395017 107.8999987  55.3085006 132.0395017
 106.7029987  56.2355006 132.0395017  96.8779987  55.5855006 129.7165017
  97.8349987  55.5855006 129.7165017  96.6379987  56.5125006 129.7165017
  98.9719987  54.2975006 128.3695017  99.9289987  54.2975006 128.3695017
  98.7319987  55.2245006 128.3695017 101.5369987  54.7795006 129.2375017
 102.4939987  54.7795006 129.2375017 101.2969987  55.7065006 129.2375017
 105.0119987  40.4195006 128.3665017 105.9689987  40.4195006 128.3665017
 104.7719987  41.3465006 128.3665017  97.3939987  39.0615006 126.2235017
  98.3509987  39.0615006 126.2235017  97.1539987  39.9885006 126.2235017
  96.1829987  38.8185006 121.9695017  97.1399987  38.8185006 121.9695017
  95.9429987  39.7455006 121.9695017 101.8999987  38.9705006 126.0125017
 102.8569987  38.9705006 126.0125017 101.6599987  39.8975006 126.0125017
 107.4669987  38.9265006 127.8145017 108.4239987  38.9265006 127.8145017
 107.2269987  39.8535006 127.8145017  96.0949987  54.7675006 122.9555017
  97.0519987  54.7675006 122.9555017  95.8549987  55.6945006 122.9555017
  98.0149987  40.7595006 120.4565017  98.9719987  40.7595006 120.4565017
  97.7749987  41.6865006 120.4565017 103.0459987  41.0095006 122.8715017
 104.0029987  41.0095006 122.8715017 102.8059987  41.9365006 122.8715017
 104.9379987  56.0505006 121.3075017 105.8949987  56.0505006 121.3075017
 104.6979987  56.9775006 121.3075017  97.2749987  39.5675006 135.6875017
  98.2319987  39.5675006 135.6875017  97.0349987  40.4945006 135.6875017
  97.8909987  55.7385006 119.9195017  98.8479987  55.7385006 119.9195017
  97.6509987  56.6655006 119.9195017  12.1999987  67.0475006 126.1085017
  13.1569987  67.0475006 126.1085017  11.9599987  67.9745006 126.1085017
  11.0729987  66.3135006 129.5975017  12.0299987  66.3135006 129.5975017
  10.8329987  67.2405006 129.5975017   3.4719987  65.9465006 131.1325017
   4.4289987  65.9465006 131.1325017   3.2319987  66.8735006 131.1325017
  14.7699987  69.2565006 127.8705017  15.7269987  69.2565006 127.8705017
  14.5299987  70.1835006 127.8705017   4.3829987  70.2115006 130.0465017
   5.3399987  70.2115006 130.0465017   4.1429987  71.1385006 130.0465017
   1.0659987  64.0945006 125.0775017   2.0229987  64.0945006 125.0775017
   0.8259987  65.0215006 125.0775017   1.6729987  66.1625006 127.2435017
   2.6299987  66.1625006 127.2435017   1.4329987  67.0895006 127.2435017
  11.8829987  74.4055006 128.1055017  12.8399987  74.4055006 128.1055017
  11.6429987  75.3325006 128.1055017   9.4479987  68.7245006 130.0345017
  10.4049987  68.7245006 130.0345017   9.2079987  69.6515006 130.0345017
  18.0669987  60.3585006 130.8075017  19.0239987  60.3585006 130.8075017
  17.8269987  61.2855006 130.8075017  12.6109987  63.1775006 130.3615017
  13.5679987  63.1775006 130.3615017  12.3709987  64.1045006 130.3615017
   5.7359987  61.2565006 127.5815017   6.6929987  61.2565006 127.5815017
   5.4959987  62.1835006 127.5815017  13.4709987  61.3515006 125.9635017
  14.4279987  61.3515006 125.9635017  13.2309987  62.2785006 125.9635017
   2.5389987  63.7155006 128.2355017   3.4959987  63.7155006 128.2355017
   2.2989987  64.6425006 128.2355017   7.5199987  65.2245006 127.6175017
   8.4769987  65.2245006 127.6175017   7.2799987  66.1515006 127.6175017
  18.5079987  61.7895006 133.0595017  19.4649987  61.7895006 133.0595017
  18.2679987  62.7165006 133.0595017   4.6279987  60.1625006 131.6585017
   5.5849987  60.1625006 131.6585017   4.3879987  61.0895006 131.6585017
  11.9379987  69.6535006 125.1815017  12.8949987  69.6535006 125.1815017
  11.6979987  70.5805006 125.1815017   7.1519987  67.8125006 131.8935017
   8.1089987  67.8125006 131.8935017   6.9119987  68.7395006 131.8935017
  15.2619987  60.6885006 127.9555017  16.2189987  60.6885006 127.9555017
  15.0219987  61.6155006 127.9555017   4.1969987  62.0045006 129.6525017
   5.1539987  62.0045006 129.6525017   3.9569987  62.9315006 129.6525017
   5.5919987  69.8015006 132.7065017   6.5489987  69.8015006 132.7065017
   5.3519987  70.7285006 132.7065017   1.6819987  69.4475006 123.4615017
   2.6389987  69.4475006 123.4615017   1.4419987  70.3745006 123.4615017
  15.2959987  71.0895006 130.2385017  16.2529987  71.0895006 130.2385017
  15.0559987  72.0165006 130.2385017  15.6009987  59.3725006 131.6195017
  16.5579987  59.3725006 131.6195017  15.3609987  60.2995006 131.6195017
   8.5889987  57.4905006 129.0955017   9.5459987  57.4905006 129.0955017
   8.3489987  58.4175006 129.0955017  13.5469987  72.8755006 126.8415017
  14.5039987  72.8755006 126.8415017  13.3069987  73.8025006 126.8415017
  14.7559987  70.8005006 125.3435017  15.7129987  70.8005006 125.3435017
  14.5159987  71.7275006 125.3435017  16.4139987  69.3805006 133.8435017
  17.3709987  69.3805006 133.8435017  16.1739987  70.3075006 133.8435017
  10.8749987  66.2935006 123.6175017  11.8319987  66.2935006 123.6175017
  10.6349987  67.2205006 123.6175017  10.9349987  64.8265006 120.6265017
  11.8919987  64.8265006 120.6265017  10.6949987  65.7535006 120.6265017
  18.2569987  65.6895006 131.8835017  19.2139987  65.6895006 131.8835017
  18.0169987  66.6165006 131.8835017  14.3119987  66.5085006 124.5315017
  15.2689987  66.5085006 124.5315017  14.0719987  67.4355006 124.5315017
  14.2269987  64.6135006 133.5315017  15.1839987  64.6135006 133.5315017
  13.9869987  65.5405006 133.5315017   5.9609987  67.1665006 126.4415017
   6.9179987  67.1665006 126.4415017   5.7209987  68.0935006 126.4415017
   7.2739987  70.5775006 129.1335017   8.2309987  70.5775006 129.1335017
   7.0339987  71.5045006 129.1335017   6.2849987  65.9085006 130.0985017
   7.2419987  65.9085006 130.0985017   6.0449987  66.8355006 130.0985017
  12.6799987  71.4635006 130.8245017  13.6369987  71.4635006 130.8245017
  12.4399987  72.3905006 130.8245017   7.1649987  70.2725006 134.7935017
   8.1219987  70.2725006 134.7935017   6.9249987  71.1995006 134.7935017
  13.1769987  65.6875006 122.2095017  14.1339987  65.6875006 122.2095017
  12.9369987  66.6145006 122.2095017   4.1169987  66.5195006 134.0085017
   5.0739987  66.5195006 134.0085017   3.8769987  67.4465006 134.0085017
  10.8989987  72.4185006 125.6695017  11.8559987  72.4185006 125.6695017
  10.6589987  73.3455006 125.6695017   5.4279987  72.3375006 135.5845017
   6.3849987  72.3375006 135.5845017   5.1879987  73.2645006 135.5845017
  16.9029987  57.4255006 122.0775017  17.8599987  57.4255006 122.0775017
  16.6629987  58.3525006 122.0775017   4.9309987  66.1925006 124.0505017
   5.8879987  66.1925006 124.0505017   4.6909987  67.1195006 124.0505017
  18.0229987  71.7895006 120.4265017  18.9799987  71.7895006 120.4265017
  17.7829987  72.7165006 120.4265017   1.1259987  68.5795006 132.8625017
   2.0829987  68.5795006 132.8625017   0.8859987  69.5065006 132.8625017
   0.9859987  71.4675006 129.4695017   1.9429987  71.4675006 129.4695017
   0.7459987  72.3945006 129.4695017  19.0359987  72.0215006 135.3605017
  19.9929987  72.0215006 135.3605017  18.7959987  72.9485006 135.3605017
   9.9669987  71.6245006 134.2635017  10.9239987  71.6245006 134.2635017
   9.7269987  72.5515006 134.2635017  10.3989987  75.3485006 124.0815017
  11.3559987  75.3485006 124.0815017  10.1589987  76.2755006 124.0815017
   4.0169987  74.2235006 125.8805017   4.9739987  74.2235006 125.8805017
   3.7769987  75.1505006 125.8805017  13.4349987  74.5235006 121.0685017
  14.3919987  74.5235006 121.0685017  13.1949987  75.4505006 121.0685017
  13.1339987  74.4725006 123.8315017  14.0909987  74.4725006 123.8315017
  12.8939987  75.3995006 123.8315017  16.1369987  63.5575006 135.6815017
  17.0939987  63.5575006 135.6815017  15.8969987  64.4845006 135.6815017
   3.2679987  69.9385006 133.9065017   4.2249987  69.9385006 133.9065017
   3.0279987  70.8655006 133.9065017   5.9379987  58.3995006 129.8455017
   6.8949987  58.3995006 129.8455017   5.6979987  59.3265006 129.8455017
  10.5789987  58.0915006 133.2455017  11.5359987  58.0915006 133.2455017
  10.3389987  59.0185006 133.2455017  13.8649987  61.8875006 134.0945017
  14.8219987  61.8875006 134.0945017  13.6249987  62.8145006 134.0945017
  14.6189987  66.7675006 119.9435017  15.5759987  66.7675006 119.9435017
  14.3789987  67.6945006 119.9435017  10.2339987  60.6365006 120.5185017
  11.1909987  60.6365006 120.5185017   9.9939987  61.5635006 120.5185017
   6.0319987  63.3525006 131.0465017   6.9889987  63.3525006 131.0465017
   5.7919987  64.2795006 131.0465017   5.9849987  63.5165006 125.9485017
   6.9419987  63.5165006 125.9485017   5.7449987  64.4435006 125.9485017
  11.5239987  63.9865006 124.7385017  12.4809987  63.9865006 124.7385017
  11.2839987  64.9135006 124.7385017  10.5839987  63.9705006 135.9695017
  11.5409987  63.9705006 135.9695017  10.3439987  64.8975006 135.9695017
  12.5529987  63.4665006 127.5685017  13.5099987  63.4665006 127.5685017
  12.3129987  64.3935006 127.5685017   3.7169987  63.6265006 132.8355017
   4.6739987  63.6265006 132.8355017   3.4769987  64.5535006 132.8355017
   7.0789987  61.0245006 119.6305017   8.0359987  61.0245006 119.6305017
   6.8389987  61.9515006 119.6305017   0.4279987  60.0585006 127.0805017
   1.3849987  60.0585006 127.0805017   0.1879987  60.9855006 127.0805017
   1.8009987  61.4675006 122.2185017   2.7579987  61.4675006 122.2185017
   1.5609987  62.3945006 122.2185017  11.7719987  65.0805006 132.1865017
  12.7289987  65.0805006 132.1865017  11.5319987  66.0075006 132.1865017
   8.5579987  61.0265006 126.9795017   9.5149987  61.0265006 126.9795017
   8.3179987  61.9535006 126.9795017   3.3929987  62.5805006 125.8205017
   4.3499987  62.5805006 125.8205017   3.1529987  63.5075006 125.8205017
   7.0229987  62.6295006 123.4585017   7.9799987  62.6295006 123.4585017
   6.7829987  63.5565006 123.4585017  12.9709987  60.2645006 130.2195017
  13.9279987  60.2645006 130.2195017  12.7309987  61.1915006 130.2195017
   5.7079987  63.8225006 121.0435017   6.6649987  63.8225006 121.0435017
   5.4679987  64.7495006 121.0435017  16.2209987  75.9115006 136.4955017
  17.1779987  75.9115006 136.4955017  15.9809987  76.8385006 136.4955017
   3.7059987  68.3775006 136.0855017   4.6629987  68.3775006 136.0855017
   3.4659987  69.3045006 136.0855017   9.8569987  63.7945006 128.8645017
  10.8139987  63.7945006 128.8645017   9.6169987  64.7215006 128.8645017
   4.8559987  59.9465006 125.2815017   5.8129987  59.9465006 125.2815017
   4.6159987  60.8735006 125.2815017   8.4909987  62.1255006 131.2775017
   9.4479987  62.1255006 131.2775017   8.2509987  63.0525006 131.2775017
   9.0839987  68.3595006 122.9675017  10.0409987  68.3595006 122.9675017
   8.8439987  69.2865006 122.9675017  16.2339987  67.5465006 131.7765017
  17.1909987  67.5465006 131.7765017  15.9939987  68.4735006 131.7765017
  12.9159987  61.1705006 121.1585017  13.8729987  61.1705006 121.1585017
  12.6759987  62.0975006 121.1585017  10.5289987  68.6015006 134.1475017
  11.4859987  68.6015006 134.1475017  10.2889987  69.5285006 134.1475017
  13.6489987  63.0725006 122.7935017  14.6059987  63.0725006 122.7935017
  13.4089987  63.9995006 122.7935017   4.1649987  67.6985006 128.7615017
   5.1219987  67.6985006 128.7615017   3.9249987  68.6255006 128.7615017
  11.1919987  69.8295006 121.9825017  12.1489987  69.8295006 121.9825017
  10.9519987  70.7565006 121.9825017   1.2029987  66.1275006 134.0095017
   2.1599987  66.1275006 134.0095017   0.9629987  67.0545006 134.0095017
   8.3459987  66.0625006 135.7755017   9.3029987  66.0625006 135.7755017
   8.1059987  66.9895006 135.7755017  12.8679987  71.0565006 134.1745017
  13.8249987  71.0565006 134.1745017  12.6279987  71.9835006 134.1745017
  18.5539987  63.2265006 122.5475017  19.5109987  63.2265006 122.5475017
  18.3139987  64.1535006 122.5475017  18.5169987  69.0775006 135.3505017
  19.4739987  69.0775006 135.3505017  18.2769987  70.0045006 135.3505017
  16.8309987  72.0555006 122.9545017  17.7879987  72.0555006 122.9545017
  16.5909987  72.9825006 122.9545017  14.0269987  66.8865006 130.0155017
  14.9839987  66.8865006 130.0155017  13.7869987  67.8135006 130.0155017
   6.6809987  71.1625006 126.0165017   7.6379987  71.1625006 126.0165017
   6.4409987  72.0895006 126.0165017   2.2869987  66.0315006 120.7515017
   3.2439987  66.0315006 120.7515017   2.0469987  66.9585006 120.7515017
   7.9969987  68.8525006 125.6855017   8.9539987  68.8525006 125.6855017
   7.7569987  69.7795006 125.6855017   8.4319987  73.0405006 132.0385017
   9.3889987  73.0405006 132.0385017   8.1919987  73.9675006 132.0385017
   6.6709987  73.8775006 125.1895017   7.6279987  73.8775006 125.1895017
   6.4309987  74.8045006 125.1895017  11.9929987  69.0765006 131.7085017
  12.9499987  69.0765006 131.7085017  11.7529987  70.0035006 131.7085017
  14.2759987  70.0925006 120.7535017  15.2329987  70.0925006 120.7535017
  14.0359987  71.0195006 120.7535017  14.6999987  73.6495006 134.2045017
  15.6569987  73.6495006 134.2045017  14.4599987  74.5765006 134.2045017
  18.7639987  74.4795006 121.0595017  19.7209987  74.4795006 121.0595017
  18.5239987  75.4065006 121.0595017   2.8059987  60.8975006 133.6135017
   3.7629987  60.8975006 133.6135017   2.5659987  61.8245006 133.6135017
  15.0689987  68.7475006 123.0075017  16.0259987  68.7475006 123.0075017
  14.8289987  69.6745006 123.0075017   2.4509987  72.6855006 132.0155017
   3.4079987  72.6855006 132.0155017   2.2109987  73.6125006 132.0155017
   8.3919987  71.1855006 119.2735017   9.3489987  71.1855006 119.2735017
   8.1519987  72.1125006 119.2735017   7.2229987  70.7155006 121.7295017
   8.1799987  70.7155006 121.7295017   6.9829987  71.6425006 121.7295017
   3.6869987  67.9455006 122.2045017   4.6439987  67.9455006 122.2045017
   3.4469987  68.8725006 122.2045017  11.5659987  60.6465006 132.5225017
  12.5229987  60.6465006 132.5225017  11.3259987  61.5735006 132.5225017
  12.3149987  60.2345006 123.6195017  13.2719987  60.2345006 123.6195017
  12.0749987  61.1615006 123.6195017   9.9949987  72.3875006 122.4495017
  10.9519987  72.3875006 122.4495017   9.7549987  73.3145006 122.4495017
   9.5309987  61.9895006 124.4435017  10.4879987  61.9895006 124.4435017
   9.2909987  62.9165006 124.4435017  10.0939987  62.9875006 133.5685017
  11.0509987  62.9875006 133.5685017   9.8539987  63.9145006 133.5685017
  10.3929987  59.0465006 125.3495017  11.3499987  59.0465006 125.3495017
  10.1529987  59.9735006 125.3495017   7.3769987  73.4225006 122.4605017
   8.3339987  73.4225006 122.4605017   7.1369987  74.3495006 122.4605017
   6.0499987  60.1405006 122.0475017   7.0069987  60.1405006 122.0475017
   5.8099987  61.0675006 122.0475017  16.2769987  60.8465006 134.4055017
  17.2339987  60.8465006 134.4055017  16.0369987  61.7735006 134.4055017
  14.8759987  64.6615006 128.5095017  15.8329987  64.6615006 128.5095017
  14.6359987  65.5885006 128.5095017   4.2899987  70.5885006 121.0965017
   5.2469987  70.5885006 121.0965017   4.0499987  71.5155006 121.0965017
   2.5789987  63.2605006 120.2765017   3.5359987  63.2605006 120.2765017
   2.3389987  64.1875006 120.2765017  15.9399987  73.9085006 130.1545017
  16.8969987  73.9085006 130.1545017  15.6999987  74.8355006 130.1545017
   3.4609987  58.0375006 128.9385017   4.4179987  58.0375006 128.9385017
   3.2209987  58.9645006 128.9385017   2.3149987  71.9505006 124.9995017
   3.2719987  71.9505006 124.9995017   2.0749987  72.8775006 124.9995017
   1.4939987  74.5795006 136.3165017   2.4509987  74.5795006 136.3165017
   1.2539987  75.5065006 136.3165017  10.4019987  73.0395006 119.4085017
  11.3589987  73.0395006 119.4085017  10.1619987  73.9665006 119.4085017
  14.9479987  72.7405006 119.5475017  15.9049987  72.7405006 119.5475017
  14.7079987  73.6675006 119.5475017   5.8679987  68.7325006 119.4395017
   6.8249987  68.7325006 119.4395017   5.6279987  69.6595006 119.4395017
  11.3309987  69.8285006 119.2025017  12.2879987  69.8285006 119.2025017
  11.0909987  70.7555006 119.2025017  13.9259987  68.3085006 134.1735017
  14.8829987  68.3085006 134.1735017  13.6859987  69.2355006 134.1735017
   7.0619987  66.7405006 121.8255017   8.0189987  66.7405006 121.8255017
   6.8219987  67.6675006 121.8255017   6.3639987  64.5805006 134.1575017
   7.3209987  64.5805006 134.1575017   6.1239987  65.5075006 134.1575017
   8.1319987  64.9595006 120.0515017   9.0889987  64.9595006 120.0515017
   7.8919987  65.8865006 120.0515017  17.4669987  67.2915006 119.4775017
  18.4239987  67.2915006 119.4775017  17.2269987  68.2185006 119.4775017
   6.5329987  62.0265006 135.0745017   7.4899987  62.0265006 135.0745017
   6.2929987  62.9535006 135.0745017   7.1259987  60.3055006 132.7665017
   8.0829987  60.3055006 132.7665017   6.8859987  61.2325006 132.7665017
   8.6929987  65.7795006 132.9765017   9.6499987  65.7795006 132.9765017
   8.4529987  66.7065006 132.9765017  14.2779987  66.1695006 135.4985017
  15.2349987  66.1695006 135.4985017  14.0379987  67.0965006 135.4985017
   7.9219987  57.7715006 133.1775017   8.8789987  57.7715006 133.1775017
   7.6819987  58.6985006 133.1775017  11.9139987  61.1715006 135.7865017
  12.8709987  61.1715006 135.7865017  11.6739987  62.0985006 135.7865017
   8.1459987  57.1205006 135.8535017   9.1029987  57.1205006 135.8535017
   7.9059987  58.0475006 135.8535017   7.9809987  75.6585006 121.1085017
   8.9379987  75.6585006 121.1085017   7.7409987  76.5855006 121.1085017
   1.5899987  70.2725006 120.5615017   2.5469987  70.2725006 120.5615017
   1.3499987  71.1995006 120.5615017 108.0999987  75.6885006 125.5835017
 109.0569987  75.6885006 125.5835017 107.8599987  76.6155006 125.5835017
   1.4989987  73.9285006 127.5255017   2.4559987  73.9285006 127.5255017
   1.2589987  74.8555006 127.5255017  18.6569987  74.5595006 130.3685017
  19.6139987  74.5595006 130.3685017  18.4169987  75.4865006 130.3685017
  18.2669987  74.1535006 133.2875017  19.2239987  74.1535006 133.2875017
  18.0269987  75.0805006 133.2875017  17.9859987  68.1975006 123.4275017
  18.9429987  68.1975006 123.4275017  17.7459987  69.1245006 123.4275017
  18.3629987  66.2705006 125.2935017  19.3199987  66.2705006 125.2935017
  18.1229987  67.1975006 125.2935017  18.1149987  68.9815006 130.2725017
  19.0719987  68.9815006 130.2725017  17.8749987  69.9085006 130.2725017
  16.6589987  71.8665006 132.5625017  17.6159987  71.8665006 132.5625017
  16.4189987  72.7935006 132.5625017  18.6619987  66.1075006 121.6915017
  19.6189987  66.1075006 121.6915017  18.4219987  67.0345006 121.6915017
  17.0299987  63.3455006 120.2155017  17.9869987  63.3455006 120.2155017
  16.7899987  64.2725006 120.2155017  16.1769987  64.7545006 125.8595017
  17.1339987  64.7545006 125.8595017  15.9369987  65.6815006 125.8595017
   1.1779987  66.8025006 129.9245017   2.1349987  66.8025006 129.9245017
   0.9379987  67.7295006 129.9245017  17.0249987  66.5655006 135.0845017
  17.9819987  66.5655006 135.0845017  16.7849987  67.4925006 135.0845017
  18.5689987  64.6545006 136.1065017  19.5259987  64.6545006 136.1065017
  18.3289987  65.5815006 136.1065017  16.2699987  60.8005006 119.3465017
  17.2269987  60.8005006 119.3465017  16.0299987  61.7275006 119.3465017
  15.8369987  62.3375006 124.2965017  16.7939987  62.3375006 124.2965017
  15.5969987  63.2645006 124.2965017  16.4789987  62.8845006 129.7615017
  17.4359987  62.8845006 129.7615017  16.2389987  63.8115006 129.7615017
  16.5479987  63.6185006 132.5535017  17.5049987  63.6185006 132.5535017
  16.3079987  64.5455006 132.5535017   0.8509987  62.1115006 136.0095017
   1.8079987  62.1115006 136.0095017   0.6109987  63.0385006 136.0095017
  16.5109987  59.6215006 124.3705017  17.4679987  59.6215006 124.3705017
  16.2709987  60.5485006 124.3705017   2.0849987  60.4555006 128.9125017
   3.0419987  60.4555006 128.9125017   1.8449987  61.3825006 128.9125017
   0.8899987  63.3895006 130.1265017   1.8469987  63.3895006 130.1265017
   0.6499987  64.3165006 130.1265017  18.4079987  59.7715006 136.0775017
  19.3649987  59.7715006 136.0775017  18.1679987  60.6985006 136.0775017
  18.3389987  59.6605006 120.9245017  19.2959987  59.6605006 120.9245017
  18.0989987  60.5875006 120.9245017   0.8919987  59.6335006 124.0555017
   1.8489987  59.6335006 124.0555017   0.6519987  60.5605006 124.0555017
  15.3919987  74.6485006 125.9825017  16.3489987  74.6485006 125.9825017
  15.1519987  75.5755006 125.9825017 108.3559987  58.3685006 132.3915017
 109.3129987  58.3685006 132.3915017 108.1159987  59.2955006 132.3915017
   2.8359987  71.6745006 136.4505017   3.7929987  71.6745006 136.4505017
   2.5959987  72.6015006 136.4505017   5.7449987  72.5545006 132.7855017
   6.7019987  72.5545006 132.7855017   5.5049987  73.4815006 132.7855017
  10.0239987  74.1575006 135.4855017  10.9809987  74.1575006 135.4855017
   9.7839987  75.0845006 135.4855017  12.3919987  75.2225006 135.0045017
  13.3489987  75.2225006 135.0045017  12.1519987  76.1495006 135.0045017
  17.3599987  57.8705006 134.0745017  18.3169987  57.8705006 134.0745017
  17.1199987  58.7975006 134.0745017   3.1449987  75.8075006 132.8025017
   4.1019987  75.8075006 132.8025017   2.9049987  76.7345006 132.8025017
   5.6359987  75.3875006 131.8255017   6.5929987  75.3875006 131.8255017
   5.3959987  76.3145006 131.8255017  10.3409987  75.2765006 130.9945017
  11.2979987  75.2765006 130.9945017  10.1009987  76.2035006 130.9945017
  12.6439987  74.1205006 131.9955017  13.6009987  74.1205006 131.9955017
  12.4039987  75.0475006 131.9955017  15.2199987  75.6905006 132.2785017
  16.1769987  75.6905006 132.2785017  14.9799987  76.6175006 132.2785017
   2.6039987  74.4815006 129.7875017   3.5609987  74.4815006 129.7875017
   2.3639987  75.4085006 129.7875017   4.7479987  73.5035006 128.6975017
   5.7049987  73.5035006 128.6975017   4.5079987  74.4305006 128.6975017
   7.3379987  73.6415006 129.2425017   8.2949987  73.6415006 129.2425017
   7.0979987  74.5685006 129.2425017  10.7549987  59.2835006 128.3885017
  11.7119987  59.2835006 128.3885017  10.5149987  60.2105006 128.3885017
  15.8899987  57.3425006 128.4735017  16.8469987  57.3425006 128.4735017
  15.6499987  58.2695006 128.4735017  17.5679987  58.5655006 126.7545017
  18.5249987  58.5655006 126.7545017  17.3279987  59.4925006 126.7545017
   3.1299987  57.9145006 126.1805017   4.0869987  57.9145006 126.1805017
   2.8899987  58.8415006 126.1805017   1.9409987  57.6705006 122.0235017
   2.8979987  57.6705006 122.0235017   1.7009987  58.5975006 122.0235017
   7.6149987  57.8365006 126.0145017   8.5719987  57.8365006 126.0145017
   7.3749987  58.7635006 126.0145017  13.2819987  57.8615006 127.6535017
  14.2389987  57.8615006 127.6535017  13.0419987  58.7885006 127.6535017
  14.5799987  57.8925006 123.3345017  15.5369987  57.8925006 123.3345017
  14.3399987  58.8195006 123.3345017   1.9259987  73.6525006 122.9185017
   2.8829987  73.6525006 122.9185017   1.6859987  74.5795006 122.9185017
   3.7349987  59.6245006 120.4575017   4.6919987  59.6245006 120.4575017
   3.4949987  60.5515006 120.4575017   8.7609987  59.8705006 122.8715017
   9.7179987  59.8705006 122.8715017   8.5209987  60.7975006 122.8715017
  10.6759987  74.9055006 121.3185017  11.6329987  74.9055006 121.3185017
  10.4359987  75.8325006 121.3185017  17.4169987  74.4235006 124.0165017
  18.3739987  74.4235006 124.0165017  17.1769987  75.3505006 124.0165017
   2.9979987  58.3835006 135.6455017   3.9549987  58.3835006 135.6455017
   2.7579987  59.3105006 135.6455017   3.5879987  74.5735006 119.9035017
   4.5449987  74.5735006 119.9035017   3.3479987  75.5005006 119.9035017
  16.8069987  73.2785006 135.9015017  17.7639987  73.2785006 135.9015017
  16.5669987  74.2055006 135.9015017  31.0559987  67.0495006 126.1075017
  32.0129987  67.0495006 126.1075017  30.8159987  67.9765006 126.1075017
  29.9279987  66.3135006 129.5975017  30.8849987  66.3135006 129.5975017
  29.6879987  67.2405006 129.5975017  22.2769987  65.9705006 131.1575017
  23.2339987  65.9705006 131.1575017  22.0369987  66.8975006 131.1575017
  33.6259987  69.2555006 127.8715017  34.5829987  69.2555006 127.8715017
  33.3859987  70.1825006 127.8715017  23.2119987  70.4235006 129.6635017
  24.1689987  70.4235006 129.6635017  22.9719987  71.3505006 129.6635017
  19.8549987  63.9995006 125.1265017  20.8119987  63.9995006 125.1265017
  19.6149987  64.9265006 125.1265017  20.5509987  66.2135006 127.2605017
  21.5079987  66.2135006 127.2605017  20.3109987  67.1405006 127.2605017
  30.7269987  74.4015006 128.1005017  31.6839987  74.4015006 128.1005017
  30.4869987  75.3285006 128.1005017  28.3039987  68.7235006 130.0355017
  29.2609987  68.7235006 130.0355017  28.0639987  69.6505006 130.0355017
  36.9229987  60.3585006 130.8075017  37.8799987  60.3585006 130.8075017
  36.6829987  61.2855006 130.8075017  31.4669987  63.1775006 130.3615017
  32.4239987  63.1775006 130.3615017  31.2269987  64.1045006 130.3615017
  24.5929987  61.2625006 127.5935017  25.5499987  61.2625006 127.5935017
  24.3529987  62.1895006 127.5935017  32.3269987  61.3525006 125.9635017
  33.2839987  61.3525006 125.9635017  32.0869987  62.2795006 125.9635017
  21.2139987  63.6695006 128.3345017  22.1709987  63.6695006 128.3345017
  20.9739987  64.5965006 128.3345017  26.3769987  65.2275006 127.6195017
  27.3339987  65.2275006 127.6195017  26.1369987  66.1545006 127.6195017
  37.3599987  61.7955006 133.0575017  38.3169987  61.7955006 133.0575017
  37.1199987  62.7225006 133.0575017  23.4749987  60.1555006 131.6495017
  24.4319987  60.1555006 131.6495017  23.2349987  61.0825006 131.6495017
  30.7909987  69.6515006 125.1825017  31.7479987  69.6515006 125.1825017
  30.5509987  70.5785006 125.1825017  26.0079987  67.8075006 131.8955017
  26.9649987  67.8075006 131.8955017  25.7679987  68.7345006 131.8955017
  34.1189987  60.6885006 127.9545017  35.0759987  60.6885006 127.9545017
  33.8789987  61.6155006 127.9545017  23.0339987  62.0335006 129.6355017
  23.9909987  62.0335006 129.6355017  22.7939987  62.9605006 129.6355017
  24.4339987  69.8035006 132.6815017  25.3909987  69.8035006 132.6815017
  24.1939987  70.7305006 132.6815017  20.5899987  69.4595006 123.4795017
  21.5469987  69.4595006 123.4795017  20.3499987  70.3865006 123.4795017
  34.1509987  71.0905006 130.2395017  35.1079987  71.0905006 130.2395017
  33.9109987  72.0175006 130.2395017  34.4559987  59.3735006 131.6195017
  35.4129987  59.3735006 131.6195017  34.2159987  60.3005006 131.6195017
  27.4469987  57.4915006 129.0975017  28.4039987  57.4915006 129.0975017
  27.2069987  58.4185006 129.0975017  32.4029987  72.8755006 126.8425017
  33.3599987  72.8755006 126.8425017  32.1629987  73.8025006 126.8425017
  33.6039987  70.8025006 125.3505017  34.5609987  70.8025006 125.3505017
  33.3639987  71.7295006 125.3505017  35.2699987  69.3805006 133.8435017
  36.2269987  69.3805006 133.8435017  35.0299987  70.3075006 133.8435017
  29.7309987  66.2935006 123.6175017  30.6879987  66.2935006 123.6175017
  29.4909987  67.2205006 123.6175017  29.7929987  64.8255006 120.6245017
  30.7499987  64.8255006 120.6245017  29.5529987  65.7525006 120.6245017
  37.1129987  65.6885006 131.8835017  38.0699987  65.6885006 131.8835017
  36.8729987  66.6155006 131.8835017  33.1679987  66.5085006 124.5315017
  34.1249987  66.5085006 124.5315017  32.9279987  67.4355006 124.5315017
  33.0829987  64.6135006 133.5315017  34.0399987  64.6135006 133.5315017
  32.8429987  65.5405006 133.5315017  24.7849987  67.1645006 126.4445017
  25.7419987  67.1645006 126.4445017  24.5449987  68.0915006 126.4445017
  26.1169987  70.5615006 129.1245017  27.0739987  70.5615006 129.1245017
  25.8769987  71.4885006 129.1245017  25.1239987  65.9065006 130.0975017
  26.0809987  65.9065006 130.0975017  24.8839987  66.8335006 130.0975017
  31.5089987  71.4715006 130.8135017  32.4659987  71.4715006 130.8135017
  31.2689987  72.3985006 130.8135017  26.0199987  70.2745006 134.7915017
  26.9769987  70.2745006 134.7915017  25.7799987  71.2015006 134.7915017
  32.0339987  65.6915006 122.2065017  32.9909987  65.6915006 122.2065017
  31.7939987  66.6185006 122.2065017  22.9869987  66.5095006 134.0025017
  23.9439987  66.5095006 134.0025017  22.7469987  67.4365006 134.0025017
  29.7539987  72.4185006 125.6695017  30.7109987  72.4185006 125.6695017
  29.5139987  73.3455006 125.6695017  24.2799987  72.3355006 135.5825017
  25.2369987  72.3355006 135.5825017  24.0399987  73.2625006 135.5825017
  35.7569987  57.4275006 122.0815017  36.7139987  57.4275006 122.0815017
  35.5169987  58.3545006 122.0815017  23.7619987  66.1835006 124.0615017
  24.7189987  66.1835006 124.0615017  23.5219987  67.1105006 124.0615017
  36.8839987  71.7835006 120.4415017  37.8409987  71.7835006 120.4415017
  36.6439987  72.7105006 120.4415017  19.8599987  68.6125006 132.8985017
  20.8169987  68.6125006 132.8985017  19.6199987  69.5395006 132.8985017
  19.6079987  71.3475006 129.7295017  20.5649987  71.3475006 129.7295017
  19.3679987  72.2745006 129.7295017  37.8949987  72.0425006 135.3615017
  38.8519987  72.0425006 135.3615017  37.6549987  72.9695006 135.3615017
  28.8249987  71.6215006 134.2615017  29.7819987  71.6215006 134.2615017
  28.5849987  72.5485006 134.2615017  29.2349987  75.3425006 124.0855017
  30.1919987  75.3425006 124.0855017  28.9949987  76.2695006 124.0855017
  22.8759987  74.1895006 125.8785017  23.8329987  74.1895006 125.8785017
  22.6359987  75.1165006 125.8785017  32.2999987  74.5465006 121.0695017
  33.2569987  74.5465006 121.0695017  32.0599987  75.4735006 121.0695017
  31.9899987  74.4735006 123.8335017  32.9469987  74.4735006 123.8335017
  31.7499987  75.4005006 123.8335017  34.9949987  63.5575006 135.6855017
  35.9519987  63.5575006 135.6855017  34.7549987  64.4845006 135.6855017
  22.1199987  69.9125006 133.9035017  23.0769987  69.9125006 133.9035017
  21.8799987  70.8395006 133.9035017  24.7949987  58.3905006 129.8565017
  25.7519987  58.3905006 129.8565017  24.5549987  59.3175006 129.8565017
  29.4339987  58.0915006 133.2465017  30.3909987  58.0915006 133.2465017
  29.1939987  59.0185006 133.2465017  32.7209987  61.8875006 134.0945017
  33.6779987  61.8875006 134.0945017  32.4809987  62.8145006 134.0945017
  33.4899987  66.7295006 119.9545017  34.4469987  66.7295006 119.9545017
  33.2499987  67.6565006 119.9545017  29.0909987  60.6375006 120.5195017
  30.0479987  60.6375006 120.5195017  28.8509987  61.5645006 120.5195017
  24.8809987  63.3505006 131.0435017  25.8379987  63.3505006 131.0435017
  24.6409987  64.2775006 131.0435017  24.8579987  63.5175006 125.9465017
  25.8149987  63.5175006 125.9465017  24.6179987  64.4445006 125.9465017
  30.3809987  63.9865006 124.7395017  31.3379987  63.9865006 124.7395017
  30.1409987  64.9135006 124.7395017  29.4399987  63.9705006 135.9695017
  30.3969987  63.9705006 135.9695017  29.1999987  64.8975006 135.9695017
  31.4089987  63.4665006 127.5685017  32.3659987  63.4665006 127.5685017
  31.1689987  64.3935006 127.5685017  22.5649987  63.6355006 132.8275017
  23.5219987  63.6355006 132.8275017  22.3249987  64.5625006 132.8275017
  25.9229987  61.0265006 119.6365017  26.8799987  61.0265006 119.6365017
  25.6829987  61.9535006 119.6365017  19.1839987  60.7535006 126.7445017
  20.1409987  60.7535006 126.7445017  18.9439987  61.6805006 126.7445017
  20.4589987  61.4665006 122.1185017  21.4159987  61.4665006 122.1185017
  20.2189987  62.3935006 122.1185017  30.6269987  65.0805006 132.1855017
  31.5839987  65.0805006 132.1855017  30.3869987  66.0075006 132.1855017
  27.4139987  61.0265006 126.9795017  28.3709987  61.0265006 126.9795017
  27.1739987  61.9535006 126.9795017  22.2379987  62.6025006 125.8315017
  23.1949987  62.6025006 125.8315017  21.9979987  63.5295006 125.8315017
  25.8839987  62.6275006 123.4565017  26.8409987  62.6275006 123.4565017
  25.6439987  63.5545006 123.4565017  31.8279987  60.2685006 130.2175017
  32.7849987  60.2685006 130.2175017  31.5879987  61.1955006 130.2175017
  24.5759987  63.8175006 121.0515017  25.5329987  63.8175006 121.0515017
  24.3359987  64.7445006 121.0515017  35.1079987  75.9025006 136.4895017
  36.0649987  75.9025006 136.4895017  34.8679987  76.8295006 136.4895017
  22.5599987  68.4005006 136.0725017  23.5169987  68.4005006 136.0725017
  22.3199987  69.3275006 136.0725017  28.7109987  63.7935006 128.8645017
  29.6679987  63.7935006 128.8645017  28.4709987  64.7205006 128.8645017
  23.7209987  59.9405006 125.2985017  24.6779987  59.9405006 125.2985017
  23.4809987  60.8675006 125.2985017  27.3469987  62.1255006 131.2775017
  28.3039987  62.1255006 131.2775017  27.1069987  63.0525006 131.2775017
  27.9369987  68.3615006 122.9665017  28.8939987  68.3615006 122.9665017
  27.6969987  69.2885006 122.9665017  35.0899987  67.5465006 131.7765017
  36.0469987  67.5465006 131.7765017  34.8499987  68.4735006 131.7765017
  31.7749987  61.1715006 121.1515017  32.7319987  61.1715006 121.1515017
  31.5349987  62.0985006 121.1515017  29.3849987  68.6005006 134.1485017
  30.3419987  68.6005006 134.1485017  29.1449987  69.5275006 134.1485017
  32.5039987  63.0735006 122.7935017  33.4609987  63.0735006 122.7935017
  32.2639987  64.0005006 122.7935017  23.0389987  67.7265006 128.7685017
  23.9959987  67.7265006 128.7685017  22.7989987  68.6535006 128.7685017
  30.0449987  69.8225006 122.0015017  31.0019987  69.8225006 122.0015017
  29.8049987  70.7495006 122.0015017  20.0339987  66.1505006 134.0335017
  20.9909987  66.1505006 134.0335017  19.7939987  67.0775006 134.0335017
  27.1999987  66.0615006 135.7735017  28.1569987  66.0615006 135.7735017
  26.9599987  66.9885006 135.7735017  31.7229987  71.0565006 134.1745017
  32.6799987  71.0565006 134.1745017  31.4829987  71.9835006 134.1745017
  37.4099987  63.2255006 122.5475017  38.3669987  63.2255006 122.5475017
  37.1699987  64.1525006 122.5475017  37.3749987  69.0775006 135.3515017
  38.3319987  69.0775006 135.3515017  37.1349987  70.0045006 135.3515017
  35.6729987  72.0565006 122.9605017  36.6299987  72.0565006 122.9605017
  35.4329987  72.9835006 122.9605017  32.8829987  66.8875006 130.0135017
  33.8399987  66.8875006 130.0135017  32.6429987  67.8145006 130.0135017
  25.4119987  71.1875006 126.1265017  26.3689987  71.1875006 126.1265017
  25.1719987  72.1145006 126.1265017  21.1719987  66.0345006 120.7215017
  22.1289987  66.0345006 120.7215017  20.9319987  66.9615006 120.7215017
  26.8409987  68.8585006 125.6885017  27.7979987  68.8585006 125.6885017
  26.6009987  69.7855006 125.6885017  27.2939987  73.0355006 132.0455017
  28.2509987  73.0355006 132.0455017  27.0539987  73.9625006 132.0455017
  25.4969987  73.8685006 125.2055017  26.4539987  73.8685006 125.2055017
  25.2569987  74.7955006 125.2055017  30.8509987  69.0775006 131.7095017
  31.8079987  69.0775006 131.7095017  30.6109987  70.0045006 131.7095017
  33.1209987  70.1065006 120.8025017  34.0779987  70.1065006 120.8025017
  32.8809987  71.0335006 120.8025017  33.5519987  73.6505006 134.2055017
  34.5089987  73.6505006 134.2055017  33.3119987  74.5775006 134.2055017
  37.5959987  74.4765006 121.0365017  38.5529987  74.4765006 121.0365017
  37.3559987  75.4035006 121.0365017  21.6839987  60.9105006 133.6425017
  22.6409987  60.9105006 133.6425017  21.4439987  61.8375006 133.6425017
  33.9219987  68.7435006 123.0275017  34.8789987  68.7435006 123.0275017
  33.6819987  69.6705006 123.0275017  21.3179987  72.6855006 132.0015017
  22.2749987  72.6855006 132.0015017  21.0779987  73.6125006 132.0015017
  27.2299987  71.1895006 119.2795017  28.1869987  71.1895006 119.2795017
  26.9899987  72.1165006 119.2795017  26.0119987  70.7225006 121.7465017
  26.9689987  70.7225006 121.7465017  25.7719987  71.6495006 121.7465017
  22.5799987  67.9685006 122.2215017  23.5369987  67.9685006 122.2215017
  22.3399987  68.8955006 122.2215017  30.4199987  60.6445006 132.5255017
  31.3769987  60.6445006 132.5255017  30.1799987  61.5715006 132.5255017
  31.1729987  60.2305006 123.6155017  32.1299987  60.2305006 123.6155017
  30.9329987  61.1575006 123.6155017  28.8549987  72.3865006 122.4455017
  29.8119987  72.3865006 122.4455017  28.6149987  73.3135006 122.4455017
  28.3879987  61.9895006 124.4435017  29.3449987  61.9895006 124.4435017
  28.1479987  62.9165006 124.4435017  28.9499987  62.9875006 133.5685017
  29.9069987  62.9875006 133.5685017  28.7099987  63.9145006 133.5685017
  29.2439987  59.0495006 125.3485017  30.2009987  59.0495006 125.3485017
  29.0039987  59.9765006 125.3485017  26.1699987  73.4195006 122.4575017
  27.1269987  73.4195006 122.4575017  25.9299987  74.3465006 122.4575017
  24.9019987  60.1385006 122.0475017  25.8589987  60.1385006 122.0475017
  24.6619987  61.0655006 122.0475017  35.1329987  60.8455006 134.4045017
  36.0899987  60.8455006 134.4045017  34.8929987  61.7725006 134.4045017
  33.7319987  64.6615006 128.5095017  34.6889987  64.6615006 128.5095017
  33.4919987  65.5885006 128.5095017  23.1629987  70.5735006 121.0685017
  24.1199987  70.5735006 121.0685017  22.9229987  71.5005006 121.0685017
  21.4839987  63.2495006 120.2305017  22.4409987  63.2495006 120.2305017
  21.2439987  64.1765006 120.2305017  34.7979987  73.9055006 130.1545017
  35.7549987  73.9055006 130.1545017  34.5579987  74.8325006 130.1545017
  22.2969987  58.0405006 128.9535017  23.2539987  58.0405006 128.9535017
  22.0569987  58.9675006 128.9535017  21.2259987  71.9385006 125.0745017
  22.1829987  71.9385006 125.0745017  20.9859987  72.8655006 125.0745017
  20.3579987  74.6325006 136.3285017  21.3149987  74.6325006 136.3285017
  20.1179987  75.5595006 136.3285017  29.2519987  73.0395006 119.4075017
  30.2089987  73.0395006 119.4075017  29.0119987  73.9665006 119.4075017
  33.8189987  72.8065006 119.6135017  34.7759987  72.8065006 119.6135017
  33.5789987  73.7335006 119.6135017  24.7169987  68.7445006 119.4565017
  25.6739987  68.7445006 119.4565017  24.4769987  69.6715006 119.4565017
  30.1379987  69.8255006 119.1995017  31.0949987  69.8255006 119.1995017
  29.8979987  70.7525006 119.1995017  32.7839987  68.3125006 134.1765017
  33.7409987  68.3125006 134.1765017  32.5439987  69.2395006 134.1765017
  25.9179987  66.7405006 121.8255017  26.8749987  66.7405006 121.8255017
  25.6779987  67.6675006 121.8255017  25.2199987  64.5805006 134.1575017
  26.1769987  64.5805006 134.1575017  24.9799987  65.5075006 134.1575017
  26.9899987  64.9625006 120.0455017  27.9469987  64.9625006 120.0455017
  26.7499987  65.8895006 120.0455017  36.3379987  67.2915006 119.4905017
  37.2949987  67.2915006 119.4905017  36.0979987  68.2185006 119.4905017
  25.3909987  62.0265006 135.0735017  26.3479987  62.0265006 135.0735017
  25.1509987  62.9535006 135.0735017  25.9809987  60.3055006 132.7665017
  26.9379987  60.3055006 132.7665017  25.7409987  61.2325006 132.7665017
  27.5489987  65.7775006 132.9775017  28.5059987  65.7775006 132.9775017
  27.3089987  66.7045006 132.9775017  33.1339987  66.1695006 135.4975017
  34.0909987  66.1695006 135.4975017  32.8939987  67.0965006 135.4975017
  26.7769987  57.7705006 133.1785017  27.7339987  57.7705006 133.1785017
  26.5369987  58.6975006 133.1785017  30.7729987  61.1725006 135.7915017
  31.7299987  61.1725006 135.7915017  30.5329987  62.0995006 135.7915017
  27.0029987  57.1095006 135.8725017  27.9599987  57.1095006 135.8725017
  26.7629987  58.0365006 135.8725017  26.8289987  75.6455006 121.1105017
  27.7859987  75.6455006 121.1105017  26.5889987  76.5725006 121.1105017
  20.4159987  70.2715006 120.5895017  21.3729987  70.2715006 120.5895017
  20.1759987  71.1985006 120.5895017  19.1849987  75.6405006 125.5605017
  20.1419987  75.6405006 125.5605017  18.9449987  76.5675006 125.5605017
  20.0219987  73.7565006 127.4045017  20.9789987  73.7565006 127.4045017
  19.7819987  74.6835006 127.4045017  37.5189987  74.5665006 130.3595017
  38.4759987  74.5665006 130.3595017  37.2789987  75.4935006 130.3595017
  37.1279987  74.1635006 133.3025017  38.0849987  74.1635006 133.3025017
  36.8879987  75.0905006 133.3025017  36.8459987  68.1995006 123.4265017
  37.8029987  68.1995006 123.4265017  36.6059987  69.1265006 123.4265017
  37.2199987  66.2695006 125.2935017  38.1769987  66.2695006 125.2935017
  36.9799987  67.1965006 125.2935017  36.9729987  68.9855006 130.2765017
  37.9299987  68.9855006 130.2765017  36.7329987  69.9125006 130.2765017
  35.5159987  71.8675006 132.5625017  36.4729987  71.8675006 132.5625017
  35.2759987  72.7945006 132.5625017  37.5199987  66.1145006 121.6865017
  38.4769987  66.1145006 121.6865017  37.2799987  67.0415006 121.6865017
  35.8729987  63.3365006 120.2155017  36.8299987  63.3365006 120.2155017
  35.6329987  64.2635006 120.2155017  35.0329987  64.7555006 125.8595017
  35.9899987  64.7555006 125.8595017  34.7929987  65.6825006 125.8595017
  20.0399987  66.8345006 129.9045017  20.9969987  66.8345006 129.9045017
  19.7999987  67.7615006 129.9045017  35.8829987  66.5635006 135.0845017
  36.8399987  66.5635006 135.0845017  35.6429987  67.4905006 135.0845017
  37.4299987  64.6515006 136.1355017  38.3869987  64.6515006 136.1355017
  37.1899987  65.5785006 136.1355017  35.1259987  60.7945006 119.3505017
  36.0829987  60.7945006 119.3505017  34.8859987  61.7215006 119.3505017
  34.6939987  62.3385006 124.2985017  35.6509987  62.3385006 124.2985017
  34.4539987  63.2655006 124.2985017  35.3349987  62.8845006 129.7615017
  36.2919987  62.8845006 129.7615017  35.0949987  63.8115006 129.7615017
  35.4039987  63.6185006 132.5535017  36.3609987  63.6185006 132.5535017
  35.1639987  64.5455006 132.5535017  19.6469987  62.1145006 136.0425017
  20.6039987  62.1145006 136.0425017  19.4069987  63.0415006 136.0425017
  35.3669987  59.6215006 124.3705017  36.3239987  59.6215006 124.3705017
  35.1269987  60.5485006 124.3705017  20.8559987  60.4265006 128.9195017
  21.8129987  60.4265006 128.9195017  20.6159987  61.3535006 128.9195017
  19.1439987  63.4205006 129.9715017  20.1009987  63.4205006 129.9715017
  18.9039987  64.3475006 129.9715017  37.2649987  59.7765006 136.0745017
  38.2219987  59.7765006 136.0745017  37.0249987  60.7035006 136.0745017
  37.1889987  59.6675006 120.9065017  38.1459987  59.6675006 120.9065017
  36.9489987  60.5945006 120.9065017  19.5079987  59.6955006 124.0435017
  20.4649987  59.6955006 124.0435017  19.2679987  60.6225006 124.0435017
  34.2469987  74.6445006 125.9875017  35.2039987  74.6445006 125.9875017
  34.0069987  75.5715006 125.9875017  19.4739987  58.3835006 132.3565017
  20.4309987  58.3835006 132.3565017  19.2339987  59.3105006 132.3565017
  21.6899987  71.6625006 136.4465017  22.6469987  71.6625006 136.4465017
  21.4499987  72.5895006 136.4465017  24.5939987  72.5415006 132.7585017
  25.5509987  72.5415006 132.7585017  24.3539987  73.4685006 132.7585017
  28.8769987  74.1995006 135.4935017  29.8339987  74.1995006 135.4935017
  28.6369987  75.1265006 135.4935017  31.2419987  75.2515006 135.0035017
  32.1989987  75.2515006 135.0035017  31.0019987  76.1785006 135.0035017
  36.2159987  57.8705006 134.0745017  37.1729987  57.8705006 134.0745017
  35.9759987  58.7975006 134.0745017  22.0229987  75.8005006 132.7635017
  22.9799987  75.8005006 132.7635017  21.7829987  76.7275006 132.7635017
  24.4779987  75.3795006 131.8095017  25.4349987  75.3795006 131.8095017
  24.2379987  76.3065006 131.8095017  29.1919987  75.2805006 131.0205017
  30.1489987  75.2805006 131.0205017  28.9519987  76.2075006 131.0205017
  31.4959987  74.1255006 132.0095017  32.4529987  74.1255006 132.0095017
  31.2559987  75.0525006 132.0095017  34.0959987  75.6945006 132.2885017
  35.0529987  75.6945006 132.2885017  33.8559987  76.6215006 132.2885017
  21.4459987  74.4085006 129.7185017  22.4029987  74.4085006 129.7185017
  21.2059987  75.3355006 129.7185017  23.5529987  73.1585006 128.3465017
  24.5099987  73.1585006 128.3465017  23.3129987  74.0855006 128.3465017
  26.1329987  73.6425006 129.2425017  27.0899987  73.6425006 129.2425017
  25.8929987  74.5695006 129.2425017  29.6109987  59.2835006 128.3875017
  30.5679987  59.2835006 128.3875017  29.3709987  60.2105006 128.3875017
  34.7459987  57.3405006 128.4715017  35.7029987  57.3405006 128.4715017
  34.5059987  58.2675006 128.4715017  36.4209987  58.5675006 126.7505017
  37.3779987  58.5675006 126.7505017  36.1809987  59.4945006 126.7505017
  21.9699987  57.9175006 126.2235017  22.9269987  57.9175006 126.2235017
  21.7299987  58.8445006 126.2235017  20.7569987  57.6735006 121.9705017
  21.7139987  57.6735006 121.9705017  20.5169987  58.6005006 121.9705017
  26.4709987  57.8365006 126.0135017  27.4279987  57.8365006 126.0135017
  26.2309987  58.7635006 126.0135017  32.1379987  57.8615006 127.6535017
  33.0949987  57.8615006 127.6535017  31.8979987  58.7885006 127.6535017
  33.4359987  57.8935006 123.3345017  34.3929987  57.8935006 123.3345017
  33.1959987  58.8205006 123.3345017  20.6769987  73.6375006 122.9375017
  21.6339987  73.6375006 122.9375017  20.4369987  74.5645006 122.9375017
  22.5909987  59.6155006 120.4565017  23.5479987  59.6155006 120.4565017
  22.3509987  60.5425006 120.4565017  27.6189987  59.8695006 122.8705017
  28.5759987  59.8695006 122.8705017  27.3789987  60.7965006 122.8705017
  29.5319987  74.9045006 121.3195017  30.4889987  74.9045006 121.3195017
  29.2919987  75.8315006 121.3195017  36.2479987  74.4305006 124.0205017
  37.2049987  74.4305006 124.0205017  36.0079987  75.3575006 124.0205017
  21.8639987  58.4155006 135.6935017  22.8209987  58.4155006 135.6935017
  21.6239987  59.3425006 135.6935017  22.4489987  74.5565006 119.9325017
  23.4059987  74.5565006 119.9325017  22.2089987  75.4835006 119.9325017
  35.6659987  73.2855006 135.8965017  36.6229987  73.2855006 135.8965017
  35.4259987  74.2125006 135.8965017  49.9109987  67.0485006 126.1075017
  50.8679987  67.0485006 126.1075017  49.6709987  67.9755006 126.1075017
  48.7839987  66.3145006 129.5975017  49.7409987  66.3145006 129.5975017
  48.5439987  67.2415006 129.5975017  41.1329987  65.9705006 131.1575017
  42.0899987  65.9705006 131.1575017  40.8929987  66.8975006 131.1575017
  52.4819987  69.2555006 127.8715017  53.4389987  69.2555006 127.8715017
  52.2419987  70.1825006 127.8715017  42.0679987  70.4225006 129.6655017
  43.0249987  70.4225006 129.6655017  41.8279987  71.3495006 129.6655017
  38.7109987  63.9995006 125.1265017  39.6679987  63.9995006 125.1265017
  38.4709987  64.9265006 125.1265017  39.4069987  66.2135006 127.2605017
  40.3639987  66.2135006 127.2605017  39.1669987  67.1405006 127.2605017
  49.5819987  74.4005006 128.1005017  50.5389987  74.4005006 128.1005017
  49.3419987  75.3275006 128.1005017  47.1599987  68.7235006 130.0355017
  48.1169987  68.7235006 130.0355017  46.9199987  69.6505006 130.0355017
  55.7759987  60.3585006 130.8095017  56.7329987  60.3585006 130.8095017
  55.5359987  61.2855006 130.8095017  50.3219987  63.1825006 130.3595017
  51.2789987  63.1825006 130.3595017  50.0819987  64.1095006 130.3595017
  43.4499987  61.2615006 127.5935017  44.4069987  61.2615006 127.5935017
  43.2099987  62.1885006 127.5935017  51.1829987  61.3525006 125.9635017
  52.1399987  61.3525006 125.9635017  50.9429987  62.2795006 125.9635017
  40.0699987  63.6705006 128.3325017  41.0269987  63.6705006 128.3325017
  39.8299987  64.5975006 128.3325017  45.2329987  65.2275006 127.6205017
  46.1899987  65.2275006 127.6205017  44.9929987  66.1545006 127.6205017
  56.2309987  61.8035006 133.0615017  57.1879987  61.8035006 133.0615017
  55.9909987  62.7305006 133.0615017  42.3309987  60.1555006 131.6485017
  43.2879987  60.1555006 131.6485017  42.0909987  61.0825006 131.6485017
  49.6479987  69.6535006 125.1815017  50.6049987  69.6535006 125.1815017
  49.4079987  70.5805006 125.1815017  44.8639987  67.8075006 131.8955017
  45.8209987  67.8075006 131.8955017  44.6239987  68.7345006 131.8955017
  52.9749987  60.6955006 127.9515017  53.9319987  60.6955006 127.9515017
  52.7349987  61.6225006 127.9515017  41.8899987  62.0335006 129.6355017
  42.8469987  62.0335006 129.6355017  41.6499987  62.9605006 129.6355017
  43.2889987  69.8035006 132.6815017  44.2459987  69.8035006 132.6815017
  43.0489987  70.7305006 132.6815017  39.3909987  69.4345006 123.4975017
  40.3479987  69.4345006 123.4975017  39.1509987  70.3615006 123.4975017
  53.0069987  71.0895006 130.2395017  53.9639987  71.0895006 130.2395017
  52.7669987  72.0165006 130.2395017  53.2879987  59.3635006 131.6215017
  54.2449987  59.3635006 131.6215017  53.0479987  60.2905006 131.6215017
  46.3179987  57.4895006 129.1195017  47.2749987  57.4895006 129.1195017
  46.0779987  58.4165006 129.1195017  51.2589987  72.8755006 126.8425017
  52.2159987  72.8755006 126.8425017  51.0189987  73.8025006 126.8425017
  52.4599987  70.8025006 125.3505017  53.4169987  70.8025006 125.3505017
  52.2199987  71.7295006 125.3505017  54.1239987  69.3805006 133.8425017
  55.0809987  69.3805006 133.8425017  53.8839987  70.3075006 133.8425017
  48.5869987  66.2925006 123.6175017  49.5439987  66.2925006 123.6175017
  48.3469987  67.2195006 123.6175017  48.6479987  64.8275006 120.6265017
  49.6049987  64.8275006 120.6265017  48.4079987  65.7545006 120.6265017
  55.9689987  65.6895006 131.8835017  56.9259987  65.6895006 131.8835017
  55.7289987  66.6165006 131.8835017  52.0239987  66.5075006 124.5305017
  52.9809987  66.5075006 124.5305017  51.7839987  67.4345006 124.5305017
  51.9389987  64.6125006 133.5325017  52.8959987  64.6125006 133.5325017
  51.6989987  65.5395006 133.5325017  43.6409987  67.1645006 126.4445017
  44.5979987  67.1645006 126.4445017  43.4009987  68.0915006 126.4445017
  44.9729987  70.5615006 129.1245017  45.9299987  70.5615006 129.1245017
  44.7329987  71.4885006 129.1245017  43.9799987  65.9065006 130.0975017
  44.9369987  65.9065006 130.0975017  43.7399987  66.8335006 130.0975017
  50.3699987  71.4695006 130.8155017  51.3269987  71.4695006 130.8155017
  50.1299987  72.3965006 130.8155017  44.8759987  70.2745006 134.7915017
  45.8329987  70.2745006 134.7915017  44.6359987  71.2015006 134.7915017
  50.8889987  65.6915006 122.2075017  51.8459987  65.6915006 122.2075017
  50.6489987  66.6185006 122.2075017  41.8429987  66.5085006 134.0025017
  42.7999987  66.5085006 134.0025017  41.6029987  67.4355006 134.0025017
  48.6099987  72.4185006 125.6695017  49.5669987  72.4185006 125.6695017
  48.3699987  73.3455006 125.6695017  43.1369987  72.3345006 135.5835017
  44.0939987  72.3345006 135.5835017  42.8969987  73.2615006 135.5835017
  54.6149987  57.4255006 122.0775017  55.5719987  57.4255006 122.0775017
  54.3749987  58.3525006 122.0775017  42.6169987  66.1905006 124.0595017
  43.5739987  66.1905006 124.0595017  42.3769987  67.1175006 124.0595017
  55.7419987  71.7745006 120.4575017  56.6989987  71.7745006 120.4575017
  55.5019987  72.7015006 120.4575017  38.7169987  68.6105006 132.9035017
  39.6739987  68.6105006 132.9035017  38.4769987  69.5375006 132.9035017
  38.4649987  71.3465006 129.7305017  39.4219987  71.3465006 129.7305017
  38.2249987  72.2735006 129.7305017  56.7479987  72.0215006 135.3605017
  57.7049987  72.0215006 135.3605017  56.5079987  72.9485006 135.3605017
  47.6809987  71.6215006 134.2615017  48.6379987  71.6215006 134.2615017
  47.4409987  72.5485006 134.2615017  48.0689987  75.3375006 124.0855017
  49.0259987  75.3375006 124.0855017  47.8289987  76.2645006 124.0855017
  41.7409987  74.2065006 125.8855017  42.6979987  74.2065006 125.8855017
  41.5009987  75.1335006 125.8855017  51.1449987  74.5425006 121.0695017
  52.1019987  74.5425006 121.0695017  50.9049987  75.4695006 121.0695017
  50.8439987  74.4735006 123.8325017  51.8009987  74.4735006 123.8325017
  50.6039987  75.4005006 123.8325017  53.8489987  63.5575006 135.6805017
  54.8059987  63.5575006 135.6805017  53.6089987  64.4845006 135.6805017
  40.9739987  69.9155006 133.9045017  41.9309987  69.9155006 133.9045017
  40.7339987  70.8425006 133.9045017  43.6499987  58.3905006 129.8555017
  44.6069987  58.3905006 129.8555017  43.4099987  59.3175006 129.8555017
  48.3039987  58.0605006 133.2535017  49.2609987  58.0605006 133.2535017
  48.0639987  58.9875006 133.2535017  51.5569987  61.8705006 134.0795017
  52.5139987  61.8705006 134.0795017  51.3169987  62.7975006 134.0795017
  52.3429987  66.7275006 119.9565017  53.2999987  66.7275006 119.9565017
  52.1029987  67.6545006 119.9565017  47.9459987  60.6365006 120.5185017
  48.9029987  60.6365006 120.5185017  47.7059987  61.5635006 120.5185017
  43.7379987  63.3505006 131.0435017  44.6949987  63.3505006 131.0435017
  43.4979987  64.2775006 131.0435017  43.7139987  63.5175006 125.9465017
  44.6709987  63.5175006 125.9465017  43.4739987  64.4445006 125.9465017
  49.2339987  63.9815006 124.7415017  50.1909987  63.9815006 124.7415017
  48.9939987  64.9085006 124.7415017  48.2969987  63.9695006 135.9695017
  49.2539987  63.9695006 135.9695017  48.0569987  64.8965006 135.9695017
  50.2649987  63.4665006 127.5685017  51.2219987  63.4665006 127.5685017
  50.0249987  64.3935006 127.5685017  41.4229987  63.6365006 132.8295017
  42.3799987  63.6365006 132.8295017  41.1829987  64.5635006 132.8295017
  44.7799987  61.0265006 119.6365017  45.7369987  61.0265006 119.6365017
  44.5399987  61.9535006 119.6365017  38.0399987  60.7535006 126.7445017
  38.9969987  60.7535006 126.7445017  37.7999987  61.6805006 126.7445017
  39.3179987  61.4635006 122.1255017  40.2749987  61.4635006 122.1255017
  39.0779987  62.3905006 122.1255017  49.4829987  65.0805006 132.1855017
  50.4399987  65.0805006 132.1855017  49.2429987  66.0075006 132.1855017
  46.2709987  61.0255006 126.9795017  47.2279987  61.0255006 126.9795017
  46.0309987  61.9525006 126.9795017  41.0939987  62.6025006 125.8315017
  42.0509987  62.6025006 125.8315017  40.8539987  63.5295006 125.8315017
  44.7399987  62.6275006 123.4575017  45.6969987  62.6275006 123.4575017
  44.4999987  63.5545006 123.4575017  50.6849987  60.2065006 130.2385017
  51.6419987  60.2065006 130.2385017  50.4449987  61.1335006 130.2385017
  43.4299987  63.8165006 121.0495017  44.3869987  63.8165006 121.0495017
  43.1899987  64.7435006 121.0495017  53.9329987  75.9105006 136.4965017
  54.8899987  75.9105006 136.4965017  53.6929987  76.8375006 136.4965017
  41.4149987  68.3995006 136.0715017  42.3719987  68.3995006 136.0715017
  41.1749987  69.3265006 136.0715017  47.5669987  63.7935006 128.8645017
  48.5239987  63.7935006 128.8645017  47.3269987  64.7205006 128.8645017
  42.5769987  59.9405006 125.2985017  43.5339987  59.9405006 125.2985017
  42.3369987  60.8675006 125.2985017  46.2029987  62.1265006 131.2775017
  47.1599987  62.1265006 131.2775017  45.9629987  63.0535006 131.2775017
  46.7909987  68.3605006 122.9675017  47.7479987  68.3605006 122.9675017
  46.5509987  69.2875006 122.9675017  53.9459987  67.5465006 131.7765017
  54.9029987  67.5465006 131.7765017  53.7059987  68.4735006 131.7765017
  50.6309987  61.1715006 121.1505017  51.5879987  61.1715006 121.1505017
  50.3909987  62.0985006 121.1505017  48.2409987  68.6005006 134.1485017
  49.1979987  68.6005006 134.1485017  48.0009987  69.5275006 134.1485017
  51.3599987  63.0735006 122.7935017  52.3169987  63.0735006 122.7935017
  51.1199987  64.0005006 122.7935017  41.8939987  67.7265006 128.7675017
  42.8509987  67.7265006 128.7675017  41.6539987  68.6535006 128.7675017
  48.8969987  69.8245006 122.0005017  49.8539987  69.8245006 122.0005017
  48.6569987  70.7515006 122.0005017  38.8879987  66.1525006 134.0275017
  39.8449987  66.1525006 134.0275017  38.6479987  67.0795006 134.0275017
  46.0549987  66.0595006 135.7735017  47.0119987  66.0595006 135.7735017
  45.8149987  66.9865006 135.7735017  50.5799987  71.0565006 134.1745017
  51.5369987  71.0565006 134.1745017  50.3399987  71.9835006 134.1745017
  56.2659987  63.2265006 122.5475017  57.2229987  63.2265006 122.5475017
  56.0259987  64.1535006 122.5475017  56.2259987  69.0775006 135.3475017
  57.1829987  69.0775006 135.3475017  55.9859987  70.0045006 135.3475017
  54.5279987  72.0565006 122.9605017  55.4849987  72.0565006 122.9605017
  54.2879987  72.9835006 122.9605017  51.7389987  66.8865006 130.0155017
  52.6959987  66.8865006 130.0155017  51.4989987  67.8135006 130.0155017
  44.2679987  71.1855006 126.1595017  45.2249987  71.1855006 126.1595017
  44.0279987  72.1125006 126.1595017  40.0209987  66.0565006 120.6955017
  40.9779987  66.0565006 120.6955017  39.7809987  66.9835006 120.6955017
  45.6929987  68.8575006 125.6805017  46.6499987  68.8575006 125.6805017
  45.4529987  69.7845006 125.6805017  46.1469987  73.0375006 132.0465017
  47.1039987  73.0375006 132.0465017  45.9069987  73.9645006 132.0465017
  44.3659987  73.8935006 125.1715017  45.3229987  73.8935006 125.1715017
  44.1259987  74.8205006 125.1715017  49.7069987  69.0775006 131.7095017
  50.6639987  69.0775006 131.7095017  49.4669987  70.0045006 131.7095017
  51.9829987  70.1005006 120.7925017  52.9399987  70.1005006 120.7925017
  51.7429987  71.0275006 120.7925017  52.4099987  73.6505006 134.2055017
  53.3669987  73.6505006 134.2055017  52.1699987  74.5775006 134.2055017
  56.4629987  74.4755006 121.0485017  57.4199987  74.4755006 121.0485017
  56.2229987  75.4025006 121.0485017  40.5419987  60.9075006 133.6345017
  41.4989987  60.9075006 133.6345017  40.3019987  61.8345006 133.6345017
  52.7799987  68.7435006 123.0275017  53.7369987  68.7435006 123.0275017
  52.5399987  69.6705006 123.0275017  40.1699987  72.6865006 132.0055017
  41.1269987  72.6865006 132.0055017  39.9299987  73.6135006 132.0055017
  46.1029987  71.1855006 119.2735017  47.0599987  71.1855006 119.2735017
  45.8629987  72.1125006 119.2735017  44.9169987  70.7255006 121.7305017
  45.8739987  70.7255006 121.7305017  44.6769987  71.6525006 121.7305017
  41.4359987  67.9615006 122.2195017  42.3929987  67.9615006 122.2195017
  41.1959987  68.8885006 122.2195017  49.3129987  60.6135006 132.5025017
  50.2699987  60.6135006 132.5025017  49.0729987  61.5405006 132.5025017
  50.0269987  60.2345006 123.6195017  50.9839987  60.2345006 123.6195017
  49.7869987  61.1615006 123.6195017  47.7049987  72.3945006 122.4495017
  48.6619987  72.3945006 122.4495017  47.4649987  73.3215006 122.4495017
  47.2439987  61.9885006 124.4435017  48.2009987  61.9885006 124.4435017
  47.0039987  62.9155006 124.4435017  47.8019987  62.9925006 133.5695017
  48.7589987  62.9925006 133.5695017  47.5619987  63.9195006 133.5695017
  48.1059987  59.0475006 125.3555017  49.0629987  59.0475006 125.3555017
  47.8659987  59.9745006 125.3555017  45.0519987  73.4395006 122.4515017
  46.0089987  73.4395006 122.4515017  44.8119987  74.3665006 122.4515017
  43.7559987  60.1385006 122.0475017  44.7129987  60.1385006 122.0475017
  43.5159987  61.0655006 122.0475017  53.9699987  60.8185006 134.3955017
  54.9269987  60.8185006 134.3955017  53.7299987  61.7455006 134.3955017
  52.5879987  64.6615006 128.5095017  53.5449987  64.6615006 128.5095017
  52.3479987  65.5885006 128.5095017  41.9959987  70.5725006 121.0995017
  42.9529987  70.5725006 121.0995017  41.7559987  71.4995006 121.0995017
  40.3349987  63.2465006 120.2425017  41.2919987  63.2465006 120.2425017
  40.0949987  64.1735006 120.2425017  53.6539987  73.9055006 130.1545017
  54.6109987  73.9055006 130.1545017  53.4139987  74.8325006 130.1545017
  41.1529987  58.0395006 128.9535017  42.1099987  58.0395006 128.9535017
  40.9129987  58.9665006 128.9535017  40.1019987  71.9545006 125.1065017
  41.0589987  71.9545006 125.1065017  39.8619987  72.8815006 125.1065017
  39.2049987  74.6695006 136.3205017  40.1619987  74.6695006 136.3205017
  38.9649987  75.5965006 136.3205017  48.1109987  73.0405006 119.4075017
  49.0679987  73.0405006 119.4075017  47.8709987  73.9675006 119.4075017
  52.6749987  72.7995006 119.6135017  53.6319987  72.7995006 119.6135017
  52.4349987  73.7265006 119.6135017  43.5789987  68.7345006 119.4385017
  44.5359987  68.7345006 119.4385017  43.3389987  69.6615006 119.4385017
  48.9949987  69.8255006 119.1995017  49.9519987  69.8255006 119.1995017
  48.7549987  70.7525006 119.1995017  51.6379987  68.3085006 134.1735017
  52.5949987  68.3085006 134.1735017  51.3979987  69.2355006 134.1735017
  44.7749987  66.7405006 121.8265017  45.7319987  66.7405006 121.8265017
  44.5349987  67.6675006 121.8265017  44.0749987  64.5795006 134.1575017
  45.0319987  64.5795006 134.1575017  43.8349987  65.5065006 134.1575017
  45.8449987  64.9625006 120.0485017  46.8019987  64.9625006 120.0485017
  45.6049987  65.8895006 120.0485017  55.1949987  67.2935006 119.4875017
  56.1519987  67.2935006 119.4875017  54.9549987  68.2205006 119.4875017
  44.2449987  62.0245006 135.0745017  45.2019987  62.0245006 135.0745017
  44.0049987  62.9515006 135.0745017  44.8369987  60.3045006 132.7665017
  45.7939987  60.3045006 132.7665017  44.5969987  61.2315006 132.7665017
  46.4049987  65.7775006 132.9775017  47.3619987  65.7775006 132.9775017
  46.1649987  66.7045006 132.9775017  51.9899987  66.1685006 135.4985017
  52.9469987  66.1685006 135.4985017  51.7499987  67.0955006 135.4985017
  45.6549987  57.7735006 133.1615017  46.6119987  57.7735006 133.1615017
  45.4149987  58.7005006 133.1615017  49.6189987  61.1505006 135.7715017
  50.5759987  61.1505006 135.7715017  49.3789987  62.0775006 135.7715017
  45.8759987  57.1365006 135.8485017  46.8329987  57.1365006 135.8485017
  45.6359987  58.0635006 135.8485017  45.6909987  75.7005006 121.1335017
  46.6479987  75.7005006 121.1335017  45.4509987  76.6275006 121.1335017
  39.2559987  70.2635006 120.5795017  40.2129987  70.2635006 120.5795017
  39.0159987  71.1905006 120.5795017  38.0099987  75.6445006 125.5675017
  38.9669987  75.6445006 125.5675017  37.7699987  76.5715006 125.5675017
  38.8399987  73.7615006 127.4215017  39.7969987  73.7615006 127.4215017
  38.5999987  74.6885006 127.4215017  56.3749987  74.5635006 130.3645017
  57.3319987  74.5635006 130.3645017  56.1349987  75.4905006 130.3645017
  55.9779987  74.1545006 133.2885017  56.9349987  74.1545006 133.2885017
  55.7379987  75.0815006 133.2885017  55.7019987  68.1995006 123.4265017
  56.6589987  68.1995006 123.4265017  55.4619987  69.1265006 123.4265017
  56.0749987  66.2705006 125.2935017  57.0319987  66.2705006 125.2935017
  55.8349987  67.1975006 125.2935017  55.8279987  68.9825006 130.2715017
  56.7849987  68.9825006 130.2715017  55.5879987  69.9095006 130.2715017
  54.3709987  71.8675006 132.5625017  55.3279987  71.8675006 132.5625017
  54.1309987  72.7945006 132.5625017  56.3739987  66.1065006 121.6925017
  57.3309987  66.1065006 121.6925017  56.1339987  67.0335006 121.6925017
  54.7409987  63.3445006 120.2135017  55.6979987  63.3445006 120.2135017
  54.5009987  64.2715006 120.2135017  53.8889987  64.7555006 125.8595017
  54.8459987  64.7555006 125.8595017  53.6489987  65.6825006 125.8595017
  38.8959987  66.8345006 129.9045017  39.8529987  66.8345006 129.9045017
  38.6559987  67.7615006 129.9045017  54.7369987  66.5655006 135.0835017
  55.6939987  66.5655006 135.0835017  54.4969987  67.4925006 135.0835017
  56.2809987  64.6535006 136.1075017  57.2379987  64.6535006 136.1075017
  56.0409987  65.5805006 136.1075017  53.9809987  60.8015006 119.3455017
  54.9379987  60.8015006 119.3455017  53.7409987  61.7285006 119.3455017
  53.5489987  62.3385006 124.2955017  54.5059987  62.3385006 124.2955017
  53.3089987  63.2655006 124.2955017  54.1899987  62.8855006 129.7605017
  55.1469987  62.8855006 129.7605017  53.9499987  63.8125006 129.7605017
  54.2589987  63.6165006 132.5545017  55.2159987  63.6165006 132.5545017
  54.0189987  64.5435006 132.5545017  38.5079987  62.1285006 136.0825017
  39.4649987  62.1285006 136.0825017  38.2679987  63.0555006 136.0825017
  54.2229987  59.6215006 124.3705017  55.1799987  59.6215006 124.3705017
  53.9829987  60.5485006 124.3705017  39.7129987  60.4265006 128.9195017
  40.6699987  60.4265006 128.9195017  39.4729987  61.3535006 128.9195017
  38.0009987  63.4205006 129.9715017  38.9579987  63.4205006 129.9715017
  37.7609987  64.3475006 129.9715017  56.1239987  59.7725006 136.0765017
  57.0809987  59.7725006 136.0765017  55.8839987  60.6995006 136.0765017
  56.0509987  59.6605006 120.9235017  57.0079987  59.6605006 120.9235017
  55.8109987  60.5875006 120.9235017  38.3669987  59.6985006 124.0425017
  39.3239987  59.6985006 124.0425017  38.1269987  60.6255006 124.0425017
  53.0939987  74.6505006 125.9845017  54.0509987  74.6505006 125.9845017
  52.8539987  75.5775006 125.9845017  38.3299987  58.3835006 132.3565017
  39.2869987  58.3835006 132.3565017  38.0899987  59.3105006 132.3565017
  40.5489987  71.6625006 136.4465017  41.5059987  71.6625006 136.4465017
  40.3089987  72.5895006 136.4465017  43.4479987  72.5475006 132.7655017
  44.4049987  72.5475006 132.7655017  43.2079987  73.4745006 132.7655017
  47.7329987  74.2015006 135.4935017  48.6899987  74.2015006 135.4935017
  47.4929987  75.1285006 135.4935017  50.0969987  75.2495006 135.0025017
  51.0539987  75.2495006 135.0025017  49.8569987  76.1765006 135.0025017
  55.0579987  57.8655006 134.0855017  56.0149987  57.8655006 134.0855017
  54.8179987  58.7925006 134.0855017  40.8739987  75.8115006 132.7915017
  41.8309987  75.8115006 132.7915017  40.6339987  76.7385006 132.7915017
  43.3379987  75.3715006 131.8155017  44.2949987  75.3715006 131.8155017
  43.0979987  76.2985006 131.8155017  48.0499987  75.2825006 131.0195017
  49.0069987  75.2825006 131.0195017  47.8099987  76.2095006 131.0195017
  50.3509987  74.1255006 132.0095017  51.3079987  74.1255006 132.0095017
  50.1109987  75.0525006 132.0095017  52.9299987  75.6915006 132.2795017
  53.8869987  75.6915006 132.2795017  52.6899987  76.6185006 132.2795017
  40.3089987  74.4415006 129.7155017  41.2659987  74.4415006 129.7155017
  40.0689987  75.3685006 129.7155017  42.4059987  73.1535006 128.3675017
  43.3629987  73.1535006 128.3675017  42.1659987  74.0805006 128.3675017
  44.9969987  73.6355006 129.2425017  45.9539987  73.6355006 129.2425017
  44.7569987  74.5625006 129.2425017  48.4829987  59.2785006 128.4095017
  49.4399987  59.2785006 128.4095017  48.2429987  60.2055006 128.4095017
  53.5929987  57.3595006 128.4905017  54.5499987  57.3595006 128.4905017
  53.3529987  58.2865006 128.4905017  55.2809987  58.5645006 126.7545017
  56.2379987  58.5645006 126.7545017  55.0409987  59.4915006 126.7545017
  40.8269987  57.9175006 126.2225017  41.7839987  57.9175006 126.2225017
  40.5869987  58.8445006 126.2225017  39.6129987  57.6755006 121.9695017
  40.5699987  57.6755006 121.9695017  39.3729987  58.6025006 121.9695017
  45.3269987  57.8365006 126.0135017  46.2839987  57.8365006 126.0135017
  45.0869987  58.7635006 126.0135017  50.9949987  57.8585006 127.6685017
  51.9519987  57.8585006 127.6685017  50.7549987  58.7855006 127.6685017
  52.2919987  57.8925006 123.3345017  53.2489987  57.8925006 123.3345017
  52.0519987  58.8195006 123.3345017  39.5519987  73.6355006 122.9385017
  40.5089987  73.6355006 122.9385017  39.3119987  74.5625006 122.9385017
  41.4479987  59.6195006 120.4475017  42.4049987  59.6195006 120.4475017
  41.2079987  60.5465006 120.4475017  46.4749987  59.8695006 122.8705017
  47.4319987  59.8695006 122.8705017  46.2349987  60.7965006 122.8705017
  48.3709987  74.9225006 121.3125017  49.3279987  74.9225006 121.3125017
  48.1309987  75.8495006 121.3125017  55.1019987  74.4315006 124.0215017
  56.0589987  74.4315006 124.0215017  54.8619987  75.3585006 124.0215017
  40.7079987  58.4245006 135.6895017  41.6649987  58.4245006 135.6895017
  40.4679987  59.3515006 135.6895017  41.3609987  74.6385006 119.9225017
  42.3179987  74.6385006 119.9225017  41.1209987  75.5655006 119.9225017
  54.5189987  73.2795006 135.9015017  55.4759987  73.2795006 135.9015017
  54.2789987  74.2065006 135.9015017  68.7639987  67.0655006 126.1085017
  69.7209987  67.0655006 126.1085017  68.5239987  67.9925006 126.1085017
  67.6129987  66.3275006 129.6055017  68.5699987  66.3275006 129.6055017
  67.3729987  67.2545006 129.6055017  59.9889987  65.9715006 131.1575017
  60.9459987  65.9715006 131.1575017  59.7489987  66.8985006 131.1575017
  71.3369987  69.2525006 127.8715017  72.2939987  69.2525006 127.8715017
  71.0969987  70.1795006 127.8715017  60.9239987  70.4225006 129.6655017
  61.8809987  70.4225006 129.6655017  60.6839987  71.3495006 129.6655017
  57.5669987  63.9995006 125.1275017  58.5239987  63.9995006 125.1275017
  57.3269987  64.9265006 125.1275017  58.2629987  66.2135006 127.2605017
  59.2199987  66.2135006 127.2605017  58.0229987  67.1405006 127.2605017
  68.4399987  74.4065006 128.1015017  69.3969987  74.4065006 128.1015017
  68.1999987  75.3335006 128.1015017  66.0189987  68.7215006 130.0325017
  66.9759987  68.7215006 130.0325017  65.7789987  69.6485006 130.0325017
  74.6649987  60.3695006 130.8645017  75.6219987  60.3695006 130.8645017
  74.4249987  61.2965006 130.8645017  69.1519987  63.1775006 130.3615017
  70.1089987  63.1775006 130.3615017  68.9119987  64.1045006 130.3615017
  62.3049987  61.2625006 127.5935017  63.2619987  61.2625006 127.5935017
  62.0649987  62.1895006 127.5935017  69.9939987  61.2025006 125.8335017
  70.9509987  61.2025006 125.8335017  69.7539987  62.1295006 125.8335017
  58.9259987  63.6695006 128.3345017  59.8829987  63.6695006 128.3345017
  58.6859987  64.5965006 128.3345017  64.0889987  65.2275006 127.6205017
  65.0459987  65.2275006 127.6205017  63.8489987  66.1545006 127.6205017
  75.0679987  61.7925006 133.0515017  76.0249987  61.7925006 133.0515017
  74.8279987  62.7195006 133.0515017  61.1869987  60.1555006 131.6495017
  62.1439987  60.1555006 131.6495017  60.9469987  61.0825006 131.6495017
  68.5049987  69.6525006 125.1815017  69.4619987  69.6525006 125.1815017
  68.2649987  70.5795006 125.1815017  63.7199987  67.8075006 131.8955017
  64.6769987  67.8075006 131.8955017  63.4799987  68.7345006 131.8955017
  72.1369987  60.0635006 128.0485017  73.0939987  60.0635006 128.0485017
  71.8969987  60.9905006 128.0485017  60.7449987  62.0325006 129.6345017
  61.7019987  62.0325006 129.6345017  60.5049987  62.9595006 129.6345017
  62.1459987  69.8035006 132.6815017  63.1029987  69.8035006 132.6815017
  61.9059987  70.7305006 132.6815017  58.2459987  69.4355006 123.4965017
  59.2029987  69.4355006 123.4965017  58.0059987  70.3625006 123.4965017
  71.8629987  71.0905006 130.2395017  72.8199987  71.0905006 130.2395017
  71.6229987  72.0175006 130.2395017  72.1639987  59.3665006 131.6165017
  73.1209987  59.3665006 131.6165017  71.9239987  60.2935006 131.6165017
  65.1589987  57.4915006 129.0975017  66.1159987  57.4915006 129.0975017
  64.9189987  58.4185006 129.0975017  70.1239987  72.8635006 126.8505017
  71.0809987  72.8635006 126.8505017  69.8839987  73.7905006 126.8505017
  71.3159987  70.7995006 125.3535017  72.2729987  70.7995006 125.3535017
  71.0759987  71.7265006 125.3535017  72.9819987  69.3805006 133.8435017
  73.9389987  69.3805006 133.8435017  72.7419987  70.3075006 133.8435017
  67.4439987  66.2945006 123.6185017  68.4009987  66.2945006 123.6185017
  67.2039987  67.2215006 123.6185017  67.5009987  64.8195006 120.6365017
  68.4579987  64.8195006 120.6365017  67.2609987  65.7465006 120.6365017
  74.8219987  65.6885006 131.8795017  75.7789987  65.6885006 131.8795017
  74.5819987  66.6155006 131.8795017  70.8769987  66.5175006 124.5265017
  71.8339987  66.5175006 124.5265017  70.6369987  67.4445006 124.5265017
  70.7949987  64.6125006 133.5305017  71.7519987  64.6125006 133.5305017
  70.5549987  65.5395006 133.5305017  62.4969987  67.1645006 126.4445017
  63.4539987  67.1645006 126.4445017  62.2569987  68.0915006 126.4445017
  63.8289987  70.5615006 129.1255017  64.7859987  70.5615006 129.1255017
  63.5889987  71.4885006 129.1255017  62.8359987  65.9065006 130.0975017
  63.7929987  65.9065006 130.0975017  62.5959987  66.8335006 130.0975017
  69.2259987  71.4705006 130.8155017  70.1829987  71.4705006 130.8155017
  68.9859987  72.3975006 130.8155017  63.7319987  70.2745006 134.7925017
  64.6889987  70.2745006 134.7925017  63.4919987  71.2015006 134.7925017
  69.7479987  65.6905006 122.2105017  70.7049987  65.6905006 122.2105017
  69.5079987  66.6175006 122.2105017  60.6989987  66.5095006 134.0015017
  61.6559987  66.5095006 134.0015017  60.4589987  67.4365006 134.0015017
  67.4629987  72.4245006 125.6655017  68.4199987  72.4245006 125.6655017
  67.2229987  73.3515006 125.6655017  61.9929987  72.3345006 135.5835017
  62.9499987  72.3345006 135.5835017  61.7529987  73.2615006 135.5835017
  73.4709987  57.4255006 122.0765017  74.4279987  57.4255006 122.0765017
  73.2309987  58.3525006 122.0765017  61.4729987  66.1905006 124.0595017
  62.4299987  66.1905006 124.0595017  61.2329987  67.1175006 124.0595017
  74.5849987  71.7825006 120.4365017  75.5419987  71.7825006 120.4365017
  74.3449987  72.7095006 120.4365017  57.5719987  68.6125006 132.8945017
  58.5289987  68.6125006 132.8945017  57.3319987  69.5395006 132.8945017
  57.3209987  71.3465006 129.7295017  58.2779987  71.3465006 129.7295017
  57.0809987  72.2735006 129.7295017  75.6039987  72.0215006 135.3605017
  76.5609987  72.0215006 135.3605017  75.3639987  72.9485006 135.3605017
  66.5369987  71.6215006 134.2615017  67.4939987  71.6215006 134.2615017
  66.2969987  72.5485006 134.2615017  66.9539987  75.3445006 124.0865017
  67.9109987  75.3445006 124.0865017  66.7139987  76.2715006 124.0865017
  60.5859987  74.2075006 125.8965017  61.5429987  74.2075006 125.8965017
  60.3459987  75.1345006 125.8965017  70.0159987  74.5555006 121.0695017
  70.9729987  74.5555006 121.0695017  69.7759987  75.4825006 121.0695017
  69.6969987  74.4705006 123.8315017  70.6539987  74.4705006 123.8315017
  69.4569987  75.3975006 123.8315017  72.6989987  63.5585006 135.6875017
  73.6559987  63.5585006 135.6875017  72.4589987  64.4855006 135.6875017
  59.8319987  69.9075006 133.9005017  60.7889987  69.9075006 133.9005017
  59.5919987  70.8345006 133.9005017  62.5069987  58.3905006 129.8565017
  63.4639987  58.3905006 129.8565017  62.2669987  59.3175006 129.8565017
  67.1459987  58.0915006 133.2455017  68.1029987  58.0915006 133.2455017
  66.9059987  59.0185006 133.2455017  70.4309987  61.8855006 134.0865017
  71.3879987  61.8855006 134.0865017  70.1909987  62.8125006 134.0865017
  71.2089987  66.7115006 119.9665017  72.1659987  66.7115006 119.9665017
  70.9689987  67.6385006 119.9665017  66.8019987  60.6375006 120.5195017
  67.7589987  60.6375006 120.5195017  66.5619987  61.5645006 120.5195017
  62.5919987  63.3505006 131.0445017  63.5489987  63.3505006 131.0445017
  62.3519987  64.2775006 131.0445017  62.5699987  63.5175006 125.9465017
  63.5269987  63.5175006 125.9465017  62.3299987  64.4445006 125.9465017
  68.0839987  63.9745006 124.7305017  69.0409987  63.9745006 124.7305017
  67.8439987  64.9015006 124.7305017  67.1519987  63.9705006 135.9695017
  68.1089987  63.9705006 135.9695017  66.9119987  64.8975006 135.9695017
  68.8739987  63.4535006 127.5645017  69.8309987  63.4535006 127.5645017
  68.6339987  64.3805006 127.5645017  60.2729987  63.6355006 132.8135017
  61.2299987  63.6355006 132.8135017  60.0329987  64.5625006 132.8135017
  63.6359987  61.0265006 119.6365017  64.5929987  61.0265006 119.6365017
  63.3959987  61.9535006 119.6365017  56.8959987  60.7535006 126.7445017
  57.8529987  60.7535006 126.7445017  56.6559987  61.6805006 126.7445017
  58.1709987  61.4665006 122.1195017  59.1279987  61.4665006 122.1195017
  57.9309987  62.3935006 122.1195017  68.3429987  65.0775006 132.1825017
  69.2999987  65.0775006 132.1825017  68.1029987  66.0045006 132.1825017
  65.1309987  61.0245006 126.9775017  66.0879987  61.0245006 126.9775017
  64.8909987  61.9515006 126.9775017  59.9499987  62.6025006 125.8315017
  60.9069987  62.6025006 125.8315017  59.7099987  63.5295006 125.8315017
  63.5999987  62.6275006 123.4595017  64.5569987  62.6275006 123.4595017
  63.3599987  63.5545006 123.4595017  69.5599987  60.2355006 130.2105017
  70.5169987  60.2355006 130.2105017  69.3199987  61.1625006 130.2105017
  62.2869987  63.8175006 121.0515017  63.2439987  63.8175006 121.0515017
  62.0469987  64.7445006 121.0515017  72.7889987  75.9105006 136.4965017
  73.7459987  75.9105006 136.4965017  72.5489987  76.8375006 136.4965017
  60.2719987  68.4005006 136.0705017  61.2289987  68.4005006 136.0705017
  60.0319987  69.3275006 136.0705017  66.3929987  63.7905006 128.8635017
  67.3499987  63.7905006 128.8635017  66.1529987  64.7175006 128.8635017
  61.4329987  59.9405006 125.2985017  62.3899987  59.9405006 125.2985017
  61.1929987  60.8675006 125.2985017  65.0579987  62.1235006 131.2795017
  66.0149987  62.1235006 131.2795017  64.8179987  63.0505006 131.2795017
  65.6489987  68.3595006 122.9675017  66.6059987  68.3595006 122.9675017
  65.4089987  69.2865006 122.9675017  72.8029987  67.5475006 131.7775017
  73.7599987  67.5475006 131.7775017  72.5629987  68.4745006 131.7775017
  69.4869987  61.1715006 121.1455017  70.4439987  61.1715006 121.1455017
  69.2469987  62.0985006 121.1455017  67.0969987  68.6005006 134.1485017
  68.0539987  68.6005006 134.1485017  66.8569987  69.5275006 134.1485017
  70.2179987  63.0645006 122.7835017  71.1749987  63.0645006 122.7835017
  69.9779987  63.9915006 122.7835017  60.7509987  67.7265006 128.7685017
  61.7079987  67.7265006 128.7685017  60.5109987  68.6535006 128.7685017
  67.7499987  69.8245006 122.0015017  68.7069987  69.8245006 122.0015017
  67.5099987  70.7515006 122.0015017  57.7459987  66.1515006 134.0335017
  58.7029987  66.1515006 134.0335017  57.5059987  67.0785006 134.0335017
  64.9109987  66.0625006 135.7685017  65.8679987  66.0625006 135.7685017
  64.6709987  66.9895006 135.7685017  69.4349987  71.0635006 134.1785017
  70.3919987  71.0635006 134.1785017  69.1949987  71.9905006 134.1785017
  75.1339987  63.2265006 122.5345017  76.0909987  63.2265006 122.5345017
  74.8939987  64.1535006 122.5345017  75.0849987  69.0775006 135.3505017
  76.0419987  69.0775006 135.3505017  74.8449987  70.0045006 135.3505017
  73.3819987  72.0555006 122.9595017  74.3389987  72.0555006 122.9595017
  73.1419987  72.9825006 122.9595017  70.5659987  66.9535006 130.0685017
  71.5229987  66.9535006 130.0685017  70.3259987  67.8805006 130.0685017
  63.1279987  71.1955006 126.1545017  64.0849987  71.1955006 126.1545017
  62.8879987  72.1225006 126.1545017  58.8879987  66.0395006 120.7245017
  59.8449987  66.0395006 120.7245017  58.6479987  66.9665006 120.7245017
  64.5489987  68.8585006 125.6815017  65.5059987  68.8585006 125.6815017
  64.3089987  69.7855006 125.6815017  65.0049987  73.0355006 132.0465017
  65.9619987  73.0355006 132.0465017  64.7649987  73.9625006 132.0465017
  63.2149987  73.8185006 125.2055017  64.1719987  73.8185006 125.2055017
  62.9749987  74.7455006 125.2055017  68.5589987  69.0895006 131.7185017
  69.5159987  69.0895006 131.7185017  68.3189987  70.0165006 131.7185017
  70.8369987  70.0965006 120.7845017  71.7939987  70.0965006 120.7845017
  70.5969987  71.0235006 120.7845017  71.2659987  73.6505006 134.2055017
  72.2229987  73.6505006 134.2055017  71.0259987  74.5775006 134.2055017
  75.3309987  74.4755006 121.0605017  76.2879987  74.4755006 121.0605017
  75.0909987  75.4025006 121.0605017  59.3969987  60.9105006 133.6425017
  60.3539987  60.9105006 133.6425017  59.1569987  61.8375006 133.6425017
  71.6359987  68.7485006 123.0265017  72.5929987  68.7485006 123.0265017
  71.3959987  69.6755006 123.0265017  59.0309987  72.6805006 132.0025017
  59.9879987  72.6805006 132.0025017  58.7909987  73.6075006 132.0025017
  64.9639987  71.1835006 119.2835017  65.9209987  71.1835006 119.2835017
  64.7239987  72.1105006 119.2835017  63.7779987  70.7155006 121.7295017
  64.7349987  70.7155006 121.7295017  63.5379987  71.6425006 121.7295017
  60.2919987  67.9625006 122.2195017  61.2489987  67.9625006 122.2195017
  60.0519987  68.8895006 122.2195017  68.1509987  60.6435006 132.5055017
  69.1079987  60.6435006 132.5055017  67.9109987  61.5705006 132.5055017
  68.8769987  60.2285006 123.6065017  69.8339987  60.2285006 123.6065017
  68.6369987  61.1555006 123.6065017  66.5689987  72.3825006 122.4395017
  67.5259987  72.3825006 122.4395017  66.3289987  73.3095006 122.4395017
  66.1039987  61.9925006 124.4445017  67.0609987  61.9925006 124.4445017
  65.8639987  62.9195006 124.4445017  66.6619987  62.9875006 133.5695017
  67.6189987  62.9875006 133.5695017  66.4219987  63.9145006 133.5695017
  66.9629987  59.0515006 125.3495017  67.9199987  59.0515006 125.3495017
  66.7229987  59.9785006 125.3495017  63.9389987  73.4165006 122.4535017
  64.8959987  73.4165006 122.4535017  63.6989987  74.3435006 122.4535017
  62.6139987  60.1385006 122.0485017  63.5709987  60.1385006 122.0485017
  62.3739987  61.0655006 122.0485017  72.8409987  60.8445006 134.4155017
  73.7979987  60.8445006 134.4155017  72.6009987  61.7715006 134.4155017
  71.3369987  64.9225006 128.8265017  72.2939987  64.9225006 128.8265017
  71.0969987  65.8495006 128.8265017  60.8549987  70.5795006 121.1115017
  61.8119987  70.5795006 121.1115017  60.6149987  71.5065006 121.1115017
  59.1959987  63.2475006 120.2355017  60.1529987  63.2475006 120.2355017
  58.9559987  64.1745006 120.2355017  72.5099987  73.9045006 130.1535017
  73.4669987  73.9045006 130.1535017  72.2699987  74.8315006 130.1535017
  60.0089987  58.0395006 128.9535017  60.9659987  58.0395006 128.9535017
  59.7689987  58.9665006 128.9535017  58.9629987  71.9585006 125.1025017
  59.9199987  71.9585006 125.1025017  58.7229987  72.8855006 125.1025017
  58.0699987  74.6325006 136.3285017  59.0269987  74.6325006 136.3285017
  57.8299987  75.5595006 136.3285017  66.9819987  73.0455006 119.4575017
  67.9389987  73.0455006 119.4575017  66.7419987  73.9725006 119.4575017
  71.5439987  72.8085006 119.6195017  72.5009987  72.8085006 119.6195017
  71.3039987  73.7355006 119.6195017  62.4249987  68.7365006 119.4455017
  63.3819987  68.7365006 119.4455017  62.1849987  69.6635006 119.4455017
  67.8659987  69.8185006 119.2195017  68.8229987  69.8185006 119.2195017
  67.6259987  70.7455006 119.2195017  70.4939987  68.3085006 134.1745017
  71.4509987  68.3085006 134.1745017  70.2539987  69.2355006 134.1745017
  63.6299987  66.7405006 121.8255017  64.5869987  66.7405006 121.8255017
  63.3899987  67.6675006 121.8255017  62.9309987  64.5805006 134.1575017
  63.8879987  64.5805006 134.1575017  62.6909987  65.5075006 134.1575017
  64.6999987  64.9525006 120.0535017  65.6569987  64.9525006 120.0535017
  64.4599987  65.8795006 120.0535017  74.0479987  67.2945006 119.4735017
  75.0049987  67.2945006 119.4735017  73.8079987  68.2215006 119.4735017
  63.1009987  62.0275006 135.0735017  64.0579987  62.0275006 135.0735017
  62.8609987  62.9545006 135.0735017  63.6929987  60.3055006 132.7665017
  64.6499987  60.3055006 132.7665017  63.4529987  61.2325006 132.7665017
  65.2609987  65.7775006 132.9775017  66.2179987  65.7775006 132.9775017
  65.0209987  66.7045006 132.9775017  70.8479987  66.1675006 135.4945017
  71.8049987  66.1675006 135.4945017  70.6079987  67.0945006 135.4945017
  64.4899987  57.7715006 133.1775017  65.4469987  57.7715006 133.1775017
  64.2499987  58.6985006 133.1775017  68.4819987  61.1735006 135.7875017
  69.4389987  61.1735006 135.7875017  68.2419987  62.1005006 135.7875017
  64.7139987  57.1195006 135.8535017  65.6709987  57.1195006 135.8535017
  64.4739987  58.0465006 135.8535017  64.5489987  75.6365006 121.0805017
  65.5059987  75.6365006 121.0805017  64.3089987  76.5635006 121.0805017
  58.1119987  70.2625006 120.5805017  59.0689987  70.2625006 120.5805017
  57.8719987  71.1895006 120.5805017  56.8659987  75.6445006 125.5665017
  57.8229987  75.6445006 125.5665017  56.6259987  76.5715006 125.5665017
  57.6949987  73.7615006 127.4215017  58.6519987  73.7615006 127.4215017
  57.4549987  74.6885006 127.4215017  75.2319987  74.5635006 130.3635017
  76.1889987  74.5635006 130.3635017  74.9919987  75.4905006 130.3635017
  74.8339987  74.1545006 133.2875017  75.7909987  74.1545006 133.2875017
  74.5939987  75.0815006 133.2875017  74.5599987  68.2005006 123.4255017
  75.5169987  68.2005006 123.4255017  74.3199987  69.1275006 123.4255017
  74.9399987  66.2775006 125.2925017  75.8969987  66.2775006 125.2925017
  74.6999987  67.2045006 125.2925017  74.6839987  68.9815006 130.2725017
  75.6409987  68.9815006 130.2725017  74.4439987  69.9085006 130.2725017
  73.2279987  71.8675006 132.5625017  74.1849987  71.8675006 132.5625017
  72.9879987  72.7945006 132.5625017  75.2309987  66.1075006 121.6915017
  76.1879987  66.1075006 121.6915017  74.9909987  67.0345006 121.6915017
  73.5919987  63.3475006 120.2145017  74.5489987  63.3475006 120.2145017
  73.3519987  64.2745006 120.2145017  72.7769987  64.8125006 125.8165017
  73.7339987  64.8125006 125.8165017  72.5369987  65.7395006 125.8165017
  57.7519987  66.8345006 129.9045017  58.7089987  66.8345006 129.9045017
  57.5119987  67.7615006 129.9045017  73.5939987  66.5655006 135.0845017
  74.5509987  66.5655006 135.0845017  73.3539987  67.4925006 135.0845017
  75.1369987  64.6545006 136.1065017  76.0939987  64.6545006 136.1065017
  74.8969987  65.5815006 136.1065017  72.8369987  60.8015006 119.3455017
  73.7939987  60.8015006 119.3455017  72.5969987  61.7285006 119.3455017
  72.4079987  62.3295006 124.2425017  73.3649987  62.3295006 124.2425017
  72.1679987  63.2565006 124.2425017  73.1519987  62.8025006 129.8905017
  74.1089987  62.8025006 129.8905017  72.9119987  63.7295006 129.8905017
  73.1249987  63.6155006 132.5725017  74.0819987  63.6155006 132.5725017
  72.8849987  64.5425006 132.5725017  57.3569987  62.1125006 136.0395017
  58.3139987  62.1125006 136.0395017  57.1169987  63.0395006 136.0395017
  73.0919987  59.6115006 124.3605017  74.0489987  59.6115006 124.3605017
  72.8519987  60.5385006 124.3605017  58.5669987  60.4265006 128.9205017
  59.5239987  60.4265006 128.9205017  58.3269987  61.3535006 128.9205017
  56.8559987  63.4205006 129.9715017  57.8129987  63.4205006 129.9715017
  56.6159987  64.3475006 129.9715017  74.9749987  59.7735006 136.0745017
  75.9319987  59.7735006 136.0745017  74.7349987  60.7005006 136.0745017
  74.9049987  59.6645006 120.9115017  75.8619987  59.6645006 120.9115017
  74.6649987  60.5915006 120.9115017  57.2199987  59.6955006 124.0435017
  58.1769987  59.6955006 124.0435017  56.9799987  60.6225006 124.0435017
  71.9589987  74.6375006 125.9875017  72.9159987  74.6375006 125.9875017
  71.7189987  75.5645006 125.9875017  57.1919987  58.3825006 132.3545017
  58.1489987  58.3825006 132.3545017  56.9519987  59.3095006 132.3545017
  59.4029987  71.6645006 136.4445017  60.3599987  71.6645006 136.4445017
  59.1629987  72.5915006 136.4445017  62.3029987  72.5365006 132.7635017
  63.2599987  72.5365006 132.7635017  62.0629987  73.4635006 132.7635017
  66.5899987  74.2015006 135.4935017  67.5469987  74.2015006 135.4935017
  66.3499987  75.1285006 135.4935017  68.9529987  75.2485006 135.0025017
  69.9099987  75.2485006 135.0025017  68.7129987  76.1755006 135.0025017
  73.9299987  57.8665006 134.0815017  74.8869987  57.8665006 134.0815017
  73.6899987  58.7935006 134.0815017  59.7309987  75.7985006 132.7755017
  60.6879987  75.7985006 132.7755017  59.4909987  76.7255006 132.7755017
  62.1879987  75.3725006 131.8265017  63.1449987  75.3725006 131.8265017
  61.9479987  76.2995006 131.8265017  66.9049987  75.2795006 131.0245017
  67.8619987  75.2795006 131.0245017  66.6649987  76.2065006 131.0245017
  69.2069987  74.1255006 132.0095017  70.1639987  74.1255006 132.0095017
  68.9669987  75.0525006 132.0095017  71.7869987  75.6915006 132.2795017
  72.7439987  75.6915006 132.2795017  71.5469987  76.6185006 132.2795017
  59.1719987  74.4455006 129.7145017  60.1289987  74.4455006 129.7145017
  58.9319987  75.3725006 129.7145017  61.2599987  73.1585006 128.3705017
  62.2169987  73.1585006 128.3705017  61.0199987  74.0855006 128.3705017
  63.8529987  73.6345006 129.2465017  64.8099987  73.6345006 129.2465017
  63.6129987  74.5615006 129.2465017  67.3049987  59.2755006 128.3855017
  68.2619987  59.2755006 128.3855017  67.0649987  60.2025006 128.3855017
  72.4709987  57.3445006 128.4865017  73.4279987  57.3445006 128.4865017
  72.2309987  58.2715006 128.4865017  74.1299987  58.4785006 126.6575017
  75.0869987  58.4785006 126.6575017  73.8899987  59.4055006 126.6575017
  59.6819987  57.9175006 126.2235017  60.6389987  57.9175006 126.2235017
  59.4419987  58.8445006 126.2235017  58.4689987  57.6745006 121.9705017
  59.4259987  57.6745006 121.9705017  58.2289987  58.6015006 121.9705017
  64.1829987  57.8365006 126.0135017  65.1399987  57.8365006 126.0135017
  63.9429987  58.7635006 126.0135017  69.8589987  57.8465006 127.6595017
  70.8159987  57.8465006 127.6595017  69.6189987  58.7735006 127.6595017
  71.1469987  57.8925006 123.3315017  72.1039987  57.8925006 123.3315017
  70.9069987  58.8195006 123.3315017  58.3849987  73.6235006 122.9555017
  59.3419987  73.6235006 122.9555017  58.1449987  74.5505006 122.9555017
  60.3029987  59.6155006 120.4555017  61.2599987  59.6155006 120.4555017
  60.0629987  60.5425006 120.4555017  65.3289987  59.8695006 122.8705017
  66.2859987  59.8695006 122.8705017  65.0889987  60.7965006 122.8705017
  67.2479987  74.9185006 121.3145017  68.2049987  74.9185006 121.3145017
  67.0079987  75.8455006 121.3145017  73.9869987  74.4245006 124.0145017
  74.9439987  74.4245006 124.0145017  73.7469987  75.3515006 124.0145017
  59.5629987  58.4235006 135.6845017  60.5199987  58.4235006 135.6845017
  59.3229987  59.3505006 135.6845017  60.1789987  74.5945006 119.9205017
  61.1359987  74.5945006 119.9205017  59.9389987  75.5215006 119.9205017
  73.3749987  73.2785006 135.9015017  74.3319987  73.2785006 135.9015017
  73.1349987  74.2055006 135.9015017  87.6239987  67.0525006 126.1085017
  88.5809987  67.0525006 126.1085017  87.3839987  67.9795006 126.1085017
  86.4969987  66.3135006 129.5975017  87.4539987  66.3135006 129.5975017
  86.2569987  67.2405006 129.5975017  78.8449987  65.9705006 131.1575017
  79.8019987  65.9705006 131.1575017  78.6049987  66.8975006 131.1575017
  90.1939987  69.2555006 127.8715017  91.1509987  69.2555006 127.8715017
  89.9539987  70.1825006 127.8715017  79.7799987  70.4235006 129.6655017
  80.7369987  70.4235006 129.6655017  79.5399987  71.3505006 129.6655017
  76.4329987  63.9975006 125.1195017  77.3899987  63.9975006 125.1195017
  76.1929987  64.9245006 125.1195017  77.1189987  66.2135006 127.2605017
  78.0759987  66.2135006 127.2605017  76.8789987  67.1405006 127.2605017
  87.2899987  74.3985006 128.1015017  88.2469987  74.3985006 128.1015017
  87.0499987  75.3255006 128.1015017  84.8719987  68.7235006 130.0355017
  85.8289987  68.7235006 130.0355017  84.6319987  69.6505006 130.0355017
  93.4909987  60.3605006 130.8085017  94.4479987  60.3605006 130.8085017
  93.2509987  61.2875006 130.8085017  88.0399987  63.1805006 130.3645017
  88.9969987  63.1805006 130.3645017  87.7999987  64.1075006 130.3645017
  81.1639987  61.2615006 127.5945017  82.1209987  61.2615006 127.5945017
  80.9239987  62.1885006 127.5945017  88.7809987  61.6245006 125.9585017
  89.7379987  61.6245006 125.9585017  88.5409987  62.5515006 125.9585017
  77.7629987  63.6455006 128.3335017  78.7199987  63.6455006 128.3335017
  77.5229987  64.5725006 128.3335017  82.9449987  65.2275006 127.6195017
  83.9019987  65.2275006 127.6195017  82.7049987  66.1545006 127.6195017
  93.9339987  61.7975006 133.0545017  94.8909987  61.7975006 133.0545017
  93.6939987  62.7245006 133.0545017  80.0459987  60.1545006 131.6525017
  81.0029987  60.1545006 131.6525017  79.8059987  61.0815006 131.6525017
  87.3599987  69.6535006 125.1815017  88.3169987  69.6535006 125.1815017
  87.1199987  70.5805006 125.1815017  82.5759987  67.8075006 131.8945017
  83.5329987  67.8075006 131.8945017  82.3359987  68.7345006 131.8945017
  90.6989987  60.7205006 128.0335017  91.6559987  60.7205006 128.0335017
  90.4589987  61.6475006 128.0335017  79.5909987  62.0265006 129.6285017
  80.5479987  62.0265006 129.6285017  79.3509987  62.9535006 129.6285017
  81.0009987  69.8035006 132.6805017  81.9579987  69.8035006 132.6805017
  80.7609987  70.7305006 132.6805017  77.1299987  69.4435006 123.4865017
  78.0869987  69.4435006 123.4865017  76.8899987  70.3705006 123.4865017
  90.7189987  71.0895006 130.2395017  91.6759987  71.0895006 130.2395017
  90.4789987  72.0165006 130.2395017  91.0129987  59.3675006 131.5855017
  91.9699987  59.3675006 131.5855017  90.7729987  60.2945006 131.5855017
  84.0089987  57.5025006 129.1095017  84.9659987  57.5025006 129.1095017
  83.7689987  58.4295006 129.1095017  88.9699987  72.8755006 126.8425017
  89.9269987  72.8755006 126.8425017  88.7299987  73.8025006 126.8425017
  90.1719987  70.8025006 125.3495017  91.1289987  70.8025006 125.3495017
  89.9319987  71.7295006 125.3495017  91.8339987  69.3825006 133.8455017
  92.7909987  69.3825006 133.8455017  91.5939987  70.3095006 133.8455017
  86.2939987  66.2965006 123.6145017  87.2509987  66.2965006 123.6145017
  86.0539987  67.2235006 123.6145017  86.3629987  64.8265006 120.6295017
  87.3199987  64.8265006 120.6295017  86.1229987  65.7535006 120.6295017
  93.6779987  65.6875006 131.8815017  94.6349987  65.6875006 131.8815017
  93.4379987  66.6145006 131.8815017  89.7329987  66.5015006 124.5295017
  90.6899987  66.5015006 124.5295017  89.4929987  67.4285006 124.5295017
  89.6429987  64.6095006 133.5615017  90.5999987  64.6095006 133.5615017
  89.4029987  65.5365006 133.5615017  81.3539987  67.1655006 126.4445017
  82.3109987  67.1655006 126.4445017  81.1139987  68.0925006 126.4445017
  82.6849987  70.5615006 129.1255017  83.6419987  70.5615006 129.1255017
  82.4449987  71.4885006 129.1255017  81.6919987  65.9065006 130.0975017
  82.6489987  65.9065006 130.0975017  81.4519987  66.8335006 130.0975017
  88.0829987  71.4665006 130.8155017  89.0399987  71.4665006 130.8155017
  87.8429987  72.3935006 130.8155017  82.5849987  70.2715006 134.7875017
  83.5419987  70.2715006 134.7875017  82.3449987  71.1985006 134.7875017
  88.6019987  65.6895006 122.2065017  89.5589987  65.6895006 122.2065017
  88.3619987  66.6165006 122.2065017  79.5549987  66.5095006 134.0025017
  80.5119987  66.5095006 134.0025017  79.3149987  67.4365006 134.0025017
  86.3219987  72.4185006 125.6695017  87.2789987  72.4185006 125.6695017
  86.0819987  73.3455006 125.6695017  80.8479987  72.3355006 135.5825017
  81.8049987  72.3355006 135.5825017  80.6079987  73.2625006 135.5825017
  92.3289987  57.4405006 122.0995017  93.2859987  57.4405006 122.0995017
  92.0889987  58.3675006 122.0995017  80.3289987  66.1895006 124.0595017
  81.2859987  66.1895006 124.0595017  80.0889987  67.1165006 124.0595017
  93.4509987  71.7825006 120.4425017  94.4079987  71.7825006 120.4425017
  93.2109987  72.7095006 120.4425017  76.4299987  68.6135006 132.8975017
  77.3869987  68.6135006 132.8975017  76.1899987  69.5405006 132.8975017
  76.1759987  71.3475006 129.7295017  77.1329987  71.3475006 129.7295017
  75.9359987  72.2745006 129.7295017  94.4159987  72.0385006 135.3145017
  95.3729987  72.0385006 135.3145017  94.1759987  72.9655006 135.3145017
  85.3759987  71.6165006 134.2385017  86.3329987  71.6165006 134.2385017
  85.1359987  72.5435006 134.2385017  85.8019987  75.3455006 124.0875017
  86.7589987  75.3455006 124.0875017  85.5619987  76.2725006 124.0875017
  79.4219987  74.2495006 125.9725017  80.3789987  74.2495006 125.9725017
  79.1819987  75.1765006 125.9725017  88.8659987  74.5415006 121.0665017
  89.8229987  74.5415006 121.0665017  88.6259987  75.4685006 121.0665017
  88.5539987  74.4725006 123.8315017  89.5109987  74.4725006 123.8315017
  88.3139987  75.3995006 123.8315017  91.4989987  63.5525006 135.6925017
  92.4559987  63.5525006 135.6925017  91.2589987  64.4795006 135.6925017
  78.6879987  69.9065006 133.9035017  79.6449987  69.9065006 133.9035017
  78.4479987  70.8335006 133.9035017  81.3589987  58.3895006 129.8545017
  82.3159987  58.3895006 129.8545017  81.1189987  59.3165006 129.8545017
  86.0019987  58.0945006 133.2485017  86.9589987  58.0945006 133.2485017
  85.7619987  59.0215006 133.2485017  89.3089987  61.9025006 134.1155017
  90.2659987  61.9025006 134.1155017  89.0689987  62.8295006 134.1155017
  90.0609987  66.7175006 119.9635017  91.0179987  66.7175006 119.9635017
  89.8209987  67.6445006 119.9635017  85.6589987  60.6375006 120.5205017
  86.6159987  60.6375006 120.5205017  85.4189987  61.5645006 120.5205017
  81.4459987  63.3495006 131.0415017  82.4029987  63.3495006 131.0415017
  81.2059987  64.2765006 131.0415017  81.4249987  63.5165006 125.9455017
  82.3819987  63.5165006 125.9455017  81.1849987  64.4435006 125.9455017
  86.9539987  63.9795006 124.7335017  87.9109987  63.9795006 124.7335017
  86.7139987  64.9065006 124.7335017  86.0179987  63.9705006 135.9635017
  86.9749987  63.9705006 135.9635017  85.7779987  64.8975006 135.9635017
  87.9609987  63.4945006 127.5955017  88.9179987  63.4945006 127.5955017
  87.7209987  64.4215006 127.5955017  79.1269987  63.6375006 132.8255017
  80.0839987  63.6375006 132.8255017  78.8869987  64.5645006 132.8255017
  82.4919987  61.0265006 119.6365017  83.4489987  61.0265006 119.6365017
  82.2519987  61.9535006 119.6365017  75.8329987  60.7945006 126.6715017
  76.7899987  60.7945006 126.6715017  75.5929987  61.7215006 126.6715017
  77.0269987  61.4645006 122.1185017  77.9839987  61.4645006 122.1185017
  76.7869987  62.3915006 122.1185017  87.2289987  65.0765006 132.2135017
  88.1859987  65.0765006 132.2135017  86.9889987  66.0035006 132.2135017
  83.9849987  61.0255006 126.9795017  84.9419987  61.0255006 126.9795017
  83.7449987  61.9525006 126.9795017  78.7909987  62.5875006 125.8515017
  79.7479987  62.5875006 125.8515017  78.5509987  63.5145006 125.8515017
  82.4579987  62.6275006 123.4605017  83.4149987  62.6275006 123.4605017
  82.2179987  63.5545006 123.4605017  88.3939987  60.2655006 130.2035017
  89.3509987  60.2655006 130.2035017  88.1539987  61.1925006 130.2035017
  81.1439987  63.8175006 121.0515017  82.1009987  63.8175006 121.0515017
  80.9039987  64.7445006 121.0515017  91.6579987  75.9075006 136.4915017
  92.6149987  75.9075006 136.4915017  91.4179987  76.8345006 136.4915017
  79.1249987  68.3985006 136.0725017  80.0819987  68.3985006 136.0725017
  78.8849987  69.3255006 136.0725017  85.2709987  63.7955006 128.8675017
  86.2279987  63.7955006 128.8675017  85.0309987  64.7225006 128.8675017
  80.2889987  59.9395006 125.2975017  81.2459987  59.9395006 125.2975017
  80.0489987  60.8665006 125.2975017  83.9149987  62.1255006 131.2785017
  84.8719987  62.1255006 131.2785017  83.6749987  63.0525006 131.2785017
  84.5049987  68.3625006 122.9665017  85.4619987  68.3625006 122.9665017
  84.2649987  69.2895006 122.9665017  91.6579987  67.5465006 131.7765017
  92.6149987  67.5465006 131.7765017  91.4179987  68.4735006 131.7765017
  88.3349987  61.1735006 121.1755017  89.2919987  61.1735006 121.1755017
  88.0949987  62.1005006 121.1755017  85.9529987  68.5975006 134.1485017
  86.9099987  68.5975006 134.1485017  85.7129987  69.5245006 134.1485017
  89.0769987  63.0695006 122.8065017  90.0339987  63.0695006 122.8065017
  88.8369987  63.9965006 122.8065017  79.6099987  67.7275006 128.7705017
  80.5669987  67.7275006 128.7705017  79.3699987  68.6545006 128.7705017
  86.6089987  69.8225006 121.9995017  87.5659987  69.8225006 121.9995017
  86.3689987  70.7495006 121.9995017  76.5999987  66.1475006 134.0315017
  77.5569987  66.1475006 134.0315017  76.3599987  67.0745006 134.0315017
  83.7589987  66.0625006 135.7735017  84.7159987  66.0625006 135.7735017
  83.5189987  66.9895006 135.7735017  88.2899987  71.0415006 134.1855017
  89.2469987  71.0415006 134.1855017  88.0499987  71.9685006 134.1855017
  93.9779987  63.2255006 122.5465017  94.9349987  63.2255006 122.5465017
  93.7379987  64.1525006 122.5465017  93.9259987  69.0535006 135.3595017
  94.8829987  69.0535006 135.3595017  93.6859987  69.9805006 135.3595017
  92.2399987  72.0555006 122.9605017  93.1969987  72.0555006 122.9605017
  91.9999987  72.9825006 122.9605017  89.4539987  66.8805006 130.0175017
  90.4109987  66.8805006 130.0175017  89.2139987  67.8075006 130.0175017
  81.9819987  71.1945006 126.1355017  82.9389987  71.1945006 126.1355017
  81.7419987  72.1215006 126.1355017  77.7439987  66.0405006 120.7245017
  78.7009987  66.0405006 120.7245017  77.5039987  66.9675006 120.7245017
  83.4029987  68.8585006 125.6785017  84.3599987  68.8585006 125.6785017
  83.1629987  69.7855006 125.6785017  83.8639987  73.0365006 132.0515017
  84.8209987  73.0365006 132.0515017  83.6239987  73.9635006 132.0515017
  82.0529987  73.8695006 125.1945017  83.0099987  73.8695006 125.1945017
  81.8129987  74.7965006 125.1945017  87.4199987  69.0745006 131.7065017
  88.3769987  69.0745006 131.7065017  87.1799987  70.0015006 131.7065017
  89.6959987  70.0995006 120.7925017  90.6529987  70.0995006 120.7925017
  89.4559987  71.0265006 120.7925017  90.1859987  73.6195006 134.1745017
  91.1429987  73.6195006 134.1745017  89.9459987  74.5465006 134.1745017
  94.1719987  74.4765006 121.0355017  95.1289987  74.4765006 121.0355017
  93.9319987  75.4035006 121.0355017  78.2549987  60.9095006 133.6465017
  79.2119987  60.9095006 133.6465017  78.0149987  61.8365006 133.6465017
  90.4899987  68.7435006 123.0275017  91.4469987  68.7435006 123.0275017
  90.2499987  69.6705006 123.0275017  77.8879987  72.6805006 132.0005017
  78.8449987  72.6805006 132.0005017  77.6479987  73.6075006 132.0005017
  83.8159987  71.1845006 119.2725017  84.7729987  71.1845006 119.2725017
  83.5759987  72.1115006 119.2725017  82.5959987  70.7225006 121.7455017
  83.5529987  70.7225006 121.7455017  82.3559987  71.6495006 121.7455017
  79.1519987  67.9675006 122.2265017  80.1089987  67.9675006 122.2265017
  78.9119987  68.8945006 122.2265017  86.9919987  60.6465006 132.5195017
  87.9489987  60.6465006 132.5195017  86.7519987  61.5735006 132.5195017
  87.7869987  60.2295006 123.6345017  88.7439987  60.2295006 123.6345017
  87.5469987  61.1565006 123.6345017  85.4159987  72.3855006 122.4475017
  86.3729987  72.3855006 122.4475017  85.1759987  73.3125006 122.4475017
  84.9759987  61.9665006 124.4475017  85.9329987  61.9665006 124.4475017
  84.7359987  62.8935006 124.4475017  85.5299987  62.9945006 133.5685017
  86.4869987  62.9945006 133.5685017  85.2899987  63.9215006 133.5685017
  85.8359987  59.0575006 125.3705017  86.7929987  59.0575006 125.3705017
  85.5959987  59.9845006 125.3705017  82.7329987  73.4215006 122.4645017
  83.6899987  73.4215006 122.4645017  82.4929987  74.3485006 122.4645017
  81.4619987  60.1465006 122.0425017  82.4189987  60.1465006 122.0425017
  81.2219987  61.0735006 122.0425017  91.7059987  60.8675006 134.4165017
  92.6629987  60.8675006 134.4165017  91.4659987  61.7945006 134.4165017
  90.3079987  64.6505006 128.4915017  91.2649987  64.6505006 128.4915017
  90.0679987  65.5775006 128.4915017  79.7139987  70.6025006 121.1245017
  80.6709987  70.6025006 121.1245017  79.4739987  71.5295006 121.1245017
  78.0519987  63.2505006 120.2295017  79.0089987  63.2505006 120.2295017
  77.8119987  64.1775006 120.2295017  91.3719987  73.9025006 130.1375017
  92.3289987  73.9025006 130.1375017  91.1319987  74.8295006 130.1375017
  78.8299987  58.0605006 128.9585017  79.7869987  58.0605006 128.9585017
  78.5899987  58.9875006 128.9585017  77.7249987  71.9145006 125.1595017
  78.6819987  71.9145006 125.1595017  77.4849987  72.8415006 125.1595017
  76.9259987  74.6325006 136.3295017  77.8829987  74.6325006 136.3295017
  76.6859987  75.5595006 136.3295017  85.8199987  73.0395006 119.4045017
  86.7769987  73.0395006 119.4045017  85.5799987  73.9665006 119.4045017
  90.3919987  72.7985006 119.6055017  91.3489987  72.7985006 119.6055017
  90.1519987  73.7255006 119.6055017  81.2899987  68.7325006 119.4395017
  82.2469987  68.7325006 119.4395017  81.0499987  69.6595006 119.4395017
  86.7069987  69.8255006 119.1995017  87.6639987  69.8255006 119.1995017
  86.4669987  70.7525006 119.1995017  89.3539987  68.2995006 134.2035017
  90.3109987  68.2995006 134.2035017  89.1139987  69.2265006 134.2035017
  82.4889987  66.7395006 121.8265017  83.4459987  66.7395006 121.8265017
  82.2489987  67.6665006 121.8265017  81.7879987  64.5795006 134.1575017
  82.7449987  64.5795006 134.1575017  81.5479987  65.5065006 134.1575017
  83.5579987  64.9625006 120.0475017  84.5149987  64.9625006 120.0475017
  83.3179987  65.8895006 120.0475017  92.9139987  67.2925006 119.4765017
  93.8709987  67.2925006 119.4765017  92.6739987  68.2195006 119.4765017
  81.9629987  62.0225006 135.0785017  82.9199987  62.0225006 135.0785017
  81.7229987  62.9495006 135.0785017  82.5499987  60.3065006 132.7675017
  83.5069987  60.3065006 132.7675017  82.3099987  61.2335006 132.7675017
  84.1179987  65.7785006 132.9785017  85.0749987  65.7785006 132.9785017
  83.8779987  66.7055006 132.9785017  89.7059987  66.1625006 135.5265017
  90.6629987  66.1625006 135.5265017  89.4659987  67.0895006 135.5265017
  83.3479987  57.7705006 133.1775017  84.3049987  57.7705006 133.1775017
  83.1079987  58.6975006 133.1775017  87.3459987  61.2065006 135.8205017
  88.3029987  61.2065006 135.8205017  87.1059987  62.1335006 135.8205017
  83.5619987  57.1205006 135.8535017  84.5189987  57.1205006 135.8535017
  83.3219987  58.0475006 135.8535017  83.3959987  75.6235006 121.0935017
  84.3529987  75.6235006 121.0935017  83.1559987  76.5505006 121.0935017
  76.9739987  70.2675006 120.5845017  77.9309987  70.2675006 120.5845017
  76.7339987  71.1945006 120.5845017  75.7449987  75.6315006 125.5515017
  76.7019987  75.6315006 125.5515017  75.5049987  76.5585006 125.5515017
  76.5809987  73.7475006 127.4115017  77.5379987  73.7475006 127.4115017
  76.3409987  74.6745006 127.4115017  94.0869987  74.5645006 130.3665017
  95.0439987  74.5645006 130.3665017  93.8469987  75.4915006 130.3665017
  93.6759987  74.1605006 133.2775017  94.6329987  74.1605006 133.2775017
  93.4359987  75.0875006 133.2775017  93.4139987  68.1995006 123.4265017
  94.3709987  68.1995006 123.4265017  93.1739987  69.1265006 123.4265017
  93.7829987  66.2675006 125.2955017  94.7399987  66.2675006 125.2955017
  93.5429987  67.1945006 125.2955017  93.5359987  68.9785006 130.2595017
  94.4929987  68.9785006 130.2595017  93.2959987  69.9055006 130.2595017
  92.0789987  71.8765006 132.5665017  93.0359987  71.8765006 132.5665017
  91.8389987  72.8035006 132.5665017  94.0859987  66.1065006 121.6925017
  95.0429987  66.1065006 121.6925017  93.8459987  67.0335006 121.6925017
  92.4539987  63.3445006 120.2135017  93.4109987  63.3445006 120.2135017
  92.2139987  64.2715006 120.2135017  91.5969987  64.7505006 125.8575017
  92.5539987  64.7505006 125.8575017  91.3569987  65.6775006 125.8575017
  76.6079987  66.8335006 129.9045017  77.5649987  66.8335006 129.9045017
  76.3679987  67.7605006 129.9045017  92.4319987  66.5495006 135.0955017
  93.3889987  66.5495006 135.0955017  92.1919987  67.4765006 135.0955017
  93.9709987  64.6475006 136.1405017  94.9279987  64.6475006 136.1405017
  93.7309987  65.5745006 136.1405017  91.6919987  60.7985006 119.3475017
  92.6489987  60.7985006 119.3475017  91.4519987  61.7255006 119.3475017
  91.2519987  62.3185006 124.3095017  92.2089987  62.3185006 124.3095017
  91.0119987  63.2455006 124.3095017  91.9019987  62.8725006 129.7555017
  92.8589987  62.8725006 129.7555017  91.6619987  63.7995006 129.7555017
  91.9729987  63.6185006 132.5775017  92.9299987  63.6185006 132.5775017
  91.7329987  64.5455006 132.5775017  76.2149987  62.1145006 136.0425017
  77.1719987  62.1145006 136.0425017  75.9749987  63.0415006 136.0425017
  91.8769987  59.6345006 124.3985017  92.8339987  59.6345006 124.3985017
  91.6369987  60.5615006 124.3985017  77.3869987  60.4215006 128.9325017
  78.3439987  60.4215006 128.9325017  77.1469987  61.3485006 128.9325017
  75.7429987  63.3965006 129.9845017  76.6999987  63.3965006 129.9845017
  75.5029987  64.3235006 129.9845017  93.8329987  59.7685006 136.0805017
  94.7899987  59.7685006 136.0805017  93.5929987  60.6955006 136.0805017
  93.7619987  59.6615006 120.9205017  94.7189987  59.6615006 120.9205017
  93.5219987  60.5885006 120.9205017  76.0689987  59.7185006 124.0655017
  77.0259987  59.7185006 124.0655017  75.8289987  60.6455006 124.0655017
  90.8129987  74.6395006 125.9905017  91.7699987  74.6395006 125.9905017
  90.5729987  75.5665006 125.9905017  76.0389987  58.3685006 132.3445017
  76.9959987  58.3685006 132.3445017  75.7989987  59.2955006 132.3445017
  78.2579987  71.6635006 136.4465017  79.2149987  71.6635006 136.4465017
  78.0179987  72.5905006 136.4465017  81.1619987  72.5405006 132.7575017
  82.1189987  72.5405006 132.7575017  80.9219987  73.4675006 132.7575017
  85.4339987  74.1695006 135.4765017  86.3909987  74.1695006 135.4765017
  85.1939987  75.0965006 135.4765017  87.9019987  75.4595006 134.5695017
  88.8589987  75.4595006 134.5695017  87.6619987  76.3865006 134.5695017
  92.7839987  57.8695006 134.0785017  93.7409987  57.8695006 134.0785017
  92.5439987  58.7965006 134.0785017  78.5869987  75.7965006 132.7765017
  79.5439987  75.7965006 132.7765017  78.3469987  76.7235006 132.7765017
  81.0449987  75.3745006 131.8175017  82.0019987  75.3745006 131.8175017
  80.8049987  76.3015006 131.8175017  85.7579987  75.2795006 131.0295017
  86.7149987  75.2795006 131.0295017  85.5179987  76.2065006 131.0295017
  88.0709987  74.1075006 131.9695017  89.0279987  74.1075006 131.9695017
  87.8309987  75.0345006 131.9695017  90.6589987  75.6935006 132.2635017
  91.6159987  75.6935006 132.2635017  90.4189987  76.6205006 132.2635017
  78.0189987  74.4405006 129.7175017  78.9759987  74.4405006 129.7175017
  77.7789987  75.3675006 129.7175017  80.1319987  73.1385006 128.3365017
  81.0889987  73.1385006 128.3365017  79.8919987  74.0655006 128.3365017
  82.7099987  73.6335006 129.2435017  83.6669987  73.6335006 129.2435017
  82.4699987  74.5605006 129.2435017  86.1969987  59.2995006 128.3855017
  87.1539987  59.2995006 128.3855017  85.9569987  60.2265006 128.3855017
  91.3219987  57.3655006 128.4855017  92.2789987  57.3655006 128.4855017
  91.0819987  58.2925006 128.4855017  92.9639987  58.5955006 126.7115017
  93.9209987  58.5955006 126.7115017  92.7239987  59.5225006 126.7115017
  78.5279987  57.9135006 126.2435017  79.4849987  57.9135006 126.2435017
  78.2879987  58.8405006 126.2435017  77.3249987  57.6745006 121.9715017
  78.2819987  57.6745006 121.9715017  77.0849987  58.6015006 121.9715017
  83.0289987  57.8585006 126.0195017  83.9859987  57.8585006 126.0195017
  82.7889987  58.7855006 126.0195017  88.7299987  57.8795006 127.6275017
  89.6869987  57.8795006 127.6275017  88.4899987  58.8065006 127.6275017
  90.0039987  57.9505006 123.4045017  90.9609987  57.9505006 123.4045017
  89.7639987  58.8775006 123.4045017  77.2649987  73.6325006 122.9575017
  78.2219987  73.6325006 122.9575017  77.0249987  74.5595006 122.9575017
  79.1589987  59.6145006 120.4565017  80.1159987  59.6145006 120.4565017
  78.9189987  60.5415006 120.4565017  84.1879987  59.8655006 122.8725017
  85.1449987  59.8655006 122.8725017  83.9479987  60.7925006 122.8725017
  86.1009987  74.8765006 121.3155017  87.0579987  74.8765006 121.3155017
  85.8609987  75.8035006 121.3155017  92.8149987  74.4325006 124.0195017
  93.7719987  74.4325006 124.0195017  92.5749987  75.3595006 124.0195017
  78.4189987  58.4215006 135.6915017  79.3759987  58.4215006 135.6915017
  78.1789987  59.3485006 135.6915017  79.0289987  74.5765006 119.9405017
  79.9859987  74.5765006 119.9405017  78.7889987  75.5035006 119.9405017
  92.2309987  73.2845006 135.8905017  93.1879987  73.2845006 135.8905017
  91.9909987  74.2115006 135.8905017 106.4679987  67.0205006 126.0785017
 107.4249987  67.0205006 126.0785017 106.2279987  67.9475006 126.0785017
 105.2809987  66.3295006 129.6035017 106.2379987  66.3295006 129.6035017
 105.0409987  67.2565006 129.6035017  97.7009987  65.9705006 131.1575017
  98.6579987  65.9705006 131.1575017  97.4609987  66.8975006 131.1575017
  98.6349987  70.4225006 129.6625017  99.5919987  70.4225006 129.6625017
  98.3949987  71.3495006 129.6625017  95.2799987  63.9985006 125.1265017
  96.2369987  63.9985006 125.1265017  95.0399987  64.9255006 125.1265017
  95.9749987  66.2135006 127.2605017  96.9319987  66.2135006 127.2605017
  95.7349987  67.1405006 127.2605017 106.1809987  74.3695006 128.0895017
 107.1379987  74.3695006 128.0895017 105.9409987  75.2965006 128.0895017
 103.7009987  68.7115006 130.0275017 104.6579987  68.7115006 130.0275017
 103.4609987  69.6385006 130.0275017 106.2209987  62.9315006 130.3025017
 107.1779987  62.9315006 130.3025017 105.9809987  63.8585006 130.3025017
 100.0189987  61.2595006 127.5995017 100.9759987  61.2595006 127.5995017
  99.7789987  62.1865006 127.5995017 107.7189987  61.8445006 125.5635017
 108.6759987  61.8445006 125.5635017 107.4789987  62.7715006 125.5635017
  96.6369987  63.6675006 128.3375017  97.5939987  63.6675006 128.3375017
  96.3969987  64.5945006 128.3375017 101.7909987  65.2315006 127.6165017
 102.7479987  65.2315006 127.6165017 101.5509987  66.1585006 127.6165017
  98.8959987  60.1575006 131.6525017  99.8529987  60.1575006 131.6525017
  98.6559987  61.0845006 131.6525017 106.2329987  69.6555006 125.1815017
 107.1899987  69.6555006 125.1815017 105.9929987  70.5825006 125.1815017
 101.4369987  67.7995006 131.8815017 102.3939987  67.7995006 131.8815017
 101.1969987  68.7265006 131.8815017  98.4569987  62.0325006 129.6355017
  99.4139987  62.0325006 129.6355017  98.2169987  62.9595006 129.6355017
  99.8659987  69.7985006 132.6625017 100.8229987  69.7985006 132.6625017
  99.6259987  70.7255006 132.6625017  95.9579987  69.4355006 123.4965017
  96.9149987  69.4355006 123.4965017  95.7179987  70.3625006 123.4965017
 102.8809987  57.4975006 129.1245017 103.8379987  57.4975006 129.1245017
 102.6409987  58.4245006 129.1245017 107.5019987  72.6965006 126.4285017
 108.4589987  72.6965006 126.4285017 107.2619987  73.6235006 126.4285017
 105.1289987  66.2865006 123.5985017 106.0859987  66.2865006 123.5985017
 104.8889987  67.2135006 123.5985017 105.1939987  64.8185006 120.6195017
 106.1509987  64.8185006 120.6195017 104.9539987  65.7455006 120.6195017
 100.2089987  67.1655006 126.4445017 101.1659987  67.1655006 126.4445017
  99.9689987  68.0925006 126.4445017 101.5379987  70.5605006 129.1335017
 102.4949987  70.5605006 129.1335017 101.2979987  71.4875006 129.1335017
 100.5489987  65.9055006 130.0985017 101.5059987  65.9055006 130.0985017
 100.3089987  66.8325006 130.0985017 106.5279987  71.4875006 130.8705017
 107.4849987  71.4875006 130.8705017 106.2879987  72.4145006 130.8705017
 101.4759987  70.2475006 134.7745017 102.4329987  70.2475006 134.7745017
 101.2359987  71.1745006 134.7745017 107.4579987  65.6745006 122.2225017
 108.4149987  65.6745006 122.2225017 107.2179987  66.6015006 122.2225017
  98.4149987  66.5165006 133.9965017  99.3719987  66.5165006 133.9965017
  98.1749987  67.4435006 133.9965017 105.0819987  72.4085006 125.6495017
 106.0389987  72.4085006 125.6495017 104.8419987  73.3355006 125.6495017
 100.0129987  72.1965006 135.4525017 100.9699987  72.1965006 135.4525017
  99.7729987  73.1235006 135.4525017  99.1849987  66.1905006 124.0595017
 100.1419987  66.1905006 124.0595017  98.9449987  67.1175006 124.0595017
  95.2829987  68.6125006 132.8955017  96.2399987  68.6125006 132.8955017
  95.0429987  69.5395006 132.8955017  95.0349987  71.3455006 129.7355017
  95.9919987  71.3455006 129.7355017  94.7949987  72.2725006 129.7355017
 104.2679987  71.6335006 134.2805017 105.2249987  71.6335006 134.2805017
 104.0279987  72.5605006 134.2805017 104.6649987  75.3435006 124.0885017
 105.6219987  75.3435006 124.0885017 104.4249987  76.2705006 124.0885017
  98.3019987  74.2055006 125.8935017  99.2589987  74.2055006 125.8935017
  98.0619987  75.1325006 125.8935017 107.7379987  74.5275006 121.0495017
 108.6949987  74.5275006 121.0495017 107.4979987  75.4545006 121.0495017
 107.2519987  74.2995006 123.6905017 108.2089987  74.2995006 123.6905017
 107.0119987  75.2265006 123.6905017  97.5709987  69.8835006 133.8635017
  98.5279987  69.8835006 133.8635017  97.3309987  70.8105006 133.8635017
 100.2229987  58.3905006 129.8755017 101.1799987  58.3905006 129.8755017
  99.9829987  59.3175006 129.8755017 104.8609987  58.1355006 133.2905017
 105.8179987  58.1355006 133.2905017 104.6209987  59.0625006 133.2905017
 104.5259987  60.6335006 120.5415017 105.4829987  60.6335006 120.5415017
 104.2859987  61.5605006 120.5415017 100.3019987  63.3405006 131.0605017
 101.2589987  63.3405006 131.0605017 100.0619987  64.2675006 131.0605017
 100.2819987  63.5165006 125.9465017 101.2389987  63.5165006 125.9465017
 100.0419987  64.4435006 125.9465017 105.7869987  63.9925006 124.7375017
 106.7439987  63.9925006 124.7375017 105.5469987  64.9195006 124.7375017
 104.8509987  63.9665006 135.9805017 105.8079987  63.9665006 135.9805017
 104.6109987  64.8935006 135.9805017 106.7849987  63.4495006 127.5615017
 107.7419987  63.4495006 127.5615017 106.5449987  64.3765006 127.5615017
  97.9889987  63.6375006 132.8285017  98.9459987  63.6375006 132.8285017
  97.7489987  64.5645006 132.8285017 101.3479987  61.0265006 119.6365017
 102.3049987  61.0265006 119.6365017 101.1079987  61.9535006 119.6365017
  94.5929987  60.7335006 126.7465017  95.5499987  60.7335006 126.7465017
  94.3529987  61.6605006 126.7465017  95.8829987  61.4655006 122.1195017
  96.8399987  61.4655006 122.1195017  95.6429987  62.3925006 122.1195017
 106.0489987  65.0775006 132.1985017 107.0059987  65.0775006 132.1985017
 105.8089987  66.0045006 132.1985017 102.8459987  61.0205006 126.9655017
 103.8029987  61.0205006 126.9655017 102.6059987  61.9475006 126.9655017
  97.6609987  62.6025006 125.8325017  98.6179987  62.6025006 125.8325017
  97.4209987  63.5295006 125.8325017 101.3079987  62.6285006 123.4585017
 102.2649987  62.6285006 123.4585017 101.0679987  63.5555006 123.4585017
 107.2459987  60.2195006 130.2695017 108.2029987  60.2195006 130.2695017
 107.0059987  61.1465006 130.2695017 100.0029987  63.8175006 121.0515017
 100.9599987  63.8175006 121.0515017  99.7629987  64.7445006 121.0515017
  98.0049987  68.3025006 136.0865017  98.9619987  68.3025006 136.0865017
  97.7649987  69.2295006 136.0865017 104.0939987  63.7865006 128.8215017
 105.0509987  63.7865006 128.8215017 103.8539987  64.7135006 128.8215017
  99.1459987  59.9405006 125.2985017 100.1029987  59.9405006 125.2985017
  98.9059987  60.8675006 125.2985017 102.7489987  62.0995006 131.3075017
 103.7059987  62.0995006 131.3075017 102.5089987  63.0265006 131.3075017
 103.3659987  68.3615006 122.9655017 104.3229987  68.3615006 122.9655017
 103.1259987  69.2885006 122.9655017 107.1549987  61.1925006 121.1575017
 108.1119987  61.1925006 121.1575017 106.9149987  62.1195006 121.1575017
 104.8439987  68.5805006 134.1665017 105.8009987  68.5805006 134.1665017
 104.6039987  69.5075006 134.1665017   0.1189987  63.1785006 122.8565017
   1.0759987  63.1785006 122.8565017  -0.1210013  64.1055006 122.8565017
  98.4619987  67.7265006 128.7665017  99.4189987  67.7265006 128.7665017
  98.2219987  68.6535006 128.7665017 105.4439987  69.8095006 121.9755017
 106.4009987  69.8095006 121.9755017 105.2039987  70.7365006 121.9755017
  95.4569987  66.1425006 134.0275017  96.4139987  66.1425006 134.0275017
  95.2169987  67.0695006 134.0275017 102.6219987  66.0635006 135.7785017
 103.5789987  66.0635006 135.7785017 102.3819987  66.9905006 135.7785017
 107.1649987  71.0885006 134.1515017 108.1219987  71.0885006 134.1515017
 106.9249987  72.0155006 134.1515017 100.8369987  71.1925006 126.1545017
 101.7939987  71.1925006 126.1545017 100.5969987  72.1195006 126.1545017
  96.5989987  66.0395006 120.7245017  97.5559987  66.0395006 120.7245017
  96.3589987  66.9665006 120.7245017 102.2549987  68.8595006 125.6795017
 103.2119987  68.8595006 125.6795017 102.0149987  69.7865006 125.6795017
 102.7119987  73.0405006 132.0455017 103.6689987  73.0405006 132.0455017
 102.4719987  73.9675006 132.0455017 100.9359987  73.8595006 125.2215017
 101.8929987  73.8595006 125.2215017 100.6959987  74.7865006 125.2215017
 106.2729987  69.0485006 131.7095017 107.2299987  69.0485006 131.7095017
 106.0329987  69.9755006 131.7095017  97.1229987  60.9055006 133.6445017
  98.0799987  60.9055006 133.6445017  96.8829987  61.8325006 133.6445017
  96.7529987  72.6905006 132.0065017  97.7099987  72.6905006 132.0065017
  96.5129987  73.6175006 132.0065017 102.6639987  71.1885006 119.2655017
 103.6209987  71.1885006 119.2655017 102.4239987  72.1155006 119.2655017
 101.4919987  70.7155006 121.7285017 102.4489987  70.7155006 121.7285017
 101.2519987  71.6425006 121.7285017  98.0039987  67.9625006 122.2195017
  98.9609987  67.9625006 122.2195017  97.7639987  68.8895006 122.2195017
 105.8119987  60.6405006 132.5615017 106.7689987  60.6405006 132.5615017
 105.5719987  61.5675006 132.5615017 106.3259987  60.4575006 123.5975017
 107.2829987  60.4575006 123.5975017 106.0859987  61.3845006 123.5975017
 104.2869987  72.3815006 122.4545017 105.2439987  72.3815006 122.4545017
 104.0469987  73.3085006 122.4545017 103.7909987  62.0115006 124.4405017
 104.7479987  62.0115006 124.4405017 103.5509987  62.9385006 124.4405017
 104.3069987  62.9185006 133.6195017 105.2639987  62.9185006 133.6195017
 104.0669987  63.8455006 133.6195017 104.6989987  59.0465006 125.3535017
 105.6559987  59.0465006 125.3535017 104.4589987  59.9735006 125.3535017
 101.6349987  73.4215006 122.4515017 102.5919987  73.4215006 122.4515017
 101.3949987  74.3485006 122.4515017 100.3269987  60.1375006 122.0485017
 101.2839987  60.1375006 122.0485017 100.0869987  61.0645006 122.0485017
  98.5649987  70.5795006 121.1015017  99.5219987  70.5795006 121.1015017
  98.3249987  71.5065006 121.1015017  96.9079987  63.2495006 120.2305017
  97.8649987  63.2495006 120.2305017  96.6679987  64.1765006 120.2305017
  97.7289987  58.0385006 128.9565017  98.6859987  58.0385006 128.9565017
  97.4889987  58.9655006 128.9565017  96.6739987  71.9575006 125.1025017
  97.6309987  71.9575006 125.1025017  96.4339987  72.8845006 125.1025017
  95.6219987  74.8265006 136.4255017  96.5789987  74.8265006 136.4255017
  95.3819987  75.7535006 136.4255017 104.7059987  73.0265006 119.4015017
 105.6629987  73.0265006 119.4015017 104.4659987  73.9535006 119.4015017
 100.1419987  68.7315006 119.4375017 101.0989987  68.7315006 119.4375017
  99.9019987  69.6585006 119.4375017 105.5969987  69.8085006 119.2065017
 106.5539987  69.8085006 119.2065017 105.3569987  70.7355006 119.2065017
 101.3409987  66.7415006 121.8235017 102.2979987  66.7415006 121.8235017
 101.1009987  67.6685006 121.8235017 100.6499987  64.5635006 134.1515017
 101.6069987  64.5635006 134.1515017 100.4099987  65.4905006 134.1515017
 102.4119987  64.9595006 120.0485017 103.3689987  64.9595006 120.0485017
 102.1719987  65.8865006 120.0485017 100.8689987  62.0255006 135.0775017
 101.8259987  62.0255006 135.0775017 100.6289987  62.9525006 135.0775017
 101.3259987  60.3685006 132.6875017 102.2829987  60.3685006 132.6875017
 101.0859987  61.2955006 132.6875017 102.9919987  65.7815006 132.9815017
 103.9489987  65.7815006 132.9815017 102.7519987  66.7085006 132.9815017
 102.1809987  57.6885006 133.0965017 103.1379987  57.6885006 133.0965017
 101.9409987  58.6155006 133.0965017 106.1189987  61.1265006 135.7575017
 107.0759987  61.1265006 135.7575017 105.8789987  62.0535006 135.7575017
 102.4699987  57.1885006 135.8235017 103.4269987  57.1885006 135.8235017
 102.2299987  58.1155006 135.8235017 102.2629987  75.6625006 121.1095017
 103.2199987  75.6625006 121.1095017 102.0229987  76.5895006 121.1095017
  95.8229987  70.2615006 120.5775017  96.7799987  70.2615006 120.5775017
  95.5829987  71.1885006 120.5775017  94.5789987  75.6425006 125.5685017
  95.5359987  75.6425006 125.5685017  94.3389987  76.5695006 125.5685017
  95.4079987  73.7615006 127.4225017  96.3649987  73.7615006 127.4225017
  95.1679987  74.6885006 127.4225017  95.4579987  66.8345006 129.9135017
  96.4149987  66.8345006 129.9135017  95.2179987  67.7615006 129.9135017
  95.0549987  62.1225006 136.0565017  96.0119987  62.1225006 136.0565017
  94.8149987  63.0495006 136.0565017  96.2799987  60.4275006 128.9185017
  97.2369987  60.4275006 128.9185017  96.0399987  61.3545006 128.9185017
  94.5659987  63.4165006 129.9695017  95.5229987  63.4165006 129.9695017
  94.3259987  64.3435006 129.9695017  94.9199987  59.6995006 124.0495017
  95.8769987  59.6995006 124.0495017  94.6799987  60.6265006 124.0495017
  94.8969987  58.3825006 132.3575017  95.8539987  58.3825006 132.3575017
  94.6569987  59.3095006 132.3575017  96.5159987  70.5645006 136.2855017
  97.4729987  70.5645006 136.2855017  96.2759987  71.4915006 136.2855017
 100.0109987  72.5365006 132.7315017 100.9679987  72.5365006 132.7315017
  99.7709987  73.4635006 132.7315017 104.2929987  74.1535006 135.4935017
 105.2499987  74.1535006 135.4935017 104.0529987  75.0805006 135.4935017
 106.7009987  75.2115006 134.9765017 107.6579987  75.2115006 134.9765017
 106.4609987  76.1385006 134.9765017  97.4329987  75.7845006 132.7755017
  98.3899987  75.7845006 132.7755017  97.1929987  76.7115006 132.7755017
  99.9069987  75.3845006 131.8275017 100.8639987  75.3845006 131.8275017
  99.6669987  76.3115006 131.8275017 104.5859987  75.2055006 130.8595017
 105.5429987  75.2055006 130.8595017 104.3459987  76.1325006 130.8595017
 106.9399987  74.1565006 132.0255017 107.8969987  74.1565006 132.0255017
 106.6999987  75.0835006 132.0255017  96.8759987  74.4435006 129.7105017
  97.8329987  74.4435006 129.7105017  96.6359987  75.3705006 129.7105017
  98.9709987  73.1525006 128.3685017  99.9279987  73.1525006 128.3685017
  98.7309987  74.0795006 128.3685017 101.5249987  73.6295006 129.2325017
 102.4819987  73.6295006 129.2325017 101.2849987  74.5565006 129.2325017
 105.0129987  59.2755006 128.3665017 105.9699987  59.2755006 128.3665017
 104.7729987  60.2025006 128.3665017  97.3919987  57.9175006 126.2235017
  98.3489987  57.9175006 126.2235017  97.1519987  58.8445006 126.2235017
  96.1829987  57.6745006 121.9695017  97.1399987  57.6745006 121.9695017
  95.9429987  58.6015006 121.9695017 101.9009987  57.8265006 126.0105017
 102.8579987  57.8265006 126.0105017 101.6609987  58.7535006 126.0105017
 107.4669987  57.7835006 127.8135017 108.4239987  57.7835006 127.8135017
 107.2269987  58.7105006 127.8135017  96.0959987  73.6225006 122.9555017
  97.0529987  73.6225006 122.9555017  95.8559987  74.5495006 122.9555017
  98.0149987  59.6145006 120.4565017  98.9719987  59.6145006 120.4565017
  97.7749987  60.5415006 120.4565017 103.0459987  59.8655006 122.8715017
 104.0029987  59.8655006 122.8715017 102.8059987  60.7925006 122.8715017
 104.9369987  74.9075006 121.3065017 105.8939987  74.9075006 121.3065017
 104.6969987  75.8345006 121.3065017  97.2879987  58.4225006 135.6775017
  98.2449987  58.4225006 135.6775017  97.0479987  59.3495006 135.6775017
  97.8909987  74.5945006 119.9185017  98.8479987  74.5945006 119.9185017
  97.6509987  75.5215006 119.9185017  12.1989987  85.9045006 126.1085017
  13.1559987  85.9045006 126.1085017  11.9589987  86.8315006 126.1085017
  11.0719987  85.1705006 129.5975017  12.0289987  85.1705006 129.5975017
  10.8319987  86.0975006 129.5975017   3.4699987  84.8035006 131.1325017
   4.4269987  84.8035006 131.1325017   3.2299987  85.7305006 131.1325017
  14.7699987  88.1115006 127.8725017  15.7269987  88.1115006 127.8725017
  14.5299987  89.0385006 127.8725017   4.3409987  89.2735006 129.6725017
   5.2979987  89.2735006 129.6725017   4.1009987  90.2005006 129.6725017
   1.0659987  82.9505006 125.0775017   2.0229987  82.9505006 125.0775017
   0.8259987  83.8775006 125.0775017   1.6879987  85.0415006 127.2555017
   2.6449987  85.0415006 127.2555017   1.4479987  85.9685006 127.2555017
  11.8829987  93.2615006 128.1065017  12.8399987  93.2615006 128.1065017
  11.6429987  94.1885006 128.1065017   9.4479987  87.5795006 130.0355017
  10.4049987  87.5795006 130.0355017   9.2079987  88.5065006 130.0355017
  18.0649987  79.2145006 130.8125017  19.0219987  79.2145006 130.8125017
  17.8249987  80.1415006 130.8125017  12.6109987  82.0335006 130.3615017
  13.5679987  82.0335006 130.3615017  12.3709987  82.9605006 130.3615017
   5.7359987  80.1115006 127.5815017   6.6929987  80.1115006 127.5815017
   5.4959987  81.0385006 127.5815017  13.4709987  80.2075006 125.9645017
  14.4279987  80.2075006 125.9645017  13.2309987  81.1345006 125.9645017
   2.5389987  82.5725006 128.2345017   3.4959987  82.5725006 128.2345017
   2.2989987  83.4995006 128.2345017   7.5189987  84.0815006 127.6175017
   8.4759987  84.0815006 127.6175017   7.2789987  85.0085006 127.6175017
  18.5019987  80.6515006 133.0585017  19.4589987  80.6515006 133.0585017
  18.2619987  81.5785006 133.0585017   4.6259987  79.0175006 131.6575017
   5.5829987  79.0175006 131.6575017   4.3859987  79.9445006 131.6575017
  11.9369987  88.5075006 125.1825017  12.8939987  88.5075006 125.1825017
  11.6969987  89.4345006 125.1825017   7.1519987  86.6635006 131.8955017
   8.1089987  86.6635006 131.8955017   6.9119987  87.5905006 131.8955017
  15.2669987  79.5405006 127.9525017  16.2239987  79.5405006 127.9525017
  15.0269987  80.4675006 127.9525017   4.1969987  80.8625006 129.6515017
   5.1539987  80.8625006 129.6515017   3.9569987  81.7895006 129.6515017
   5.5859987  88.6605006 132.6775017   6.5429987  88.6605006 132.6775017
   5.3459987  89.5875006 132.6775017   1.7059987  88.3075006 123.4665017
   2.6629987  88.3075006 123.4665017   1.4659987  89.2345006 123.4665017
  15.2949987  89.9455006 130.2395017  16.2519987  89.9455006 130.2395017
  15.0549987  90.8725006 130.2395017  15.6019987  78.2285006 131.6195017
  16.5589987  78.2285006 131.6195017  15.3619987  79.1555006 131.6195017
   8.5899987  76.3495006 129.0945017   9.5469987  76.3495006 129.0945017
   8.3499987  77.2765006 129.0945017  13.5459987  91.7315006 126.8425017
  14.5029987  91.7315006 126.8425017  13.3059987  92.6585006 126.8425017
  14.7469987  89.6585006 125.3505017  15.7039987  89.6585006 125.3505017
  14.5069987  90.5855006 125.3505017  16.4139987  88.2365006 133.8435017
  17.3709987  88.2365006 133.8435017  16.1739987  89.1635006 133.8435017
  10.8739987  85.1495006 123.6175017  11.8309987  85.1495006 123.6175017
  10.6339987  86.0765006 123.6175017  10.9189987  83.6815006 120.6305017
  11.8759987  83.6815006 120.6305017  10.6789987  84.6085006 120.6305017
  18.2559987  84.5455006 131.8835017  19.2129987  84.5455006 131.8835017
  18.0159987  85.4725006 131.8835017  14.3109987  85.3695006 124.5375017
  15.2679987  85.3695006 124.5375017  14.0709987  86.2965006 124.5375017
  14.2279987  83.4715006 133.5295017  15.1849987  83.4715006 133.5295017
  13.9879987  84.3985006 133.5295017   5.9519987  86.0325006 126.4445017
   6.9089987  86.0325006 126.4445017   5.7119987  86.9595006 126.4445017
   7.2599987  89.4175006 129.1245017   8.2169987  89.4175006 129.1245017
   7.0199987  90.3445006 129.1245017   6.2839987  84.7655006 130.0985017
   7.2409987  84.7655006 130.0985017   6.0439987  85.6925006 130.0985017
  12.6539987  90.3275006 130.8145017  13.6109987  90.3275006 130.8145017
  12.4139987  91.2545006 130.8145017   7.1629987  89.1305006 134.7925017
   8.1199987  89.1305006 134.7925017   6.9229987  90.0575006 134.7925017
  13.1739987  84.5515006 122.2085017  14.1309987  84.5515006 122.2085017
  12.9339987  85.4785006 122.2085017   4.1179987  85.3785006 134.0065017
   5.0749987  85.3785006 134.0065017   3.8779987  86.3055006 134.0065017
  10.8979987  91.2745006 125.6695017  11.8549987  91.2745006 125.6695017
  10.6579987  92.2015006 125.6695017   5.4279987  91.1955006 135.5825017
   6.3849987  91.1955006 135.5825017   5.1879987  92.1225006 135.5825017
  16.8829987  76.2575006 122.0825017  17.8399987  76.2575006 122.0825017
  16.6429987  77.1845006 122.0825017   4.9259987  85.0575006 124.0615017
   5.8829987  85.0575006 124.0615017   4.6859987  85.9845006 124.0615017
  18.0269987  90.6385006 120.4425017  18.9839987  90.6385006 120.4425017
  17.7869987  91.5655006 120.4425017   1.1279987  87.4355006 132.8615017
   2.0849987  87.4355006 132.8615017   0.8879987  88.3625006 132.8615017
   1.0089987  90.3355006 129.4545017   1.9659987  90.3355006 129.4545017
   0.7689987  91.2625006 129.4545017  19.0359987  90.8775006 135.3605017
  19.9929987  90.8775006 135.3605017  18.7959987  91.8045006 135.3605017
   9.9649987  90.4765006 134.2615017  10.9219987  90.4765006 134.2615017
   9.7249987  91.4035006 134.2615017  10.3799987  94.1965006 124.0865017
  11.3369987  94.1965006 124.0865017  10.1399987  95.1235006 124.0865017
   4.0209987  93.0575006 125.8785017   4.9779987  93.0575006 125.8785017
   3.7809987  93.9845006 125.8785017  13.4429987  93.4035006 121.0695017
  14.3999987  93.4035006 121.0695017  13.2029987  94.3305006 121.0695017
  13.1339987  93.3285006 123.8335017  14.0909987  93.3285006 123.8335017
  12.8939987  94.2555006 123.8335017  16.1389987  82.4145006 135.6805017
  17.0959987  82.4145006 135.6805017  15.8989987  83.3415006 135.6805017
   3.2779987  88.7835006 133.9005017   4.2349987  88.7835006 133.9005017
   3.0379987  89.7105006 133.9005017   5.9379987  77.2595006 129.8445017
   6.8949987  77.2595006 129.8445017   5.6979987  78.1865006 129.8445017
  10.5919987  76.8235006 133.1315017  11.5489987  76.8235006 133.1315017
  10.3519987  77.7505006 133.1315017  13.8849987  80.7535006 134.0935017
  14.8419987  80.7535006 134.0935017  13.6449987  81.6805006 134.0935017
  14.6239987  85.5995006 119.9545017  15.5809987  85.5995006 119.9545017
  14.3839987  86.5265006 119.9545017  10.2199987  79.4965006 120.5195017
  11.1769987  79.4965006 120.5195017   9.9799987  80.4235006 120.5195017
   6.0309987  82.2085006 131.0455017   6.9879987  82.2085006 131.0455017
   5.7909987  83.1355006 131.0455017   5.9849987  82.3725006 125.9485017
   6.9419987  82.3725006 125.9485017   5.7449987  83.2995006 125.9485017
  11.5289987  82.8435006 124.7335017  12.4859987  82.8435006 124.7335017
  11.2889987  83.7705006 124.7335017  10.5689987  82.8565006 135.9745017
  11.5259987  82.8565006 135.9745017  10.3289987  83.7835006 135.9745017
  12.5529987  82.3225006 127.5685017  13.5099987  82.3225006 127.5685017
  12.3129987  83.2495006 127.5685017   3.7149987  82.4825006 132.8355017
   4.6719987  82.4825006 132.8355017   3.4749987  83.4095006 132.8355017
   7.0789987  79.8805006 119.6285017   8.0359987  79.8805006 119.6285017
   6.8389987  80.8075006 119.6285017   0.4249987  78.9215006 127.0805017
   1.3819987  78.9215006 127.0805017   0.1849987  79.8485006 127.0805017
   1.8009987  80.3235006 122.2185017   2.7579987  80.3235006 122.2185017
   1.5609987  81.2505006 122.2185017  11.7719987  83.9365006 132.1855017
  12.7289987  83.9365006 132.1855017  11.5319987  84.8635006 132.1855017
   8.5579987  79.8825006 126.9795017   9.5149987  79.8825006 126.9795017
   8.3179987  80.8095006 126.9795017   3.3939987  81.4375006 125.8215017
   4.3509987  81.4375006 125.8215017   3.1539987  82.3645006 125.8215017
   7.0239987  81.4855006 123.4565017   7.9809987  81.4855006 123.4565017
   6.7839987  82.4125006 123.4565017  12.9679987  79.1205006 130.2245017
  13.9249987  79.1205006 130.2245017  12.7279987  80.0475006 130.2245017
   5.7079987  82.6785006 121.0435017   6.6649987  82.6785006 121.0435017
   5.4679987  83.6055006 121.0435017  16.2209987  94.7665006 136.4965017
  17.1779987  94.7665006 136.4965017  15.9809987  95.6935006 136.4965017
   3.7059987  87.2345006 136.0855017   4.6629987  87.2345006 136.0855017
   3.4659987  88.1615006 136.0855017   9.8569987  82.6505006 128.8645017
  10.8139987  82.6505006 128.8645017   9.6169987  83.5775006 128.8645017
   4.8569987  78.8035006 125.2815017   5.8139987  78.8035006 125.2815017
   4.6169987  79.7305006 125.2815017   8.4939987  80.9895006 131.2615017
   9.4509987  80.9895006 131.2615017   8.2539987  81.9165006 131.2615017
   9.0789987  87.2165006 122.9675017  10.0359987  87.2165006 122.9675017
   8.8389987  88.1435006 122.9675017  16.2339987  86.4025006 131.7765017
  17.1909987  86.4025006 131.7765017  15.9939987  87.3295006 131.7765017
  12.9099987  80.0265006 121.1635017  13.8669987  80.0265006 121.1635017
  12.6699987  80.9535006 121.1635017  10.5289987  87.4555006 134.1485017
  11.4859987  87.4555006 134.1485017  10.2889987  88.3825006 134.1485017
  13.6399987  81.9375006 122.8095017  14.5969987  81.9375006 122.8095017
  13.3999987  82.8645006 122.8095017   4.1829987  86.5875006 128.7675017
   5.1399987  86.5875006 128.7675017   3.9429987  87.5145006 128.7675017
  11.1849987  88.6805006 122.0005017  12.1419987  88.6805006 122.0005017
  10.9449987  89.6075006 122.0005017   1.2049987  84.9855006 134.0075017
   2.1619987  84.9855006 134.0075017   0.9649987  85.9125006 134.0075017
   8.3369987  84.9265006 135.7765017   9.2939987  84.9265006 135.7765017
   8.0969987  85.8535006 135.7765017  12.8679987  89.9135006 134.1745017
  13.8249987  89.9135006 134.1745017  12.6279987  90.8405006 134.1745017
  18.5239987  82.1035006 122.5895017  19.4809987  82.1035006 122.5895017
  18.2839987  83.0305006 122.5895017  18.5169987  87.9335006 135.3505017
  19.4739987  87.9335006 135.3505017  18.2769987  88.8605006 135.3505017
  16.8159987  90.9115006 122.9605017  17.7729987  90.9115006 122.9605017
  16.5759987  91.8385006 122.9605017  14.0259987  85.7435006 130.0145017
  14.9829987  85.7435006 130.0145017  13.7859987  86.6705006 130.0145017
   6.5689987  90.0425006 126.1535017   7.5259987  90.0425006 126.1535017
   6.3289987  90.9695006 126.1535017   2.2959987  84.8755006 120.7635017
   3.2529987  84.8755006 120.7635017   2.0559987  85.8025006 120.7635017
   7.9829987  87.7135006 125.6795017   8.9399987  87.7135006 125.6795017
   7.7429987  88.6405006 125.6795017   8.4359987  91.8925006 132.0455017
   9.3929987  91.8925006 132.0455017   8.1959987  92.8195006 132.0455017
   6.6629987  92.7135006 125.2165017   7.6199987  92.7135006 125.2165017
   6.4229987  93.6405006 125.2165017  11.9939987  87.9325006 131.7085017
  12.9509987  87.9325006 131.7085017  11.7539987  88.8595006 131.7085017
  14.2719987  88.9565006 120.7935017  15.2289987  88.9565006 120.7935017
  14.0319987  89.8835006 120.7935017  14.6979987  92.5065006 134.2055017
  15.6549987  92.5065006 134.2055017  14.4579987  93.4335006 134.2055017
  18.7479987  93.3325006 121.0365017  19.7049987  93.3325006 121.0365017
  18.5079987  94.2595006 121.0365017   2.8039987  79.7505006 133.6125017
   3.7609987  79.7505006 133.6125017   2.5639987  80.6775006 133.6125017
  15.0629987  87.6165006 123.0445017  16.0199987  87.6165006 123.0445017
  14.8229987  88.5435006 123.0445017   2.4629987  91.5375006 132.0015017
   3.4199987  91.5375006 132.0015017   2.2229987  92.4645006 132.0015017
   8.3909987  90.0415006 119.2725017   9.3479987  90.0415006 119.2725017
   8.1509987  90.9685006 119.2725017   7.2239987  89.5735006 121.7265017
   8.1809987  89.5735006 121.7265017   6.9839987  90.5005006 121.7265017
   3.6919987  86.8005006 122.2095017   4.6489987  86.8005006 122.2095017
   3.4519987  87.7275006 122.2095017  11.5739987  79.4855006 132.5095017
  12.5309987  79.4855006 132.5095017  11.3339987  80.4125006 132.5095017
  12.3179987  79.0855006 123.6165017  13.2749987  79.0855006 123.6165017
  12.0779987  80.0125006 123.6165017   9.9969987  91.2435006 122.4475017
  10.9539987  91.2435006 122.4475017   9.7569987  92.1705006 122.4475017
   9.5309987  80.8455006 124.4435017  10.4879987  80.8455006 124.4435017
   9.2909987  81.7725006 124.4435017  10.1169987  81.8675006 133.5485017
  11.0739987  81.8675006 133.5485017   9.8769987  82.7945006 133.5485017
  10.3929987  77.9015006 125.3485017  11.3499987  77.9015006 125.3485017
  10.1529987  78.8285006 125.3485017   7.3789987  92.2795006 122.4575017
   8.3359987  92.2795006 122.4575017   7.1389987  93.2065006 122.4575017
   6.0509987  79.0035006 122.0415017   7.0079987  79.0035006 122.0415017
   5.8109987  79.9305006 122.0415017  16.2729987  79.6975006 134.4055017
  17.2299987  79.6975006 134.4055017  16.0329987  80.6245006 134.4055017
  14.8759987  83.5175006 128.5095017  15.8329987  83.5175006 128.5095017
  14.6359987  84.4445006 128.5095017   4.3029987  89.4315006 121.1065017
   5.2599987  89.4315006 121.1065017   4.0629987  90.3585006 121.1065017
   2.5799987  82.1165006 120.2755017   3.5369987  82.1165006 120.2755017
   2.3399987  83.0435006 120.2755017  15.9409987  92.7625006 130.1535017
  16.8979987  92.7625006 130.1535017  15.7009987  93.6895006 130.1535017
   3.4509987  76.9005006 128.9405017   4.4079987  76.9005006 128.9405017
   3.2109987  77.8275006 128.9405017   2.3979987  90.8355006 125.1255017
   3.3549987  90.8355006 125.1255017   2.1579987  91.7625006 125.1255017
   1.4789987  93.4455006 136.3155017   2.4359987  93.4455006 136.3155017
   1.2389987  94.3725006 136.3155017  10.3969987  91.8965006 119.4065017
  11.3539987  91.8965006 119.4065017  10.1569987  92.8235006 119.4065017
  14.9679987  91.6545006 119.6055017  15.9249987  91.6545006 119.6055017
  14.7279987  92.5815006 119.6055017   5.8659987  87.5885006 119.4375017
   6.8229987  87.5885006 119.4375017   5.6259987  88.5155006 119.4375017
  11.2829987  88.6815006 119.1995017  12.2399987  88.6815006 119.1995017
  11.0429987  89.6085006 119.1995017  13.9259987  87.1655006 134.1725017
  14.8829987  87.1655006 134.1725017  13.6859987  88.0925006 134.1725017
   7.0619987  85.5965006 121.8255017   8.0189987  85.5965006 121.8255017
   6.8219987  86.5235006 121.8255017   6.3629987  83.4385006 134.1565017
   7.3199987  83.4385006 134.1565017   6.1229987  84.3655006 134.1565017
   8.1329987  83.8185006 120.0475017   9.0899987  83.8185006 120.0475017
   7.8929987  84.7455006 120.0475017  17.4929987  86.1665006 119.4765017
  18.4499987  86.1665006 119.4765017  17.2529987  87.0935006 119.4765017
   6.5049987  80.8795006 135.0635017   7.4619987  80.8795006 135.0635017
   6.2649987  81.8065006 135.0635017   7.1159987  79.1725006 132.7635017
   8.0729987  79.1725006 132.7635017   6.8759987  80.0995006 132.7635017
   8.6929987  84.6345006 132.9775017   9.6499987  84.6345006 132.9775017
   8.4529987  85.5615006 132.9775017  14.2749987  85.0245006 135.4975017
  15.2319987  85.0245006 135.4975017  14.0349987  85.9515006 135.4975017
   7.9239987  76.6265006 133.1595017   8.8809987  76.6265006 133.1595017
   7.6839987  77.5535006 133.1595017  12.0139987  80.2285006 135.8865017
  12.9709987  80.2285006 135.8865017  11.7739987  81.1555006 135.8865017
   8.0329987  75.8475006 135.8375017   8.9899987  75.8475006 135.8375017
   7.7929987  76.7745006 135.8375017   7.9809987  94.5145006 121.1085017
   8.9379987  94.5145006 121.1085017   7.7409987  95.4415006 121.1085017
   1.6089987  89.1225006 120.5795017   2.5659987  89.1225006 120.5795017
   1.3689987  90.0495006 120.5795017 108.0929987  94.5525006 125.5825017
 109.0499987  94.5525006 125.5825017 107.8529987  95.4795006 125.5825017
   1.5129987  92.7665006 127.5335017   2.4699987  92.7665006 127.5335017
   1.2729987  93.6935006 127.5335017  18.6629987  93.4205006 130.3645017
  19.6199987  93.4205006 130.3645017  18.4229987  94.3475006 130.3645017
  18.2659987  93.0095006 133.2885017  19.2229987  93.0095006 133.2885017
  18.0259987  93.9365006 133.2885017  17.9899987  87.0575006 123.4285017
  18.9469987  87.0575006 123.4285017  17.7499987  87.9845006 123.4285017
  18.3649987  85.1305006 125.2985017  19.3219987  85.1305006 125.2985017
  18.1249987  86.0575006 125.2985017  18.1159987  87.8385006 130.2715017
  19.0729987  87.8385006 130.2715017  17.8759987  88.7655006 130.2715017
  16.6589987  90.7235006 132.5625017  17.6159987  90.7235006 132.5625017
  16.4189987  91.6505006 132.5625017  18.6839987  84.9855006 121.6905017
  19.6409987  84.9855006 121.6905017  18.4439987  85.9125006 121.6905017
  16.5179987  82.7495006 120.1665017  17.4749987  82.7495006 120.1665017
  16.2779987  83.6765006 120.1665017  16.1789987  83.6115006 125.8615017
  17.1359987  83.6115006 125.8615017  15.9389987  84.5385006 125.8615017
   1.1769987  85.6745006 129.9175017   2.1339987  85.6745006 129.9175017
   0.9369987  86.6015006 129.9175017  17.0249987  85.4215006 135.0845017
  17.9819987  85.4215006 135.0845017  16.7849987  86.3485006 135.0845017
  18.5699987  83.5105006 136.1065017  19.5269987  83.5105006 136.1065017
  18.3299987  84.4375006 136.1065017  16.0509987  79.1895006 119.1255017
  17.0079987  79.1895006 119.1255017  15.8109987  80.1165006 119.1255017
  15.8329987  81.2005006 124.3125017  16.7899987  81.2005006 124.3125017
  15.5929987  82.1275006 124.3125017  16.4789987  81.7405006 129.7605017
  17.4359987  81.7405006 129.7605017  16.2389987  82.6675006 129.7605017
  16.5469987  82.4765006 132.5525017  17.5039987  82.4765006 132.5525017
  16.3069987  83.4035006 132.5525017   0.9169987  80.9935006 136.0105017
   1.8739987  80.9935006 136.0105017   0.6769987  81.9205006 136.0105017
  16.4969987  78.4755006 124.3865017  17.4539987  78.4755006 124.3865017
  16.2569987  79.4025006 124.3865017   2.0869987  79.3115006 128.9095017
   3.0439987  79.3115006 128.9095017   1.8469987  80.2385006 128.9095017
   0.8869987  82.2465006 130.1265017   1.8439987  82.2465006 130.1265017
   0.6469987  83.1735006 130.1265017  18.4089987  78.6255006 136.0785017
  19.3659987  78.6255006 136.0785017  18.1689987  79.5525006 136.0785017
  18.4819987  78.2165006 121.1495017  19.4389987  78.2165006 121.1495017
  18.2419987  79.1435006 121.1495017   0.8929987  78.4895006 124.0555017
   1.8499987  78.4895006 124.0555017   0.6529987  79.4165006 124.0555017
  15.3879987  93.5005006 125.9875017  16.3449987  93.5005006 125.9875017
  15.1479987  94.4275006 125.9875017 108.3439987  77.2175006 132.3855017
 109.3009987  77.2175006 132.3855017 108.1039987  78.1445006 132.3855017
   2.8359987  90.5315006 136.4505017   3.7929987  90.5315006 136.4505017
   2.5959987  91.4585006 136.4505017   5.7349987  91.3985006 132.7595017
   6.6919987  91.3985006 132.7595017   5.4949987  92.3255006 132.7595017
  10.0209987  93.0565006 135.4935017  10.9779987  93.0565006 135.4935017
   9.7809987  93.9835006 135.4935017  12.3849987  94.1055006 135.0035017
  13.3419987  94.1055006 135.0035017  12.1449987  95.0325006 135.0035017
  17.3599987  76.7265006 134.0755017  18.3169987  76.7265006 134.0755017
  17.1199987  77.6535006 134.0755017   3.1449987  94.6625006 132.8075017
   4.1019987  94.6625006 132.8075017   2.9049987  95.5895006 132.8075017
   5.6339987  94.2415006 131.8265017   6.5909987  94.2415006 131.8265017
   5.3939987  95.1685006 131.8265017  10.3379987  94.1375006 131.0195017
  11.2949987  94.1375006 131.0195017  10.0979987  95.0645006 131.0195017
  12.6389987  92.9815006 132.0095017  13.5959987  92.9815006 132.0095017
  12.3989987  93.9085006 132.0095017  15.2189987  94.5495006 132.2795017
  16.1759987  94.5495006 132.2795017  14.9789987  95.4765006 132.2795017
   2.6349987  93.3185006 129.7725017   3.5919987  93.3185006 129.7725017
   2.3949987  94.2455006 129.7725017   4.6819987  92.0075006 128.3695017
   5.6389987  92.0075006 128.3695017   4.4419987  92.9345006 128.3695017
   7.2699987  92.4865006 129.2455017   8.2269987  92.4865006 129.2455017
   7.0299987  93.4135006 129.2455017  10.7569987  78.1435006 128.3865017
  11.7139987  78.1435006 128.3865017  10.5169987  79.0705006 128.3865017
  15.8949987  76.1975006 128.4755017  16.8519987  76.1975006 128.4755017
  15.6549987  77.1245006 128.4755017  17.5689987  77.4075006 126.7745017
  18.5259987  77.4075006 126.7745017  17.3289987  78.3345006 126.7745017
   3.1329987  76.7785006 126.1735017   4.0899987  76.7785006 126.1735017
   2.8929987  77.7055006 126.1735017   1.9419987  76.5275006 122.0225017
   2.8989987  76.5275006 122.0225017   1.7019987  77.4545006 122.0225017
   7.6119987  76.6835006 126.0175017   8.5689987  76.6835006 126.0175017
   7.3719987  77.6105006 126.0175017  13.2849987  76.7175006 127.6535017
  14.2419987  76.7175006 127.6535017  13.0449987  77.6445006 127.6535017
  14.5789987  76.7515006 123.3345017  15.5359987  76.7515006 123.3345017
  14.3389987  77.6785006 123.3345017   1.9329987  92.4965006 122.9575017
   2.8899987  92.4965006 122.9575017   1.6929987  93.4235006 122.9575017
   3.7349987  78.4805006 120.4545017   4.6919987  78.4805006 120.4545017
   3.4949987  79.4075006 120.4545017   8.7599987  78.7255006 122.8725017
   9.7169987  78.7255006 122.8725017   8.5199987  79.6525006 122.8725017
  10.6769987  93.7615006 121.3185017  11.6339987  93.7615006 121.3185017
  10.4369987  94.6885006 121.3185017  17.3899987  93.2875006 124.0215017
  18.3469987  93.2875006 124.0215017  17.1499987  94.2145006 124.0215017
   3.0179987  77.2375006 135.6415017   3.9749987  77.2375006 135.6415017
   2.7779987  78.1645006 135.6415017   3.5819987  93.4225006 119.9045017
   4.5389987  93.4225006 119.9045017   3.3419987  94.3495006 119.9045017
  16.8069987  92.1345006 135.9015017  17.7639987  92.1345006 135.9015017
  16.5669987  93.0615006 135.9015017  31.0699987  85.9145006 126.0915017
  32.0269987  85.9145006 126.0915017  30.8299987  86.8415006 126.0915017
  29.9259987  85.1705006 129.5995017  30.8829987  85.1705006 129.5995017
  29.6859987  86.0975006 129.5995017  22.2769987  84.8265006 131.1575017
  23.2339987  84.8265006 131.1575017  22.0369987  85.7535006 131.1575017
  33.6109987  88.1175006 127.8595017  34.5679987  88.1175006 127.8595017
  33.3709987  89.0445006 127.8595017  23.2119987  89.2785006 129.6655017
  24.1689987  89.2785006 129.6655017  22.9719987  90.2055006 129.6655017
  19.8499987  82.8575006 125.1415017  20.8069987  82.8575006 125.1415017
  19.6099987  83.7845006 125.1415017  20.5519987  85.0695006 127.2615017
  21.5089987  85.0695006 127.2615017  20.3119987  85.9965006 127.2615017
  30.7389987  93.2605006 128.1045017  31.6959987  93.2605006 128.1045017
  30.4989987  94.1875006 128.1045017  28.3039987  87.5795006 130.0355017
  29.2609987  87.5795006 130.0355017  28.0639987  88.5065006 130.0355017
  36.9439987  79.2015006 130.8225017  37.9009987  79.2015006 130.8225017
  36.7039987  80.1285006 130.8225017  31.4669987  82.0345006 130.3615017
  32.4239987  82.0345006 130.3615017  31.2269987  82.9615006 130.3615017
  24.6379987  80.1915006 127.5735017  25.5949987  80.1915006 127.5735017
  24.3979987  81.1185006 127.5735017  32.3209987  80.2085006 125.9655017
  33.2779987  80.2085006 125.9655017  32.0809987  81.1355006 125.9655017
  21.2099987  82.5195006 128.3365017  22.1669987  82.5195006 128.3365017
  20.9699987  83.4465006 128.3365017  26.3799987  84.0885006 127.6205017
  27.3369987  84.0885006 127.6205017  26.1399987  85.0155006 127.6205017
  37.3589987  80.6485006 133.0685017  38.3159987  80.6485006 133.0685017
  37.1189987  81.5755006 133.0685017  23.4609987  78.9915006 131.6215017
  24.4179987  78.9915006 131.6215017  23.2209987  79.9185006 131.6215017
  30.8759987  88.5405006 125.1405017  31.8329987  88.5405006 125.1405017
  30.6359987  89.4675006 125.1405017  26.0079987  86.6635006 131.8955017
  26.9649987  86.6635006 131.8955017  25.7679987  87.5905006 131.8955017
  34.1179987  79.5445006 127.9555017  35.0749987  79.5445006 127.9555017
  33.8779987  80.4715006 127.9555017  23.0439987  80.8565006 129.6295017
  24.0009987  80.8565006 129.6295017  22.8039987  81.7835006 129.6295017
  24.4339987  88.6595006 132.6815017  25.3909987  88.6595006 132.6815017
  24.1939987  89.5865006 132.6815017  20.5339987  88.2915006 123.4965017
  21.4909987  88.2915006 123.4965017  20.2939987  89.2185006 123.4965017
  34.1509987  89.9455006 130.2385017  35.1079987  89.9455006 130.2385017
  33.9109987  90.8725006 130.2385017  34.4729987  78.2335006 131.6415017
  35.4299987  78.2335006 131.6415017  34.2329987  79.1605006 131.6415017
  27.4319987  76.3525006 129.0735017  28.3889987  76.3525006 129.0735017
  27.1919987  77.2795006 129.0735017  32.3889987  91.7285006 126.8265017
  33.3459987  91.7285006 126.8265017  32.1489987  92.6555006 126.8265017
  33.6249987  89.6725006 125.5115017  34.5819987  89.6725006 125.5115017
  33.3849987  90.5995006 125.5115017  35.2699987  88.2365006 133.8435017
  36.2269987  88.2365006 133.8435017  35.0299987  89.1635006 133.8435017
  29.7419987  85.1715006 123.6265017  30.6989987  85.1715006 123.6265017
  29.5019987  86.0985006 123.6265017  29.7889987  83.6795006 120.6265017
  30.7459987  83.6795006 120.6265017  29.5489987  84.6065006 120.6265017
  37.1109987  84.5455006 131.8815017  38.0679987  84.5455006 131.8815017
  36.8709987  85.4725006 131.8815017  33.1709987  85.3765006 124.5485017
  34.1279987  85.3765006 124.5485017  32.9309987  86.3035006 124.5485017
  33.0819987  83.4695006 133.5315017  34.0389987  83.4695006 133.5315017
  32.8419987  84.3965006 133.5315017  24.7889987  86.0325006 126.4405017
  25.7459987  86.0325006 126.4405017  24.5489987  86.9595006 126.4405017
  26.1169987  89.4185006 129.1255017  27.0739987  89.4185006 129.1255017
  25.8769987  90.3455006 129.1255017  25.1249987  84.7615006 130.0985017
  26.0819987  84.7615006 130.0985017  24.8849987  85.6885006 130.0985017
  31.5139987  90.3265006 130.8185017  32.4709987  90.3265006 130.8185017
  31.2739987  91.2535006 130.8185017  26.0199987  89.1305006 134.7915017
  26.9769987  89.1305006 134.7915017  25.7799987  90.0575006 134.7915017
  32.0249987  84.5695006 122.2125017  32.9819987  84.5695006 122.2125017
  31.7849987  85.4965006 122.2125017  22.9869987  85.3655006 134.0025017
  23.9439987  85.3655006 134.0025017  22.7469987  86.2925006 134.0025017
  29.7799987  91.2785006 125.6475017  30.7369987  91.2785006 125.6475017
  29.5399987  92.2055006 125.6475017  24.2809987  91.1905006 135.5825017
  25.2379987  91.1905006 135.5825017  24.0409987  92.1175006 135.5825017
  35.7589987  76.2815006 122.0775017  36.7159987  76.2815006 122.0775017
  35.5189987  77.2085006 122.0775017  23.7669987  85.0525006 124.0635017
  24.7239987  85.0525006 124.0635017  23.5269987  85.9795006 124.0635017
  36.8699987  90.6285006 120.4985017  37.8269987  90.6285006 120.4985017
  36.6299987  91.5555006 120.4985017  19.8599987  87.4685006 132.8995017
  20.8169987  87.4685006 132.8995017  19.6199987  88.3955006 132.8995017
  19.6089987  90.2025006 129.7305017  20.5659987  90.2025006 129.7305017
  19.3689987  91.1295006 129.7305017  37.8919987  90.8775006 135.3595017
  38.8489987  90.8775006 135.3595017  37.6519987  91.8045006 135.3595017
  28.8249987  90.4775006 134.2615017  29.7819987  90.4775006 134.2615017
  28.5849987  91.4045006 134.2615017  29.2349987  94.2015006 124.0855017
  30.1919987  94.2015006 124.0855017  28.9949987  95.1285006 124.0855017
  22.8779987  93.0615006 125.8935017  23.8349987  93.0615006 125.8935017
  22.6379987  93.9885006 125.8935017  32.2959987  93.4025006 121.0645017
  33.2529987  93.4025006 121.0645017  32.0559987  94.3295006 121.0645017
  31.9899987  93.2955006 123.8115017  32.9469987  93.2955006 123.8115017
  31.7499987  94.2225006 123.8115017  34.9939987  82.4225006 135.6805017
  35.9509987  82.4225006 135.6805017  34.7539987  83.3495006 135.6805017
  22.1199987  88.7625006 133.9035017  23.0769987  88.7625006 133.9035017
  21.8799987  89.6895006 133.9035017  24.7899987  77.2835006 129.8005017
  25.7469987  77.2835006 129.8005017  24.5499987  78.2105006 129.8005017
  29.4359987  76.9475006 133.2455017  30.3929987  76.9475006 133.2455017
  29.1959987  77.8745006 133.2455017  32.7229987  80.7445006 134.0955017
  33.6799987  80.7445006 134.0955017  32.4829987  81.6715006 134.0955017
  33.4799987  85.6055006 119.9535017  34.4369987  85.6055006 119.9535017
  33.2399987  86.5325006 119.9535017  29.0909987  79.4935006 120.5195017
  30.0479987  79.4935006 120.5195017  28.8509987  80.4205006 120.5195017
  24.8639987  82.1945006 131.0265017  25.8209987  82.1945006 131.0265017
  24.6239987  83.1215006 131.0265017  24.8589987  82.3425006 125.9575017
  25.8159987  82.3425006 125.9575017  24.6189987  83.2695006 125.9575017
  30.3809987  82.8435006 124.7385017  31.3379987  82.8435006 124.7385017
  30.1409987  83.7705006 124.7385017  29.4399987  82.8255006 135.9685017
  30.3969987  82.8255006 135.9685017  29.1999987  83.7525006 135.9685017
  31.4079987  82.3225006 127.5685017  32.3649987  82.3225006 127.5685017
  31.1679987  83.2495006 127.5685017  22.5649987  82.4915006 132.8275017
  23.5219987  82.4915006 132.8275017  22.3249987  83.4185006 132.8275017
  25.9259987  79.8825006 119.6365017  26.8829987  79.8825006 119.6365017
  25.6859987  80.8095006 119.6365017  19.1839987  79.6085006 126.7435017
  20.1409987  79.6085006 126.7435017  18.9439987  80.5355006 126.7435017
  20.5289987  80.3625006 122.2145017  21.4859987  80.3625006 122.2145017
  20.2889987  81.2895006 122.2145017  30.6279987  83.9365006 132.1875017
  31.5849987  83.9365006 132.1875017  30.3879987  84.8635006 132.1875017
  27.4119987  79.8575006 126.9755017  28.3689987  79.8575006 126.9755017
  27.1719987  80.7845006 126.9755017  22.2289987  81.4285006 125.8585017
  23.1859987  81.4285006 125.8585017  21.9889987  82.3555006 125.8585017
  25.8779987  81.4785006 123.4675017  26.8349987  81.4785006 123.4675017
  25.6379987  82.4055006 123.4675017  31.8269987  79.1215006 130.2205017
  32.7839987  79.1215006 130.2205017  31.5869987  80.0485006 130.2205017
  24.5729987  82.6715006 121.0505017  25.5299987  82.6715006 121.0505017
  24.3329987  83.5985006 121.0505017  35.0769987  94.7675006 136.4965017
  36.0339987  94.7675006 136.4965017  34.8369987  95.6945006 136.4965017
  22.5599987  87.2565006 136.0725017  23.5169987  87.2565006 136.0725017
  22.3199987  88.1835006 136.0725017  28.7109987  82.6495006 128.8645017
  29.6679987  82.6495006 128.8645017  28.4709987  83.5765006 128.8645017
  23.7489987  78.7685006 125.3315017  24.7059987  78.7685006 125.3315017
  23.5089987  79.6955006 125.3315017  27.3339987  80.9745006 131.2735017
  28.2909987  80.9745006 131.2735017  27.0939987  81.9015006 131.2735017
  27.9489987  87.2205006 122.9675017  28.9059987  87.2205006 122.9675017
  27.7089987  88.1475006 122.9675017  35.0899987  86.4025006 131.7765017
  36.0469987  86.4025006 131.7765017  34.8499987  87.3295006 131.7765017
  31.7749987  80.0275006 121.1505017  32.7319987  80.0275006 121.1505017
  31.5349987  80.9545006 121.1505017  29.3849987  87.4565006 134.1485017
  30.3419987  87.4565006 134.1485017  29.1449987  88.3835006 134.1485017
  32.5019987  81.9315006 122.7935017  33.4589987  81.9315006 122.7935017
  32.2619987  82.8585006 122.7935017  23.0409987  86.5805006 128.7695017
  23.9979987  86.5805006 128.7695017  22.8009987  87.5075006 128.7695017
  30.0689987  88.6855006 122.0375017  31.0259987  88.6855006 122.0375017
  29.8289987  89.6125006 122.0375017  20.0329987  85.0055006 134.0325017
  20.9899987  85.0055006 134.0325017  19.7929987  85.9325006 134.0325017
  27.1999987  84.9165006 135.7725017  28.1569987  84.9165006 135.7725017
  26.9599987  85.8435006 135.7725017  31.7239987  89.9125006 134.1745017
  32.6809987  89.9125006 134.1745017  31.4839987  90.8395006 134.1745017
  37.4119987  82.0815006 122.5465017  38.3689987  82.0815006 122.5465017
  37.1719987  83.0085006 122.5465017  37.3729987  87.9335006 135.3505017
  38.3299987  87.9335006 135.3505017  37.1329987  88.8605006 135.3505017
  35.5999987  90.9145006 122.9285017  36.5569987  90.9145006 122.9285017
  35.3599987  91.8415006 122.9285017  32.8829987  85.7445006 130.0135017
  33.8399987  85.7445006 130.0135017  32.6429987  86.6715006 130.0135017
  25.4139987  90.0495006 126.1535017  26.3709987  90.0495006 126.1535017
  25.1739987  90.9765006 126.1535017  21.1899987  84.9105006 120.7215017
  22.1469987  84.9105006 120.7215017  20.9499987  85.8375006 120.7215017
  26.8379987  87.7155006 125.6815017  27.7949987  87.7155006 125.6815017
  26.5979987  88.6425006 125.6815017  27.2929987  91.8925006 132.0465017
  28.2499987  91.8925006 132.0465017  27.0529987  92.8195006 132.0465017
  25.5119987  92.7145006 125.2165017  26.4689987  92.7145006 125.2165017
  25.2719987  93.6415006 125.2165017  30.8509987  87.9335006 131.7095017
  31.8079987  87.9335006 131.7095017  30.6109987  88.8605006 131.7095017
  33.1139987  88.9715006 120.7885017  34.0709987  88.9715006 120.7885017
  32.8739987  89.8985006 120.7885017  33.5539987  92.5065006 134.2055017
  34.5109987  92.5065006 134.2055017  33.3139987  93.4335006 134.2055017
  37.6069987  93.3375006 121.0525017  38.5639987  93.3375006 121.0525017
  37.3669987  94.2645006 121.0525017  21.6879987  79.7645006 133.6435017
  22.6449987  79.7645006 133.6435017  21.4479987  80.6915006 133.6435017
  34.0509987  87.2415006 122.8895017  35.0079987  87.2415006 122.8895017
  33.8109987  88.1685006 122.8895017  21.3189987  91.5365006 132.0015017
  22.2759987  91.5365006 132.0015017  21.0789987  92.4635006 132.0015017
  27.2479987  90.0405006 119.2735017  28.2049987  90.0405006 119.2735017
  27.0079987  90.9675006 119.2735017  26.0669987  89.5725006 121.7285017
  27.0239987  89.5725006 121.7285017  25.8269987  90.4995006 121.7285017
  22.5809987  86.8185006 122.2205017  23.5379987  86.8185006 122.2205017
  22.3409987  87.7455006 122.2205017  30.4199987  79.5025006 132.5215017
  31.3769987  79.5025006 132.5215017  30.1799987  80.4295006 132.5215017
  31.1709987  79.0905006 123.6185017  32.1279987  79.0905006 123.6185017
  30.9309987  80.0175006 123.6185017  28.8699987  91.2425006 122.4515017
  29.8269987  91.2425006 122.4515017  28.6299987  92.1695006 122.4515017
  28.3899987  80.8475006 124.4405017  29.3469987  80.8475006 124.4405017
  28.1499987  81.7745006 124.4405017  28.9469987  81.8435006 133.5685017
  29.9039987  81.8435006 133.5685017  28.7069987  82.7705006 133.5685017
  29.2489987  77.9025006 125.3465017  30.2059987  77.9025006 125.3465017
  29.0089987  78.8295006 125.3465017  26.2359987  92.2785006 122.4585017
  27.1929987  92.2785006 122.4585017  25.9959987  93.2055006 122.4585017
  24.9019987  78.9885006 122.0695017  25.8589987  78.9885006 122.0695017
  24.6619987  79.9155006 122.0695017  35.1329987  79.6875006 134.4135017
  36.0899987  79.6875006 134.4135017  34.8929987  80.6145006 134.4135017
  33.7319987  83.5155006 128.5095017  34.6889987  83.5155006 128.5095017
  33.4919987  84.4425006 128.5095017  23.1409987  89.4355006 121.1005017
  24.0979987  89.4355006 121.1005017  22.9009987  90.3625006 121.1005017
  21.4829987  82.1045006 120.2175017  22.4399987  82.1045006 120.2175017
  21.2429987  83.0315006 120.2175017  34.7919987  92.7735006 130.1585017
  35.7489987  92.7735006 130.1585017  34.5519987  93.7005006 130.1585017
  22.1059987  76.7905006 129.0755017  23.0629987  76.7905006 129.0755017
  21.8659987  77.7175006 129.0755017  21.2499987  90.8135006 125.1025017
  22.2069987  90.8135006 125.1025017  21.0099987  91.7405006 125.1025017
  20.3579987  93.4885006 136.3285017  21.3149987  93.4885006 136.3285017
  20.1179987  94.4155006 136.3285017  29.2489987  91.8985006 119.4065017
  30.2059987  91.8985006 119.4065017  29.0089987  92.8255006 119.4065017
  33.8299987  91.6565006 119.6255017  34.7869987  91.6565006 119.6255017
  33.5899987  92.5835006 119.6255017  24.7299987  87.5925006 119.4445017
  25.6869987  87.5925006 119.4445017  24.4899987  88.5195006 119.4445017
  30.1659987  88.6825006 119.2065017  31.1229987  88.6825006 119.2065017
  29.9259987  89.6095006 119.2065017  32.7809987  87.1645006 134.1735017
  33.7379987  87.1645006 134.1735017  32.5409987  88.0915006 134.1735017
  25.9189987  85.5965006 121.8265017  26.8759987  85.5965006 121.8265017
  25.6789987  86.5235006 121.8265017  25.2179987  83.4365006 134.1575017
  26.1749987  83.4365006 134.1575017  24.9779987  84.3635006 134.1575017
  26.9879987  83.8175006 120.0475017  27.9449987  83.8175006 120.0475017
  26.7479987  84.7445006 120.0475017  36.3299987  86.1575006 119.4875017
  37.2869987  86.1575006 119.4875017  36.0899987  87.0845006 119.4875017
  25.3899987  80.8815006 135.0735017  26.3469987  80.8815006 135.0735017
  25.1499987  81.8085006 135.0735017  25.9809987  79.1535006 132.7605017
  26.9379987  79.1535006 132.7605017  25.7409987  80.0805006 132.7605017
  27.5489987  84.6335006 132.9765017  28.5059987  84.6335006 132.9765017
  27.3089987  85.5605006 132.9765017  33.1339987  85.0255006 135.4985017
  34.0909987  85.0255006 135.4985017  32.8939987  85.9525006 135.4985017
  26.7819987  76.6275006 133.1815017  27.7389987  76.6275006 133.1815017
  26.5419987  77.5545006 133.1815017  30.7729987  80.0295006 135.7885017
  31.7299987  80.0295006 135.7885017  30.5329987  80.9565006 135.7885017
  27.0009987  75.9755006 135.8535017  27.9579987  75.9755006 135.8535017
  26.7609987  76.9025006 135.8535017  26.8389987  94.5175006 121.1085017
  27.7959987  94.5175006 121.1085017  26.5989987  95.4445006 121.1085017
  20.3989987  89.1175006 120.5775017  21.3559987  89.1175006 120.5775017
  20.1589987  90.0445006 120.5775017  19.1549987  94.5005006 125.5665017
  20.1119987  94.5005006 125.5665017  18.9149987  95.4275006 125.5665017
  19.9829987  92.6175006 127.4215017  20.9399987  92.6175006 127.4215017
  19.7429987  93.5445006 127.4215017  37.5189987  93.4205006 130.3645017
  38.4759987  93.4205006 130.3645017  37.2789987  94.3475006 130.3645017
  37.1219987  93.0125006 133.2935017  38.0789987  93.0125006 133.2935017
  36.8819987  93.9395006 133.2935017  36.8299987  87.0895006 123.4525017
  37.7869987  87.0895006 123.4525017  36.5899987  88.0165006 123.4525017
  37.2189987  85.1295006 125.2935017  38.1759987  85.1295006 125.2935017
  36.9789987  86.0565006 125.2935017  36.9709987  87.8385006 130.2715017
  37.9279987  87.8385006 130.2715017  36.7309987  88.7655006 130.2715017
  35.5149987  90.7225006 132.5625017  36.4719987  90.7225006 132.5625017
  35.2749987  91.6495006 132.5625017  37.5229987  84.9575006 121.6895017
  38.4799987  84.9575006 121.6895017  37.2829987  85.8845006 121.6895017
  35.8889987  82.1925006 120.2155017  36.8459987  82.1925006 120.2155017
  35.6489987  83.1195006 120.2155017  35.0339987  83.6105006 125.8605017
  35.9909987  83.6105006 125.8605017  34.7939987  84.5375006 125.8605017
  20.0399987  85.6905006 129.9045017  20.9969987  85.6905006 129.9045017
  19.7999987  86.6175006 129.9045017  35.8809987  85.4225006 135.0845017
  36.8379987  85.4225006 135.0845017  35.6409987  86.3495006 135.0845017
  37.4239987  83.5155006 136.1075017  38.3809987  83.5155006 136.1075017
  37.1839987  84.4425006 136.1075017  35.1249987  79.6565006 119.3455017
  36.0819987  79.6565006 119.3455017  34.8849987  80.5835006 119.3455017
  34.6919987  81.1965006 124.2955017  35.6489987  81.1965006 124.2955017
  34.4519987  82.1235006 124.2955017  35.3389987  81.7325006 129.7645017
  36.2959987  81.7325006 129.7645017  35.0989987  82.6595006 129.7645017
  35.3969987  82.4835006 132.5515017  36.3539987  82.4835006 132.5515017
  35.1569987  83.4105006 132.5515017  19.6469987  80.9705006 136.0425017
  20.6039987  80.9705006 136.0425017  19.4069987  81.8975006 136.0425017
  35.3689987  78.4765006 124.3705017  36.3259987  78.4765006 124.3705017
  35.1289987  79.4035006 124.3705017  20.9289987  79.2745006 128.8535017
  21.8859987  79.2745006 128.8535017  20.6889987  80.2015006 128.8535017
  19.1429987  82.2775006 129.9755017  20.0999987  82.2775006 129.9755017
  18.9029987  83.2045006 129.9755017  37.0769987  78.7995006 136.1065017
  38.0339987  78.7995006 136.1065017  36.8369987  79.7265006 136.1065017
  37.1929987  78.5155006 120.9235017  38.1499987  78.5155006 120.9235017
  36.9529987  79.4425006 120.9235017  19.5119987  78.5725006 124.0585017
  20.4689987  78.5725006 124.0585017  19.2719987  79.4995006 124.0585017
  34.2429987  93.4875006 125.9825017  35.1999987  93.4875006 125.9825017
  34.0029987  94.4145006 125.9825017  19.4729987  77.2365006 132.3595017
  20.4299987  77.2365006 132.3595017  19.2329987  78.1635006 132.3595017
  21.6899987  90.5185006 136.4465017  22.6469987  90.5185006 136.4465017
  21.4499987  91.4455006 136.4465017  24.5939987  91.3965006 132.7585017
  25.5509987  91.3965006 132.7585017  24.3539987  92.3235006 132.7585017
  28.8769987  93.0555006 135.4935017  29.8339987  93.0555006 135.4935017
  28.6369987  93.9825006 135.4935017  31.2409987  94.1055006 135.0025017
  32.1979987  94.1055006 135.0025017  31.0009987  95.0325006 135.0025017
  36.2519987  76.7425006 134.0815017  37.2089987  76.7425006 134.0815017
  36.0119987  77.6695006 134.0815017  22.0189987  94.6545006 132.7745017
  22.9759987  94.6545006 132.7745017  21.7789987  95.5815006 132.7745017
  24.4779987  94.2305006 131.8185017  25.4349987  94.2305006 131.8185017
  24.2379987  95.1575006 131.8185017  29.1949987  94.1385006 131.0195017
  30.1519987  94.1385006 131.0195017  28.9549987  95.0655006 131.0195017
  31.4949987  92.9815006 132.0095017  32.4519987  92.9815006 132.0095017
  31.2549987  93.9085006 132.0095017  34.0729987  94.5405006 132.2795017
  35.0299987  94.5405006 132.2795017  33.8329987  95.4675006 132.2795017
  21.4539987  93.2975006 129.7155017  22.4109987  93.2975006 129.7155017
  21.2139987  94.2245006 129.7155017  23.5489987  92.0095006 128.3695017
  24.5059987  92.0095006 128.3695017  23.3089987  92.9365006 128.3695017
  26.1409987  92.4895006 129.2445017  27.0979987  92.4895006 129.2445017
  25.9009987  93.4165006 129.2445017  29.6159987  78.1415006 128.3875017
  30.5729987  78.1415006 128.3875017  29.3759987  79.0685006 128.3875017
  34.7459987  76.1985006 128.4735017  35.7029987  76.1985006 128.4735017
  34.5059987  77.1255006 128.4735017  36.4239987  77.4215006 126.7555017
  37.3809987  77.4215006 126.7555017  36.1839987  78.3485006 126.7555017
  21.9799987  76.7595006 126.2345017  22.9369987  76.7595006 126.2345017
  21.7399987  77.6865006 126.2345017  20.7869987  76.5185006 122.0065017
  21.7439987  76.5185006 122.0065017  20.5469987  77.4455006 122.0065017
  26.4419987  76.7385006 126.0395017  27.3989987  76.7385006 126.0395017
  26.2019987  77.6655006 126.0395017  32.1379987  76.7175006 127.6535017
  33.0949987  76.7175006 127.6535017  31.8979987  77.6445006 127.6535017
  33.4359987  76.7485006 123.3345017  34.3929987  76.7485006 123.3345017
  33.1959987  77.6755006 123.3345017  20.6719987  92.4795006 122.9555017
  21.6289987  92.4795006 122.9555017  20.4319987  93.4065006 122.9555017
  22.6009987  78.4635006 120.4575017  23.5579987  78.4635006 120.4575017
  22.3609987  79.3905006 120.4575017  27.6199987  78.7265006 122.8685017
  28.5769987  78.7265006 122.8685017  27.3799987  79.6535006 122.8685017
  29.5349987  93.7555006 121.3195017  30.4919987  93.7555006 121.3195017
  29.2949987  94.6825006 121.3195017  36.2229987  93.2815006 124.0245017
  37.1799987  93.2815006 124.0245017  35.9829987  94.2085006 124.0245017
  21.8519987  77.2795006 135.6875017  22.8089987  77.2795006 135.6875017
  21.6119987  78.2065006 135.6875017  22.4669987  93.4505006 119.9185017
  23.4239987  93.4505006 119.9185017  22.2269987  94.3775006 119.9185017
  35.6629987  92.1345006 135.9015017  36.6199987  92.1345006 135.9015017
  35.4229987  93.0615006 135.9015017  49.9129987  85.9065006 126.1075017
  50.8699987  85.9065006 126.1075017  49.6729987  86.8335006 126.1075017
  48.7839987  85.1695006 129.5975017  49.7409987  85.1695006 129.5975017
  48.5439987  86.0965006 129.5975017  41.1329987  84.8265006 131.1575017
  42.0899987  84.8265006 131.1575017  40.8929987  85.7535006 131.1575017
  52.4819987  88.1115006 127.8715017  53.4389987  88.1115006 127.8715017
  52.2419987  89.0385006 127.8715017  42.0679987  89.2785006 129.6655017
  43.0249987  89.2785006 129.6655017  41.8279987  90.2055006 129.6655017
  38.7079987  82.8605006 125.1265017  39.6649987  82.8605006 125.1265017
  38.4679987  83.7875006 125.1265017  39.4069987  85.0695006 127.2605017
  40.3639987  85.0695006 127.2605017  39.1669987  85.9965006 127.2605017
  49.5949987  93.2615006 128.1065017  50.5519987  93.2615006 128.1065017
  49.3549987  94.1885006 128.1065017  47.1599987  87.5795006 130.0355017
  48.1169987  87.5795006 130.0355017  46.9199987  88.5065006 130.0355017
  55.7789987  79.2145006 130.8075017  56.7359987  79.2145006 130.8075017
  55.5389987  80.1415006 130.8075017  50.3229987  82.0335006 130.3615017
  51.2799987  82.0335006 130.3615017  50.0829987  82.9605006 130.3615017
  43.4519987  80.1215006 127.5975017  44.4089987  80.1215006 127.5975017
  43.2119987  81.0485006 127.5975017  51.1829987  80.2075006 125.9635017
  52.1399987  80.2075006 125.9635017  50.9429987  81.1345006 125.9635017
  40.0689987  82.5225006 128.3395017  41.0259987  82.5225006 128.3395017
  39.8289987  83.4495006 128.3395017  45.2329987  84.0835006 127.6195017
  46.1899987  84.0835006 127.6195017  44.9929987  85.0105006 127.6195017
  56.2169987  80.6485006 133.0595017  57.1739987  80.6485006 133.0595017
  55.9769987  81.5755006 133.0595017  42.3199987  79.0015006 131.6535017
  43.2769987  79.0015006 131.6535017  42.0799987  79.9285006 131.6535017
  49.6489987  88.5075006 125.1825017  50.6059987  88.5075006 125.1825017
  49.4089987  89.4345006 125.1825017  44.8639987  86.6635006 131.8955017
  45.8209987  86.6635006 131.8955017  44.6239987  87.5905006 131.8955017
  52.9739987  79.5445006 127.9555017  53.9309987  79.5445006 127.9555017
  52.7339987  80.4715006 127.9555017  41.8899987  80.8895006 129.6375017
  42.8469987  80.8895006 129.6375017  41.6499987  81.8165006 129.6375017
  43.2899987  88.6595006 132.6815017  44.2469987  88.6595006 132.6815017
  43.0499987  89.5865006 132.6815017  39.3829987  88.2905006 123.4985017
  40.3399987  88.2905006 123.4985017  39.1429987  89.2175006 123.4985017
  53.0069987  89.9455006 130.2395017  53.9639987  89.9455006 130.2395017
  52.7669987  90.8725006 130.2395017  53.3129987  78.2285006 131.6195017
  54.2699987  78.2285006 131.6195017  53.0729987  79.1555006 131.6195017
  46.3039987  76.3485006 129.0975017  47.2609987  76.3485006 129.0975017
  46.0639987  77.2755006 129.0975017  51.2579987  91.7315006 126.8415017
  52.2149987  91.7315006 126.8415017  51.0179987  92.6585006 126.8415017
  52.4599987  89.6585006 125.3495017  53.4169987  89.6585006 125.3495017
  52.2199987  90.5855006 125.3495017  54.1249987  88.2365006 133.8435017
  55.0819987  88.2365006 133.8435017  53.8849987  89.1635006 133.8435017
  48.5869987  85.1495006 123.6175017  49.5439987  85.1495006 123.6175017
  48.3469987  86.0765006 123.6175017  48.6449987  83.6805006 120.6275017
  49.6019987  83.6805006 120.6275017  48.4049987  84.6075006 120.6275017
  55.9689987  84.5455006 131.8835017  56.9259987  84.5455006 131.8835017
  55.7289987  85.4725006 131.8835017  52.0239987  85.3635006 124.5305017
  52.9809987  85.3635006 124.5305017  51.7839987  86.2905006 124.5305017
  51.9389987  83.4695006 133.5315017  52.8959987  83.4695006 133.5315017
  51.6989987  84.3965006 133.5315017  43.6409987  86.0205006 126.4445017
  44.5979987  86.0205006 126.4445017  43.4009987  86.9475006 126.4445017
  44.9729987  89.4175006 129.1255017  45.9299987  89.4175006 129.1255017
  44.7329987  90.3445006 129.1255017  43.9799987  84.7625006 130.0975017
  44.9369987  84.7625006 130.0975017  43.7399987  85.6895006 130.0975017
  50.3699987  90.3255006 130.8155017  51.3269987  90.3255006 130.8155017
  50.1299987  91.2525006 130.8155017  44.8759987  89.1305006 134.7915017
  45.8329987  89.1305006 134.7915017  44.6359987  90.0575006 134.7915017
  50.8889987  84.5475006 122.2075017  51.8459987  84.5475006 122.2075017
  50.6489987  85.4745006 122.2075017  41.8429987  85.3655006 134.0025017
  42.7999987  85.3655006 134.0025017  41.6029987  86.2925006 134.0025017
  48.6099987  91.2745006 125.6695017  49.5669987  91.2745006 125.6695017
  48.3699987  92.2015006 125.6695017  43.1369987  91.1905006 135.5835017
  44.0939987  91.1905006 135.5835017  42.8969987  92.1175006 135.5835017
  54.6109987  76.2845006 122.0855017  55.5679987  76.2845006 122.0855017
  54.3709987  77.2115006 122.0855017  42.6169987  85.0465006 124.0595017
  43.5739987  85.0465006 124.0595017  42.3769987  85.9735006 124.0595017
  55.7389987  90.6385006 120.4425017  56.6959987  90.6385006 120.4425017
  55.4989987  91.5655006 120.4425017  38.7159987  87.4685006 132.8985017
  39.6729987  87.4685006 132.8985017  38.4759987  88.3955006 132.8985017
  38.4609987  90.2035006 129.7265017  39.4179987  90.2035006 129.7265017
  38.2209987  91.1305006 129.7265017  56.7479987  90.8775006 135.3605017
  57.7049987  90.8775006 135.3605017  56.5079987  91.8045006 135.3605017
  47.6809987  90.4775006 134.2615017  48.6379987  90.4775006 134.2615017
  47.4409987  91.4045006 134.2615017  48.0919987  94.1965006 124.0865017
  49.0489987  94.1965006 124.0865017  47.8519987  95.1235006 124.0865017
  41.7329987  93.0615006 125.8935017  42.6899987  93.0615006 125.8935017
  41.4929987  93.9885006 125.8935017  51.1569987  93.4015006 121.0685017
  52.1139987  93.4015006 121.0685017  50.9169987  94.3285006 121.0685017
  50.8459987  93.3285006 123.8335017  51.8029987  93.3285006 123.8335017
  50.6059987  94.2555006 123.8335017  53.8489987  82.4135006 135.6815017
  54.8059987  82.4135006 135.6815017  53.6089987  83.3405006 135.6815017
  40.9759987  88.7645006 133.9035017  41.9329987  88.7645006 133.9035017
  40.7359987  89.6915006 133.9035017  43.6499987  77.2465006 129.8555017
  44.6069987  77.2465006 129.8555017  43.4099987  78.1735006 129.8555017
  48.2899987  76.9475006 133.2455017  49.2469987  76.9475006 133.2455017
  48.0499987  77.8745006 133.2455017  51.5769987  80.7435006 134.0945017
  52.5339987  80.7435006 134.0945017  51.3369987  81.6705006 134.0945017
  52.3429987  85.5835006 119.9575017  53.2999987  85.5835006 119.9575017
  52.1029987  86.5105006 119.9575017  47.9339987  79.4965006 120.5235017
  48.8909987  79.4965006 120.5235017  47.6939987  80.4235006 120.5235017
  43.7369987  82.2065006 131.0435017  44.6939987  82.2065006 131.0435017
  43.4969987  83.1335006 131.0435017  43.7149987  82.3735006 125.9445017
  44.6719987  82.3735006 125.9445017  43.4749987  83.3005006 125.9445017
  49.2359987  82.8415006 124.7385017  50.1929987  82.8415006 124.7385017
  48.9959987  83.7685006 124.7385017  48.2959987  82.8265006 135.9695017
  49.2529987  82.8265006 135.9695017  48.0559987  83.7535006 135.9695017
  50.2649987  82.3225006 127.5685017  51.2219987  82.3225006 127.5685017
  50.0249987  83.2495006 127.5685017  41.4259987  82.4875006 132.8305017
  42.3829987  82.4875006 132.8305017  41.1859987  83.4145006 132.8305017
  44.7569987  79.8305006 119.5975017  45.7139987  79.8305006 119.5975017
  44.5169987  80.7575006 119.5975017  38.0399987  79.6085006 126.7425017
  38.9969987  79.6085006 126.7425017  37.7999987  80.5355006 126.7425017
  39.3299987  80.3125006 122.1225017  40.2869987  80.3125006 122.1225017
  39.0899987  81.2395006 122.1225017  49.4839987  83.9365006 132.1865017
  50.4409987  83.9365006 132.1865017  49.2439987  84.8635006 132.1865017
  46.2709987  79.8835006 126.9805017  47.2279987  79.8835006 126.9805017
  46.0309987  80.8105006 126.9805017  41.0919987  81.4635006 125.8345017
  42.0489987  81.4635006 125.8345017  40.8519987  82.3905006 125.8345017
  44.7419987  81.4615006 123.4415017  45.6989987  81.4615006 123.4415017
  44.5019987  82.3885006 123.4415017  50.6829987  79.1215006 130.2205017
  51.6399987  79.1215006 130.2205017  50.4429987  80.0485006 130.2205017
  43.4339987  82.6675006 121.0465017  44.3909987  82.6675006 121.0465017
  43.1939987  83.5945006 121.0465017  53.9329987  94.7665006 136.4965017
  54.8899987  94.7665006 136.4965017  53.6929987  95.6935006 136.4965017
  41.4159987  87.2565006 136.0725017  42.3729987  87.2565006 136.0725017
  41.1759987  88.1835006 136.0725017  47.5669987  82.6495006 128.8645017
  48.5239987  82.6495006 128.8645017  47.3269987  83.5765006 128.8645017
  42.5729987  78.7905006 125.2745017  43.5299987  78.7905006 125.2745017
  42.3329987  79.7175006 125.2745017  46.2029987  80.9815006 131.2775017
  47.1599987  80.9815006 131.2775017  45.9629987  81.9085006 131.2775017
  46.7919987  87.2165006 122.9675017  47.7489987  87.2165006 122.9675017
  46.5519987  88.1435006 122.9675017  53.9459987  86.4025006 131.7765017
  54.9029987  86.4025006 131.7765017  53.7059987  87.3295006 131.7765017
  50.6299987  80.0275006 121.1505017  51.5869987  80.0275006 121.1505017
  50.3899987  80.9545006 121.1505017  48.2409987  87.4565006 134.1485017
  49.1979987  87.4565006 134.1485017  48.0009987  88.3835006 134.1485017
  51.3599987  81.9285006 122.7935017  52.3169987  81.9285006 122.7935017
  51.1199987  82.8555006 122.7935017  41.8939987  86.5825006 128.7675017
  42.8509987  86.5825006 128.7675017  41.6539987  87.5095006 128.7675017
  48.8979987  88.6785006 121.9995017  49.8549987  88.6785006 121.9995017
  48.6579987  89.6055006 121.9995017  38.8899987  85.0065006 134.0335017
  39.8469987  85.0065006 134.0335017  38.6499987  85.9335006 134.0335017
  46.0569987  84.9185006 135.7745017  47.0139987  84.9185006 135.7745017
  45.8169987  85.8455006 135.7745017  50.5799987  89.9125006 134.1745017
  51.5369987  89.9125006 134.1745017  50.3399987  90.8395006 134.1745017
  56.2649987  82.0825006 122.5475017  57.2219987  82.0825006 122.5475017
  56.0249987  83.0095006 122.5475017  56.2289987  87.9335006 135.3505017
  57.1859987  87.9335006 135.3505017  55.9889987  88.8605006 135.3505017
  54.5279987  90.9125006 122.9605017  55.4849987  90.9125006 122.9605017
  54.2879987  91.8395006 122.9605017  51.7389987  85.7425006 130.0155017
  52.6959987  85.7425006 130.0155017  51.4989987  86.6695006 130.0155017
  44.2699987  90.0495006 126.1535017  45.2269987  90.0495006 126.1535017
  44.0299987  90.9765006 126.1535017  40.0259987  84.8975006 120.7255017
  40.9829987  84.8975006 120.7255017  39.7859987  85.8245006 120.7255017
  45.6929987  87.7135006 125.6805017  46.6499987  87.7135006 125.6805017
  45.4529987  88.6405006 125.6805017  46.1469987  91.8925006 132.0465017
  47.1039987  91.8925006 132.0465017  45.9069987  92.8195006 132.0465017
  44.3659987  92.7155006 125.2175017  45.3229987  92.7155006 125.2175017
  44.1259987  93.6425006 125.2175017  49.7069987  87.9335006 131.7095017
  50.6639987  87.9335006 131.7095017  49.4669987  88.8605006 131.7095017
  51.9829987  88.9565006 120.7925017  52.9399987  88.9565006 120.7925017
  51.7429987  89.8835006 120.7925017  52.4099987  92.5065006 134.2055017
  53.3669987  92.5065006 134.2055017  52.1699987  93.4335006 134.2055017
  56.4589987  93.3335006 121.0355017  57.4159987  93.3335006 121.0355017
  56.2189987  94.2605006 121.0355017  40.5319987  79.7725006 133.6535017
  41.4889987  79.7725006 133.6535017  40.2919987  80.6995006 133.6535017
  52.7789987  87.5995006 123.0275017  53.7359987  87.5995006 123.0275017
  52.5389987  88.5265006 123.0275017  40.1749987  91.5365006 132.0015017
  41.1319987  91.5365006 132.0015017  39.9349987  92.4635006 132.0015017
  46.1019987  90.0415006 119.2725017  47.0589987  90.0415006 119.2725017
  45.8619987  90.9685006 119.2725017  44.9219987  89.5725006 121.7285017
  45.8789987  89.5725006 121.7285017  44.6819987  90.4995006 121.7285017
  41.4349987  86.8185006 122.2195017  42.3919987  86.8185006 122.2195017
  41.1949987  87.7455006 122.2195017  49.2789987  79.5035006 132.5225017
  50.2359987  79.5035006 132.5225017  49.0389987  80.4305006 132.5225017
  50.0269987  79.0915006 123.6205017  50.9839987  79.0915006 123.6205017
  49.7869987  80.0185006 123.6205017  47.7089987  91.2435006 122.4475017
  48.6659987  91.2435006 122.4475017  47.4689987  92.1705006 122.4475017
  47.2389987  80.8265006 124.4375017  48.1959987  80.8265006 124.4375017
  46.9989987  81.7535006 124.4375017  47.8059987  81.8435006 133.5685017
  48.7629987  81.8435006 133.5685017  47.5659987  82.7705006 133.5685017
  48.0899987  77.9035006 125.3305017  49.0469987  77.9035006 125.3305017
  47.8499987  78.8305006 125.3305017  45.0899987  92.2795006 122.4585017
  46.0469987  92.2795006 122.4585017  44.8499987  93.2065006 122.4585017
  43.7529987  78.9795006 122.0765017  44.7099987  78.9795006 122.0765017
  43.5129987  79.9065006 122.0765017  53.9889987  79.7015006 134.4055017
  54.9459987  79.7015006 134.4055017  53.7489987  80.6285006 134.4055017
  52.5879987  83.5175006 128.5095017  53.5449987  83.5175006 128.5095017
  52.3479987  84.4445006 128.5095017  41.9979987  89.4345006 121.1025017
  42.9549987  89.4345006 121.1025017  41.7579987  90.3615006 121.1025017
  40.3419987  82.1045006 120.2265017  41.2989987  82.1045006 120.2265017
  40.1019987  83.0315006 120.2265017  53.6529987  92.7615006 130.1535017
  54.6099987  92.7615006 130.1535017  53.4129987  93.6885006 130.1535017
  41.1529987  76.8955006 128.9505017  42.1099987  76.8955006 128.9505017
  40.9129987  77.8225006 128.9505017  40.1059987  90.8135006 125.1015017
  41.0629987  90.8135006 125.1015017  39.8659987  91.7405006 125.1015017
  39.2139987  93.4885006 136.3285017  40.1709987  93.4885006 136.3285017
  38.9739987  94.4155006 136.3285017  48.1089987  91.8965006 119.4065017
  49.0659987  91.8965006 119.4065017  47.8689987  92.8235006 119.4065017
  52.6799987  91.6545006 119.6055017  53.6369987  91.6545006 119.6055017
  52.4399987  92.5815006 119.6055017  43.5779987  87.5885006 119.4385017
  44.5349987  87.5885006 119.4385017  43.3379987  88.5155006 119.4385017
  48.9949987  88.6815006 119.1995017  49.9519987  88.6815006 119.1995017
  48.7549987  89.6085006 119.1995017  51.6379987  87.1645006 134.1735017
  52.5949987  87.1645006 134.1735017  51.3979987  88.0915006 134.1735017
  44.7739987  85.5965006 121.8255017  45.7309987  85.5965006 121.8255017
  44.5339987  86.5235006 121.8255017  44.0759987  83.4365006 134.1575017
  45.0329987  83.4365006 134.1575017  43.8359987  84.3635006 134.1575017
  45.8469987  83.8175006 120.0475017  46.8039987  83.8175006 120.0475017
  45.6069987  84.7445006 120.0475017  55.2019987  86.1485006 119.4765017
  56.1589987  86.1485006 119.4765017  54.9619987  87.0755006 119.4765017
  44.2469987  80.8815006 135.0745017  45.2039987  80.8815006 135.0745017
  44.0069987  81.8085006 135.0745017  44.8369987  79.1625006 132.7655017
  45.7939987  79.1625006 132.7655017  44.5969987  80.0895006 132.7655017
  46.4049987  84.6335006 132.9775017  47.3619987  84.6335006 132.9775017
  46.1649987  85.5605006 132.9775017  51.9899987  85.0255006 135.4985017
  52.9469987  85.0255006 135.4985017  51.7499987  85.9525006 135.4985017
  45.6289987  76.6275006 133.1825017  46.5859987  76.6275006 133.1825017
  45.3889987  77.5545006 133.1825017  49.6259987  80.0275006 135.7865017
  50.5829987  80.0275006 135.7865017  49.3859987  80.9545006 135.7865017
  45.8559987  75.9775006 135.8545017  46.8129987  75.9775006 135.8545017
  45.6159987  76.9045006 135.8545017  45.6929987  94.5145006 121.1085017
  46.6499987  94.5145006 121.1085017  45.4529987  95.4415006 121.1085017
  39.2589987  89.1195006 120.5745017  40.2159987  89.1195006 120.5745017
  39.0189987  90.0465006 120.5745017  38.0029987  94.5025006 125.5715017
  38.9599987  94.5025006 125.5715017  37.7629987  95.4295006 125.5715017
  38.8389987  92.6175006 127.4215017  39.7959987  92.6175006 127.4215017
  38.5989987  93.5445006 127.4215017  56.3749987  93.4205006 130.3645017
  57.3319987  93.4205006 130.3645017  56.1349987  94.3475006 130.3645017
  55.9779987  93.0095006 133.2885017  56.9349987  93.0095006 133.2885017
  55.7379987  93.9365006 133.2885017  55.7019987  87.0555006 123.4265017
  56.6589987  87.0555006 123.4265017  55.4619987  87.9825006 123.4265017
  56.0749987  85.1265006 125.2935017  57.0319987  85.1265006 125.2935017
  55.8349987  86.0535006 125.2935017  55.8279987  87.8385006 130.2715017
  56.7849987  87.8385006 130.2715017  55.5879987  88.7655006 130.2715017
  54.3709987  90.7235006 132.5625017  55.3279987  90.7235006 132.5625017
  54.1309987  91.6505006 132.5625017  56.3739987  84.9635006 121.6915017
  57.3309987  84.9635006 121.6915017  56.1339987  85.8905006 121.6915017
  54.7409987  82.2005006 120.2135017  55.6979987  82.2005006 120.2135017
  54.5009987  83.1275006 120.2135017  53.8889987  83.6115006 125.8595017
  54.8459987  83.6115006 125.8595017  53.6489987  84.5385006 125.8595017
  38.8959987  85.6905006 129.9045017  39.8529987  85.6905006 129.9045017
  38.6559987  86.6175006 129.9045017  54.7369987  85.4215006 135.0845017
  55.6939987  85.4215006 135.0845017  54.4969987  86.3485006 135.0845017
  56.2809987  83.5105006 136.1065017  57.2379987  83.5105006 136.1065017
  56.0409987  84.4375006 136.1065017  53.9809987  79.6575006 119.3455017
  54.9379987  79.6575006 119.3455017  53.7409987  80.5845006 119.3455017
  53.5489987  81.1945006 124.2955017  54.5059987  81.1945006 124.2955017
  53.3089987  82.1215006 124.2955017  54.1909987  81.7405006 129.7605017
  55.1479987  81.7405006 129.7605017  53.9509987  82.6675006 129.7605017
  54.2589987  82.4755006 132.5535017  55.2159987  82.4755006 132.5535017
  54.0189987  83.4025006 132.5535017  38.5219987  80.9345006 135.9995017
  39.4789987  80.9345006 135.9995017  38.2819987  81.8615006 135.9995017
  54.2199987  78.4785006 124.3705017  55.1769987  78.4785006 124.3705017
  53.9799987  79.4055006 124.3705017  39.7139987  79.2825006 128.9175017
  40.6709987  79.2825006 128.9175017  39.4739987  80.2095006 128.9175017
  37.9999987  82.2775006 129.9725017  38.9569987  82.2775006 129.9725017
  37.7599987  83.2045006 129.9725017  56.1199987  78.6275006 136.0775017
  57.0769987  78.6275006 136.0775017  55.8799987  79.5545006 136.0775017
  56.0499987  78.5165006 120.9225017  57.0069987  78.5165006 120.9225017
  55.8099987  79.4435006 120.9225017  38.3779987  78.5385006 124.0365017
  39.3349987  78.5385006 124.0365017  38.1379987  79.4655006 124.0365017
  53.0999987  93.5005006 125.9875017  54.0569987  93.5005006 125.9875017
  52.8599987  94.4275006 125.9875017  38.3429987  77.2705006 132.4195017
  39.2999987  77.2705006 132.4195017  38.1029987  78.1975006 132.4195017
  40.5459987  90.5185006 136.4465017  41.5029987  90.5185006 136.4465017
  40.3059987  91.4455006 136.4465017  43.4499987  91.3965006 132.7585017
  44.4069987  91.3965006 132.7585017  43.2099987  92.3235006 132.7585017
  47.7339987  93.0575006 135.4935017  48.6909987  93.0575006 135.4935017
  47.4939987  93.9845006 135.4935017  50.0969987  94.1055006 135.0025017
  51.0539987  94.1055006 135.0025017  49.8569987  95.0325006 135.0025017
  55.0719987  76.7265006 134.0755017  56.0289987  76.7265006 134.0755017
  54.8319987  77.6535006 134.0755017  40.8769987  94.6545006 132.7755017
  41.8339987  94.6545006 132.7755017  40.6369987  95.5815006 132.7755017
  43.3339987  94.2305006 131.8185017  44.2909987  94.2305006 131.8185017
  43.0939987  95.1575006 131.8185017  48.0499987  94.1385006 131.0195017
  49.0069987  94.1385006 131.0195017  47.8099987  95.0655006 131.0195017
  50.3509987  92.9815006 132.0095017  51.3079987  92.9815006 132.0095017
  50.1109987  93.9085006 132.0095017  52.9309987  94.5495006 132.2795017
  53.8879987  94.5495006 132.2795017  52.6909987  95.4765006 132.2795017
  40.3099987  93.2975006 129.7165017  41.2669987  93.2975006 129.7165017
  40.0699987  94.2245006 129.7165017  42.4049987  92.0095006 128.3695017
  43.3619987  92.0095006 128.3695017  42.1649987  92.9365006 128.3695017
  44.9969987  92.4915006 129.2435017  45.9539987  92.4915006 129.2435017
  44.7569987  93.4185006 129.2435017  48.4659987  78.1405006 128.3865017
  49.4229987  78.1405006 128.3865017  48.2259987  79.0675006 128.3865017
  53.6019987  76.1985006 128.4725017  54.5589987  76.1985006 128.4725017
  53.3619987  77.1255006 128.4725017  55.2799987  77.4215006 126.7545017
  56.2369987  77.4215006 126.7545017  55.0399987  78.3485006 126.7545017
  40.8449987  76.7815006 126.1895017  41.8019987  76.7815006 126.1895017
  40.6049987  77.7085006 126.1895017  39.6489987  76.5405006 121.9985017
  40.6059987  76.5405006 121.9985017  39.4089987  77.4675006 121.9985017
  45.3219987  76.6895006 125.9925017  46.2789987  76.6895006 125.9925017
  45.0819987  77.6165006 125.9925017  50.9939987  76.7175006 127.6535017
  51.9509987  76.7175006 127.6535017  50.7539987  77.6445006 127.6535017
  52.2909987  76.7485006 123.3345017  53.2479987  76.7485006 123.3345017
  52.0509987  77.6755006 123.3345017  39.5279987  92.4785006 122.9565017
  40.4849987  92.4785006 122.9565017  39.2879987  93.4055006 122.9565017
  41.4569987  78.4505006 120.4605017  42.4139987  78.4505006 120.4605017
  41.2169987  79.3775006 120.4605017  46.4099987  78.7055006 122.8885017
  47.3669987  78.7055006 122.8885017  46.1699987  79.6325006 122.8885017
  48.3889987  93.7615006 121.3185017  49.3459987  93.7615006 121.3185017
  48.1489987  94.6885006 121.3185017  55.1019987  93.2875006 124.0215017
  56.0589987  93.2875006 124.0215017  54.8619987  94.2145006 124.0215017
  40.9499987  77.1895006 135.6685017  41.9069987  77.1895006 135.6685017
  40.7099987  78.1165006 135.6685017  41.3229987  93.4505006 119.9185017
  42.2799987  93.4505006 119.9185017  41.0829987  94.3775006 119.9185017
  54.5189987  92.1345006 135.9015017  55.4759987  92.1345006 135.9015017
  54.2789987  93.0615006 135.9015017  68.7719987  85.9115006 126.1085017
  69.7289987  85.9115006 126.1085017  68.5319987  86.8385006 126.1085017
  67.6459987  85.1775006 129.6025017  68.6029987  85.1775006 129.6025017
  67.4059987  86.1045006 129.6025017  59.9879987  84.8265006 131.1585017
  60.9449987  84.8265006 131.1585017  59.7479987  85.7535006 131.1585017
  71.3379987  88.1115006 127.8715017  72.2949987  88.1115006 127.8715017
  71.0979987  89.0385006 127.8715017  60.9239987  89.2785006 129.6655017
  61.8809987  89.2785006 129.6655017  60.6839987  90.2055006 129.6655017
  57.5609987  82.8585006 125.1235017  58.5179987  82.8585006 125.1235017
  57.3209987  83.7855006 125.1235017  58.2629987  85.0695006 127.2605017
  59.2199987  85.0695006 127.2605017  58.0229987  85.9965006 127.2605017
  68.4509987  93.2615006 128.1065017  69.4079987  93.2615006 128.1065017
  68.2109987  94.1885006 128.1065017  66.0159987  87.5795006 130.0355017
  66.9729987  87.5795006 130.0355017  65.7759987  88.5065006 130.0355017
  74.6349987  79.2145006 130.8075017  75.5919987  79.2145006 130.8075017
  74.3949987  80.1415006 130.8075017  69.1849987  82.0315006 130.3605017
  70.1419987  82.0315006 130.3605017  68.9449987  82.9585006 130.3605017
  62.2629987  80.1195006 127.6075017  63.2199987  80.1195006 127.6075017
  62.0229987  81.0465006 127.6075017  70.0539987  80.2225006 125.9675017
  71.0109987  80.2225006 125.9675017  69.8139987  81.1495006 125.9675017
  58.9249987  82.5255006 128.3355017  59.8819987  82.5255006 128.3355017
  58.6849987  83.4525006 128.3355017  64.0849987  84.0835006 127.6255017
  65.0419987  84.0835006 127.6255017  63.8449987  85.0105006 127.6255017
  75.0719987  80.6495006 133.0595017  76.0289987  80.6495006 133.0595017
  74.8319987  81.5765006 133.0595017  61.1809987  79.0075006 131.6515017
  62.1379987  79.0075006 131.6515017  60.9409987  79.9345006 131.6515017
  68.5049987  88.5085006 125.1825017  69.4619987  88.5085006 125.1825017
  68.2649987  89.4355006 125.1825017  63.7209987  86.6645006 131.8965017
  64.6779987  86.6645006 131.8965017  63.4809987  87.5915006 131.8965017
  71.8369987  79.5415006 127.9535017  72.7939987  79.5415006 127.9535017
  71.5969987  80.4685006 127.9535017  60.7559987  80.8895006 129.6355017
  61.7129987  80.8895006 129.6355017  60.5159987  81.8165006 129.6355017
  62.1459987  88.6595006 132.6825017  63.1029987  88.6595006 132.6825017
  61.9059987  89.5865006 132.6825017  58.2459987  88.2915006 123.4965017
  59.2029987  88.2915006 123.4965017  58.0059987  89.2185006 123.4965017
  71.8629987  89.9465006 130.2395017  72.8199987  89.9465006 130.2395017
  71.6229987  90.8735006 130.2395017  72.1689987  78.2285006 131.6205017
  73.1259987  78.2285006 131.6205017  71.9289987  79.1555006 131.6205017
  65.1659987  76.3465006 129.1245017  66.1229987  76.3465006 129.1245017
  64.9259987  77.2735006 129.1245017  70.1139987  91.7315006 126.8415017
  71.0709987  91.7315006 126.8415017  69.8739987  92.6585006 126.8415017
  71.3159987  89.6585006 125.3495017  72.2729987  89.6585006 125.3495017
  71.0759987  90.5855006 125.3495017  72.9819987  88.2375006 133.8435017
  73.9389987  88.2375006 133.8435017  72.7419987  89.1645006 133.8435017
  67.4429987  85.1495006 123.6175017  68.3999987  85.1495006 123.6175017
  67.2029987  86.0765006 123.6175017  67.5039987  83.6905006 120.6275017
  68.4609987  83.6905006 120.6275017  67.2639987  84.6175006 120.6275017
  74.8249987  84.5445006 131.8835017  75.7819987  84.5445006 131.8835017
  74.5849987  85.4715006 131.8835017  70.8799987  85.3635006 124.5315017
  71.8369987  85.3635006 124.5315017  70.6399987  86.2905006 124.5315017
  70.7949987  83.4705006 133.5315017  71.7519987  83.4705006 133.5315017
  70.5549987  84.3975006 133.5315017  62.4979987  86.0195006 126.4445017
  63.4549987  86.0195006 126.4445017  62.2579987  86.9465006 126.4445017
  63.8289987  89.4175006 129.1255017  64.7859987  89.4175006 129.1255017
  63.5889987  90.3445006 129.1255017  62.8249987  84.7785006 130.1015017
  63.7819987  84.7785006 130.1015017  62.5849987  85.7055006 130.1015017
  69.2259987  90.3255006 130.8155017  70.1829987  90.3255006 130.8155017
  68.9859987  91.2525006 130.8155017  63.7339987  89.1325006 134.7945017
  64.6909987  89.1325006 134.7945017  63.4939987  90.0595006 134.7945017
  69.7449987  84.5465006 122.2065017  70.7019987  84.5465006 122.2065017
  69.5049987  85.4735006 122.2065017  60.6989987  85.3655006 134.0025017
  61.6559987  85.3655006 134.0025017  60.4589987  86.2925006 134.0025017
  67.4659987  91.2745006 125.6695017  68.4229987  91.2745006 125.6695017
  67.2259987  92.2015006 125.6695017  61.9929987  91.1905006 135.5835017
  62.9499987  91.1905006 135.5835017  61.7529987  92.1175006 135.5835017
  73.4709987  76.2805006 122.0765017  74.4279987  76.2805006 122.0765017
  73.2309987  77.2075006 122.0765017  61.4729987  85.0465006 124.0595017
  62.4299987  85.0465006 124.0595017  61.2329987  85.9735006 124.0595017
  74.5939987  90.6395006 120.4415017  75.5509987  90.6395006 120.4415017
  74.3539987  91.5665006 120.4415017  57.5719987  87.4675006 132.8985017
  58.5289987  87.4675006 132.8985017  57.3319987  88.3945006 132.8985017
  57.3209987  90.2025006 129.7305017  58.2779987  90.2025006 129.7305017
  57.0809987  91.1295006 129.7305017  75.6039987  90.8775006 135.3595017
  76.5609987  90.8775006 135.3595017  75.3639987  91.8045006 135.3595017
  66.5359987  90.4795006 134.2595017  67.4929987  90.4795006 134.2595017
  66.2959987  91.4065006 134.2595017  66.9479987  94.1965006 124.0865017
  67.9049987  94.1965006 124.0865017  66.7079987  95.1235006 124.0865017
  60.5899987  93.0615006 125.8935017  61.5469987  93.0615006 125.8935017
  60.3499987  93.9885006 125.8935017  70.0119987  93.4025006 121.0705017
  70.9689987  93.4025006 121.0705017  69.7719987  94.3295006 121.0705017
  69.7019987  93.3285006 123.8335017  70.6589987  93.3285006 123.8335017
  69.4619987  94.2555006 123.8335017  72.7039987  82.4125006 135.6805017
  73.6609987  82.4125006 135.6805017  72.4639987  83.3395006 135.6805017
  59.8319987  88.7625006 133.9045017  60.7889987  88.7625006 133.9045017
  59.5919987  89.6895006 133.9045017  62.4979987  77.2335006 129.8795017
  63.4549987  77.2335006 129.8795017  62.2579987  78.1605006 129.8795017
  67.1459987  76.9485006 133.2465017  68.1029987  76.9485006 133.2465017
  66.9059987  77.8755006 133.2465017  70.4349987  80.7455006 134.1005017
  71.3919987  80.7455006 134.1005017  70.1949987  81.6725006 134.1005017
  71.1989987  85.5835006 119.9555017  72.1559987  85.5835006 119.9555017
  70.9589987  86.5105006 119.9555017  66.8109987  79.4985006 120.4885017
  67.7679987  79.4985006 120.4885017  66.5709987  80.4255006 120.4885017
  62.5979987  82.2075006 131.0425017  63.5549987  82.2075006 131.0425017
  62.3579987  83.1345006 131.0425017  62.5539987  82.4015006 125.9375017
  63.5109987  82.4015006 125.9375017  62.3139987  83.3285006 125.9375017
  68.1089987  82.8555006 124.7505017  69.0659987  82.8555006 124.7505017
  67.8689987  83.7825006 124.7505017  67.1489987  82.8305006 135.9745017
  68.1059987  82.8305006 135.9745017  66.9089987  83.7575006 135.9745017
  69.1269987  82.3205006 127.5655017  70.0839987  82.3205006 127.5655017
  68.8869987  83.2475006 127.5655017  60.2809987  82.4925006 132.8295017
  61.2379987  82.4925006 132.8295017  60.0409987  83.4195006 132.8295017
  63.6329987  79.8805006 119.6195017  64.5899987  79.8805006 119.6195017
  63.3929987  80.8075006 119.6195017  56.8959987  79.6095006 126.7445017
  57.8529987  79.6095006 126.7445017  56.6559987  80.5365006 126.7445017
  58.1709987  80.3225006 122.1185017  59.1279987  80.3225006 122.1185017
  57.9309987  81.2495006 122.1185017  68.3399987  83.9365006 132.1865017
  69.2969987  83.9365006 132.1865017  68.0999987  84.8635006 132.1865017
  65.1229987  80.4095006 127.4315017  66.0799987  80.4095006 127.4315017
  64.8829987  81.3365006 127.4315017  59.9339987  81.4645006 125.8335017
  60.8909987  81.4645006 125.8335017  59.6939987  82.3915006 125.8335017
  63.5879987  81.4875006 123.4485017  64.5449987  81.4875006 123.4485017
  63.3479987  82.4145006 123.4485017  69.5379987  79.1175006 130.2125017
  70.4949987  79.1175006 130.2125017  69.2979987  80.0445006 130.2125017
  62.2869987  82.6735006 121.0505017  63.2439987  82.6735006 121.0505017
  62.0469987  83.6005006 121.0505017  72.7889987  94.7675006 136.4965017
  73.7459987  94.7675006 136.4965017  72.5489987  95.6945006 136.4965017
  60.2769987  87.2575006 136.0745017  61.2339987  87.2575006 136.0745017
  60.0369987  88.1845006 136.0745017  66.4509987  82.6765006 128.8915017
  67.4079987  82.6765006 128.8915017  66.2109987  83.6035006 128.8915017
  61.4069987  78.8005006 125.2745017  62.3639987  78.8005006 125.2745017
  61.1669987  79.7275006 125.2745017  65.0559987  80.9765006 131.2905017
  66.0129987  80.9765006 131.2905017  64.8159987  81.9035006 131.2905017
  65.6499987  87.2165006 122.9675017  66.6069987  87.2165006 122.9675017
  65.4099987  88.1435006 122.9675017  72.8019987  86.4025006 131.7765017
  73.7589987  86.4025006 131.7765017  72.5619987  87.3295006 131.7765017
  69.4859987  80.0325006 121.1335017  70.4429987  80.0325006 121.1335017
  69.2459987  80.9595006 121.1335017  67.0979987  87.4575006 134.1385017
  68.0549987  87.4575006 134.1385017  66.8579987  88.3845006 134.1385017
  70.2109987  81.9365006 122.8135017  71.1679987  81.9365006 122.8135017
  69.9709987  82.8635006 122.8135017  60.7509987  86.5835006 128.7685017
  61.7079987  86.5835006 128.7685017  60.5109987  87.5105006 128.7685017
  67.7539987  88.6795006 121.9995017  68.7109987  88.6795006 121.9995017
  67.5139987  89.6065006 121.9995017  57.7459987  85.0065006 134.0335017
  58.7029987  85.0065006 134.0335017  57.5059987  85.9335006 134.0335017
  64.9239987  84.9285006 135.7895017  65.8809987  84.9285006 135.7895017
  64.6839987  85.8555006 135.7895017  69.4329987  89.9075006 134.1825017
  70.3899987  89.9075006 134.1825017  69.1929987  90.8345006 134.1825017
  75.1239987  82.0795006 122.5465017  76.0809987  82.0795006 122.5465017
  74.8839987  83.0065006 122.5465017  75.0849987  87.9325006 135.3505017
  76.0419987  87.9325006 135.3505017  74.8449987  88.8595006 135.3505017
  73.3839987  90.9125006 122.9605017  74.3409987  90.9125006 122.9605017
  73.1439987  91.8395006 122.9605017  70.5959987  85.7435006 130.0175017
  71.5529987  85.7435006 130.0175017  70.3559987  86.6705006 130.0175017
  63.1259987  90.0495006 126.1535017  64.0829987  90.0495006 126.1535017
  62.8859987  90.9765006 126.1535017  58.8869987  84.8955006 120.7245017
  59.8439987  84.8955006 120.7245017  58.6469987  85.8225006 120.7245017
  64.5489987  87.7135006 125.6805017  65.5059987  87.7135006 125.6805017
  64.3089987  88.6405006 125.6805017  65.0049987  91.8925006 132.0465017
  65.9619987  91.8925006 132.0465017  64.7649987  92.8195006 132.0465017
  63.2219987  92.7155006 125.2175017  64.1789987  92.7155006 125.2175017
  62.9819987  93.6425006 125.2175017  68.5619987  87.9325006 131.7085017
  69.5189987  87.9325006 131.7085017  68.3219987  88.8595006 131.7085017
  70.8389987  88.9565006 120.7935017  71.7959987  88.9565006 120.7935017
  70.5989987  89.8835006 120.7935017  71.2659987  92.5065006 134.2055017
  72.2229987  92.5065006 134.2055017  71.0259987  93.4335006 134.2055017
  75.3149987  93.3325006 121.0365017  76.2719987  93.3325006 121.0365017
  75.0749987  94.2595006 121.0365017  59.3969987  79.7655006 133.6445017
  60.3539987  79.7655006 133.6445017  59.1569987  80.6925006 133.6445017
  71.6339987  87.6005006 123.0285017  72.5909987  87.6005006 123.0285017
  71.3939987  88.5275006 123.0285017  59.0309987  91.5365006 132.0015017
  59.9879987  91.5365006 132.0015017  58.7909987  92.4635006 132.0015017
  64.9619987  90.0405006 119.2715017  65.9189987  90.0405006 119.2715017
  64.7219987  90.9675006 119.2715017  63.7789987  89.5725006 121.7285017
  64.7359987  89.5725006 121.7285017  63.5389987  90.4995006 121.7285017
  60.2919987  86.8185006 122.2195017  61.2489987  86.8185006 122.2195017
  60.0519987  87.7455006 122.2195017  68.1369987  79.5025006 132.5265017
  69.0939987  79.5025006 132.5265017  67.8969987  80.4295006 132.5265017
  68.8889987  79.0895006 123.6125017  69.8459987  79.0895006 123.6125017
  68.6489987  80.0165006 123.6125017  66.5649987  91.2435006 122.4475017
  67.5219987  91.2435006 122.4475017  66.3249987  92.1705006 122.4475017
  66.1089987  80.9605006 124.4015017  67.0659987  80.9605006 124.4015017
  65.8689987  81.8875006 124.4015017  66.6619987  81.8435006 133.5705017
  67.6189987  81.8435006 133.5705017  66.4219987  82.7705006 133.5705017
  67.4459987  77.8715006 125.5275017  68.4029987  77.8715006 125.5275017
  67.2059987  78.7985006 125.5275017  63.9459987  92.2795006 122.4585017
  64.9029987  92.2795006 122.4585017  63.7059987  93.2065006 122.4585017
  62.6249987  78.9975006 122.0435017  63.5819987  78.9975006 122.0435017
  62.3849987  79.9245006 122.0435017  72.8449987  79.7005006 134.4045017
  73.8019987  79.7005006 134.4045017  72.6049987  80.6275006 134.4045017
  71.4439987  83.5175006 128.5095017  72.4009987  83.5175006 128.5095017
  71.2039987  84.4445006 128.5095017  60.8539987  89.4355006 121.1005017
  61.8109987  89.4355006 121.1005017  60.6139987  90.3625006 121.1005017
  59.1959987  82.1055006 120.2305017  60.1529987  82.1055006 120.2305017
  58.9559987  83.0325006 120.2305017  72.5099987  92.7605006 130.1545017
  73.4669987  92.7605006 130.1545017  72.2699987  93.6875006 130.1545017
  60.0109987  76.8985006 128.9505017  60.9679987  76.8985006 128.9505017
  59.7709987  77.8255006 128.9505017  58.9619987  90.8135006 125.1025017
  59.9189987  90.8135006 125.1025017  58.7219987  91.7405006 125.1025017
  58.0699987  93.4885006 136.3285017  59.0269987  93.4885006 136.3285017
  57.8299987  94.4155006 136.3285017  66.9639987  91.8965006 119.4055017
  67.9209987  91.8965006 119.4055017  66.7239987  92.8235006 119.4055017
  71.5349987  91.6535006 119.6095017  72.4919987  91.6535006 119.6095017
  71.2949987  92.5805006 119.6095017  62.4339987  87.5885006 119.4395017
  63.3909987  87.5885006 119.4395017  62.1939987  88.5155006 119.4395017
  67.8519987  88.6745006 119.1935017  68.8089987  88.6745006 119.1935017
  67.6119987  89.6015006 119.1935017  70.4959987  87.1645006 134.1705017
  71.4529987  87.1645006 134.1705017  70.2559987  88.0915006 134.1705017
  63.6379987  85.5945006 121.8315017  64.5949987  85.5945006 121.8315017
  63.3979987  86.5215006 121.8315017  62.9319987  83.4365006 134.1585017
  63.8889987  83.4365006 134.1585017  62.6919987  84.3635006 134.1585017
  64.6939987  83.8365006 120.0525017  65.6509987  83.8365006 120.0525017
  64.4539987  84.7635006 120.0525017  74.0579987  86.1485006 119.4765017
  75.0149987  86.1485006 119.4765017  73.8179987  87.0755006 119.4765017
  63.1029987  80.8825006 135.0745017  64.0599987  80.8825006 135.0745017
  62.8629987  81.8095006 135.0745017  63.6889987  79.1615006 132.7785017
  64.6459987  79.1615006 132.7785017  63.4489987  80.0885006 132.7785017
  65.2569987  84.6295006 132.9725017  66.2139987  84.6295006 132.9725017
  65.0169987  85.5565006 132.9725017  70.8479987  85.0255006 135.5005017
  71.8049987  85.0255006 135.5005017  70.6079987  85.9525006 135.5005017
  64.4899987  76.6275006 133.1785017  65.4469987  76.6275006 133.1785017
  64.2499987  77.5545006 133.1785017  68.4809987  80.0285006 135.7875017
  69.4379987  80.0285006 135.7875017  68.2409987  80.9555006 135.7875017
  64.7129987  75.9765006 135.8535017  65.6699987  75.9765006 135.8535017
  64.4729987  76.9035006 135.8535017  64.5529987  94.5145006 121.1065017
  65.5099987  94.5145006 121.1065017  64.3129987  95.4415006 121.1065017
  58.1109987  89.1165006 120.5775017  59.0679987  89.1165006 120.5775017
  57.8709987  90.0435006 120.5775017  56.8669987  94.5005006 125.5665017
  57.8239987  94.5005006 125.5665017  56.6269987  95.4275006 125.5665017
  57.6949987  92.6175006 127.4215017  58.6519987  92.6175006 127.4215017
  57.4549987  93.5445006 127.4215017  75.2279987  93.4215006 130.3655017
  76.1849987  93.4215006 130.3655017  74.9879987  94.3485006 130.3655017
  74.8339987  93.0095006 133.2885017  75.7909987  93.0095006 133.2885017
  74.5939987  93.9365006 133.2885017  74.5579987  87.0555006 123.4265017
  75.5149987  87.0555006 123.4265017  74.3179987  87.9825006 123.4265017
  74.9319987  85.1265006 125.2945017  75.8889987  85.1265006 125.2945017
  74.6919987  86.0535006 125.2945017  74.6829987  87.8375006 130.2715017
  75.6399987  87.8375006 130.2715017  74.4429987  88.7645006 130.2715017
  73.2279987  90.7235006 132.5625017  74.1849987  90.7235006 132.5625017
  72.9879987  91.6505006 132.5625017  75.2299987  84.9625006 121.6915017
  76.1869987  84.9625006 121.6915017  74.9899987  85.8895006 121.6915017
  73.5959987  82.2005006 120.2135017  74.5529987  82.2005006 120.2135017
  73.3559987  83.1275006 120.2135017  72.7459987  83.6105006 125.8595017
  73.7029987  83.6105006 125.8595017  72.5059987  84.5375006 125.8595017
  57.7519987  85.6905006 129.9045017  58.7089987  85.6905006 129.9045017
  57.5119987  86.6175006 129.9045017  73.5929987  85.4215006 135.0845017
  74.5499987  85.4215006 135.0845017  73.3529987  86.3485006 135.0845017
  75.1369987  83.5105006 136.1075017  76.0939987  83.5105006 136.1075017
  74.8969987  84.4375006 136.1075017  72.8419987  79.6565006 119.3425017
  73.7989987  79.6565006 119.3425017  72.6019987  80.5835006 119.3425017
  72.3999987  81.1935006 124.2875017  73.3569987  81.1935006 124.2875017
  72.1599987  82.1205006 124.2875017  73.0469987  81.7405006 129.7615017
  74.0039987  81.7405006 129.7615017  72.8069987  82.6675006 129.7615017
  73.1149987  82.4745006 132.5535017  74.0719987  82.4745006 132.5535017
  72.8749987  83.4015006 132.5535017  57.3589987  80.9705006 136.0425017
  58.3159987  80.9705006 136.0425017  57.1189987  81.8975006 136.0425017
  73.0939987  78.4755006 124.3635017  74.0509987  78.4755006 124.3635017
  72.8539987  79.4025006 124.3635017  58.5679987  79.2835006 128.9205017
  59.5249987  79.2835006 128.9205017  58.3279987  80.2105006 128.9205017
  56.8559987  82.2775006 129.9725017  57.8129987  82.2775006 129.9725017
  56.6159987  83.2045006 129.9725017  74.9759987  78.6275006 136.0775017
  75.9329987  78.6275006 136.0775017  74.7359987  79.5545006 136.0775017
  74.9059987  78.5165006 120.9245017  75.8629987  78.5165006 120.9245017
  74.6659987  79.4435006 120.9245017  57.2209987  78.5525006 124.0435017
  58.1779987  78.5525006 124.0435017  56.9809987  79.4795006 124.0435017
  71.9569987  93.4995006 125.9875017  72.9139987  93.4995006 125.9875017
  71.7169987  94.4265006 125.9875017  57.1869987  77.2375006 132.3565017
  58.1439987  77.2375006 132.3565017  56.9469987  78.1645006 132.3565017
  59.4019987  90.5195006 136.4465017  60.3589987  90.5195006 136.4465017
  59.1619987  91.4465006 136.4465017  62.3059987  91.3965006 132.7585017
  63.2629987  91.3965006 132.7585017  62.0659987  92.3235006 132.7585017
  66.5889987  93.0615006 135.4955017  67.5459987  93.0615006 135.4955017
  66.3489987  93.9885006 135.4955017  68.9529987  94.1065006 135.0035017
  69.9099987  94.1065006 135.0035017  68.7129987  95.0335006 135.0035017
  73.9279987  76.7265006 134.0745017  74.8849987  76.7265006 134.0745017
  73.6879987  77.6535006 134.0745017  59.7309987  94.6545006 132.7745017
  60.6879987  94.6545006 132.7745017  59.4909987  95.5815006 132.7745017
  62.1899987  94.2305006 131.8185017  63.1469987  94.2305006 131.8185017
  61.9499987  95.1575006 131.8185017  66.9059987  94.1385006 131.0195017
  67.8629987  94.1385006 131.0195017  66.6659987  95.0655006 131.0195017
  69.2069987  92.9815006 132.0095017  70.1639987  92.9815006 132.0095017
  68.9669987  93.9085006 132.0095017  71.7869987  94.5475006 132.2795017
  72.7439987  94.5475006 132.2795017  71.5469987  95.4745006 132.2795017
  59.1659987  93.2975006 129.7155017  60.1229987  93.2975006 129.7155017
  58.9259987  94.2245006 129.7155017  61.2609987  92.0095006 128.3695017
  62.2179987  92.0095006 128.3695017  61.0209987  92.9365006 128.3695017
  63.8529987  92.4915006 129.2435017  64.8099987  92.4915006 129.2435017
  63.6129987  93.4185006 129.2435017  67.3399987  78.1395006 128.4095017
  68.2969987  78.1395006 128.4095017  67.0999987  79.0665006 128.4095017
  72.4589987  76.1985006 128.4735017  73.4159987  76.1985006 128.4735017
  72.2189987  77.1255006 128.4735017  74.1369987  77.4185006 126.7545017
  75.0939987  77.4185006 126.7545017  73.8969987  78.3455006 126.7545017
  59.6629987  76.7665006 126.2365017  60.6199987  76.7665006 126.2365017
  59.4229987  77.6935006 126.2365017  58.4669987  76.5315006 121.9715017
  59.4239987  76.5315006 121.9715017  58.2269987  77.4585006 121.9715017
  64.1799987  76.0275006 126.2425017  65.1369987  76.0275006 126.2425017
  63.9399987  76.9545006 126.2425017  69.8729987  76.7115006 127.6555017
  70.8299987  76.7115006 127.6555017  69.6329987  77.6385006 127.6555017
  71.1489987  76.7475006 123.3315017  72.1059987  76.7475006 123.3315017
  70.9089987  77.6745006 123.3315017  58.3839987  92.4795006 122.9555017
  59.3409987  92.4795006 122.9555017  58.1439987  93.4065006 122.9555017
  60.3079987  78.4725006 120.4625017  61.2649987  78.4725006 120.4625017
  60.0679987  79.3995006 120.4625017  65.4599987  78.7525006 122.7095017
  66.4169987  78.7525006 122.7095017  65.2199987  79.6795006 122.7095017
  67.2449987  93.7615006 121.3185017  68.2019987  93.7615006 121.3185017
  67.0049987  94.6885006 121.3185017  73.9579987  93.2875006 124.0225017
  74.9149987  93.2875006 124.0225017  73.7179987  94.2145006 124.0225017
  59.5629987  77.2795006 135.6875017  60.5199987  77.2795006 135.6875017
  59.3229987  78.2065006 135.6875017  60.1789987  93.4505006 119.9185017
  61.1359987  93.4505006 119.9185017  59.9389987  94.3775006 119.9185017
  73.3729987  92.1335006 135.9035017  74.3299987  92.1335006 135.9035017
  73.1329987  93.0605006 135.9035017  87.6299987  85.9135006 126.1095017
  88.5869987  85.9135006 126.1095017  87.3899987  86.8405006 126.1095017
  86.4949987  85.1695006 129.5975017  87.4519987  85.1695006 129.5975017
  86.2549987  86.0965006 129.5975017  78.8449987  84.8265006 131.1575017
  79.8019987  84.8265006 131.1575017  78.6049987  85.7535006 131.1575017
  90.1949987  88.1115006 127.8695017  91.1519987  88.1115006 127.8695017
  89.9549987  89.0385006 127.8695017  79.7719987  89.2625006 129.6805017
  80.7289987  89.2625006 129.6805017  79.5319987  90.1895006 129.6805017
  76.4219987  82.8545006 125.1275017  77.3789987  82.8545006 125.1275017
  76.1819987  83.7815006 125.1275017  77.1189987  85.0695006 127.2605017
  78.0759987  85.0695006 127.2605017  76.8789987  85.9965006 127.2605017
  87.3149987  93.2595006 128.0995017  88.2719987  93.2595006 128.0995017
  87.0749987  94.1865006 128.0995017  84.8719987  87.5825006 130.0375017
  85.8289987  87.5825006 130.0375017  84.6319987  88.5095006 130.0375017
  93.4909987  79.2145006 130.8075017  94.4479987  79.2145006 130.8075017
  93.2509987  80.1415006 130.8075017  88.0339987  82.0365006 130.3615017
  88.9909987  82.0365006 130.3615017  87.7939987  82.9635006 130.3615017
  81.1589987  80.1175006 127.5935017  82.1159987  80.1175006 127.5935017
  80.9189987  81.0445006 127.5935017  88.8809987  80.2155006 125.9815017
  89.8379987  80.2155006 125.9815017  88.6409987  81.1425006 125.9815017
  77.7819987  82.5255006 128.3345017  78.7389987  82.5255006 128.3345017
  77.5419987  83.4525006 128.3345017  82.9379987  84.0845006 127.6285017
  83.8949987  84.0845006 127.6285017  82.6979987  85.0115006 127.6285017
  93.9339987  80.6535006 133.0565017  94.8909987  80.6535006 133.0565017
  93.6939987  81.5805006 133.0565017  80.0429987  79.0115006 131.6495017
  80.9999987  79.0115006 131.6495017  79.8029987  79.9385006 131.6495017
  87.3609987  88.5065006 125.1835017  88.3179987  88.5065006 125.1835017
  87.1209987  89.4335006 125.1835017  82.5769987  86.6695006 131.8925017
  83.5339987  86.6695006 131.8925017  82.3369987  87.5965006 131.8925017
  90.6829987  79.5435006 127.9535017  91.6399987  79.5435006 127.9535017
  90.4429987  80.4705006 127.9535017  79.6019987  80.8895006 129.6355017
  80.5589987  80.8895006 129.6355017  79.3619987  81.8165006 129.6355017
  81.0029987  88.6615006 132.6815017  81.9599987  88.6615006 132.6815017
  80.7629987  89.5885006 132.6815017  77.1009987  88.2925006 123.4975017
  78.0579987  88.2925006 123.4975017  76.8609987  89.2195006 123.4975017
  90.7219987  89.9455006 130.2375017  91.6789987  89.9455006 130.2375017
  90.4819987  90.8725006 130.2375017  91.0259987  78.2315006 131.6195017
  91.9829987  78.2315006 131.6195017  90.7859987  79.1585006 131.6195017
  84.0189987  76.3495006 129.1035017  84.9759987  76.3495006 129.1035017
  83.7789987  77.2765006 129.1035017  88.9729987  91.7295006 126.8425017
  89.9299987  91.7295006 126.8425017  88.7329987  92.6565006 126.8425017
  90.1719987  89.6585006 125.3495017  91.1289987  89.6585006 125.3495017
  89.9319987  90.5855006 125.3495017  91.8109987  88.2455006 133.8455017
  92.7679987  88.2455006 133.8455017  91.5709987  89.1725006 133.8455017
  86.3089987  85.1845006 123.6305017  87.2659987  85.1845006 123.6305017
  86.0689987  86.1115006 123.6305017  86.3649987  83.6985006 120.6125017
  87.3219987  83.6985006 120.6125017  86.1249987  84.6255006 120.6125017
  93.6809987  84.5455006 131.8835017  94.6379987  84.5455006 131.8835017
  93.4409987  85.4725006 131.8835017  89.7319987  85.3555006 124.5305017
  90.6889987  85.3555006 124.5305017  89.4919987  86.2825006 124.5305017
  89.6509987  83.4705006 133.5315017  90.6079987  83.4705006 133.5315017
  89.4109987  84.3975006 133.5315017  81.3459987  86.0255006 126.4475017
  82.3029987  86.0255006 126.4475017  81.1059987  86.9525006 126.4475017
  82.6829987  89.3985006 129.1305017  83.6399987  89.3985006 129.1305017
  82.4429987  90.3255006 129.1305017  81.6919987  84.7625006 130.0975017
  82.6489987  84.7625006 130.0975017  81.4519987  85.6895006 130.0975017
  88.1139987  90.3235006 130.8365017  89.0709987  90.3235006 130.8365017
  87.8739987  91.2505006 130.8365017  82.5879987  89.1335006 134.7925017
  83.5449987  89.1335006 134.7925017  82.3479987  90.0605006 134.7925017
  88.6019987  84.5615006 122.2035017  89.5589987  84.5615006 122.2035017
  88.3619987  85.4885006 122.2035017  79.5549987  85.3655006 134.0015017
  80.5119987  85.3655006 134.0015017  79.3149987  86.2925006 134.0015017
  86.3389987  91.2765006 125.6545017  87.2959987  91.2765006 125.6545017
  86.0989987  92.2035006 125.6545017  80.8489987  91.1905006 135.5825017
  81.8059987  91.1905006 135.5825017  80.6089987  92.1175006 135.5825017
  92.3289987  76.2795006 122.0745017  93.2859987  76.2795006 122.0745017
  92.0889987  77.2065006 122.0745017  80.3229987  85.0575006 124.0615017
  81.2799987  85.0575006 124.0615017  80.0829987  85.9845006 124.0615017
  93.4509987  90.6375006 120.4435017  94.4079987  90.6375006 120.4435017
  93.2109987  91.5645006 120.4435017  76.4279987  87.4685006 132.8995017
  77.3849987  87.4685006 132.8995017  76.1879987  88.3955006 132.8995017
  76.1829987  90.2035006 129.7285017  77.1399987  90.2035006 129.7285017
  75.9429987  91.1305006 129.7285017  94.4549987  90.8765006 135.3595017
  95.4119987  90.8765006 135.3595017  94.2149987  91.8035006 135.3595017
  85.4289987  90.4555006 134.3195017  86.3859987  90.4555006 134.3195017
  85.1889987  91.3825006 134.3195017  85.8239987  94.1965006 124.0765017
  86.7809987  94.1965006 124.0765017  85.5839987  95.1235006 124.0765017
  79.4409987  93.0545006 125.8845017  80.3979987  93.0545006 125.8845017
  79.2009987  93.9815006 125.8845017  88.8679987  93.4025006 121.0695017
  89.8249987  93.4025006 121.0695017  88.6279987  94.3295006 121.0695017
  88.5579987  93.3285006 123.8335017  89.5149987  93.3285006 123.8335017
  88.3179987  94.2555006 123.8335017  91.5709987  82.4225006 135.6615017
  92.5279987  82.4225006 135.6615017  91.3309987  83.3495006 135.6615017
  78.6889987  88.7625006 133.9035017  79.6459987  88.7625006 133.9035017
  78.4489987  89.6895006 133.9035017  81.3629987  77.2465006 129.8565017
  82.3199987  77.2465006 129.8565017  81.1229987  78.1735006 129.8565017
  85.9859987  76.9625006 133.2385017  86.9429987  76.9625006 133.2385017
  85.7459987  77.8895006 133.2385017  89.2909987  80.7455006 134.0985017
  90.2479987  80.7455006 134.0985017  89.0509987  81.6725006 134.0985017
  90.0559987  85.5835006 119.9575017  91.0129987  85.5835006 119.9575017
  89.8159987  86.5105006 119.9575017  85.6219987  79.4195006 120.2455017
  86.5789987  79.4195006 120.2455017  85.3819987  80.3465006 120.2455017
  81.4499987  82.2065006 131.0435017  82.4069987  82.2065006 131.0435017
  81.2099987  83.1335006 131.0435017  81.4109987  82.3835006 125.9475017
  82.3679987  82.3835006 125.9475017  81.1709987  83.3105006 125.9475017
  87.0419987  82.9175006 124.7925017  87.9989987  82.9175006 124.7925017
  86.8019987  83.8445006 124.7925017  86.0079987  82.8255006 135.9675017
  86.9649987  82.8255006 135.9675017  85.7679987  83.7525006 135.9675017
  87.9909987  82.3275006 127.5705017  88.9479987  82.3275006 127.5705017
  87.7509987  83.2545006 127.5705017  79.1339987  82.4915006 132.8285017
  80.0909987  82.4915006 132.8285017  78.8939987  83.4185006 132.8285017
  82.4919987  79.8805006 119.6375017  83.4489987  79.8805006 119.6375017
  82.2519987  80.8075006 119.6375017  75.7519987  79.6085006 126.7445017
  76.7089987  79.6085006 126.7445017  75.5119987  80.5355006 126.7445017
  77.0269987  80.3225006 122.1185017  77.9839987  80.3225006 122.1185017
  76.7869987  81.2495006 122.1185017  87.1949987  83.9375006 132.1855017
  88.1519987  83.9375006 132.1855017  86.9549987  84.8645006 132.1855017
  83.9809987  79.8125006 126.9885017  84.9379987  79.8125006 126.9885017
  83.7409987  80.7395006 126.9885017  78.8039987  81.4545006 125.8325017
  79.7609987  81.4545006 125.8325017  78.5639987  82.3815006 125.8325017
  82.4559987  81.4695006 123.4485017  83.4129987  81.4695006 123.4485017
  82.2159987  82.3965006 123.4485017  88.3979987  79.1305006 130.2055017
  89.3549987  79.1305006 130.2055017  88.1579987  80.0575006 130.2055017
  81.1209987  82.6975006 121.0355017  82.0779987  82.6975006 121.0355017
  80.8809987  83.6245006 121.0355017  91.6429987  94.7455006 136.4975017
  92.5999987  94.7455006 136.4975017  91.4029987  95.6725006 136.4975017
  79.1279987  87.2565006 136.0725017  80.0849987  87.2565006 136.0725017
  78.8879987  88.1835006 136.0725017  85.2829987  82.6515006 128.8685017
  86.2399987  82.6515006 128.8685017  85.0429987  83.5785006 128.8685017
  80.2999987  78.7945006 125.2915017  81.2569987  78.7945006 125.2915017
  80.0599987  79.7215006 125.2915017  83.9149987  80.9805006 131.2775017
  84.8719987  80.9805006 131.2775017  83.6749987  81.9075006 131.2775017
  84.5019987  87.2155006 122.9675017  85.4589987  87.2155006 122.9675017
  84.2619987  88.1425006 122.9675017  91.6579987  86.4025006 131.7775017
  92.6149987  86.4025006 131.7775017  91.4179987  87.3295006 131.7775017
  88.3639987  80.0435006 121.0965017  89.3209987  80.0435006 121.0965017
  88.1239987  80.9705006 121.0965017  85.9909987  87.4685006 134.1725017
  86.9479987  87.4685006 134.1725017  85.7509987  88.3955006 134.1725017
  89.0739987  81.9245006 122.7925017  90.0309987  81.9245006 122.7925017
  88.8339987  82.8515006 122.7925017  79.6079987  86.5845006 128.7675017
  80.5649987  86.5845006 128.7675017  79.3679987  87.5115006 128.7675017
  86.6079987  88.6815006 122.0005017  87.5649987  88.6815006 122.0005017
  86.3679987  89.6085006 122.0005017  76.6029987  85.0065006 134.0335017
  77.5599987  85.0065006 134.0335017  76.3629987  85.9335006 134.0335017
  83.7659987  84.9175006 135.7725017  84.7229987  84.9175006 135.7725017
  83.5259987  85.8445006 135.7725017  88.2759987  89.9045006 134.1315017
  89.2329987  89.9045006 134.1315017  88.0359987  90.8315006 134.1315017
  93.9969987  82.0845006 122.5325017  94.9539987  82.0845006 122.5325017
  93.7569987  83.0115006 122.5325017  93.9319987  87.9385006 135.3565017
  94.8889987  87.9385006 135.3565017  93.6919987  88.8655006 135.3565017
  92.2399987  90.9125006 122.9605017  93.1969987  90.9125006 122.9605017
  91.9999987  91.8395006 122.9605017  89.4519987  85.7375006 130.0115017
  90.4089987  85.7375006 130.0115017  89.2119987  86.6645006 130.0115017
  81.9889987  90.0335006 126.1265017  82.9459987  90.0335006 126.1265017
  81.7489987  90.9605006 126.1265017  77.7429987  84.8955006 120.7245017
  78.6999987  84.8955006 120.7245017  77.5029987  85.8225006 120.7245017
  83.4059987  87.7135006 125.6815017  84.3629987  87.7135006 125.6815017
  83.1659987  88.6405006 125.6815017  83.8649987  91.8795006 132.0615017
  84.8219987  91.8795006 132.0615017  83.6249987  92.8065006 132.0615017
  82.0869987  92.7285006 125.1955017  83.0439987  92.7285006 125.1955017
  81.8469987  93.6555006 125.1955017  87.4369987  87.9485006 131.7295017
  88.3939987  87.9485006 131.7295017  87.1969987  88.8755006 131.7295017
  89.6959987  88.9545006 120.7945017  90.6529987  88.9545006 120.7945017
  89.4559987  89.8815006 120.7945017  90.1129987  92.4825006 134.2215017
  91.0699987  92.4825006 134.2215017  89.8729987  93.4095006 134.2215017
  94.1729987  93.3315006 121.0365017  95.1299987  93.3315006 121.0365017
  93.9329987  94.2585006 121.0365017  78.2529987  79.7675006 133.6425017
  79.2099987  79.7675006 133.6425017  78.0129987  80.6945006 133.6425017
  90.4899987  87.5995006 123.0275017  91.4469987  87.5995006 123.0275017
  90.2499987  88.5265006 123.0275017  77.8789987  91.5285006 132.0065017
  78.8359987  91.5285006 132.0065017  77.6389987  92.4555006 132.0065017
  83.8139987  90.0415006 119.2735017  84.7709987  90.0415006 119.2735017
  83.5739987  90.9685006 119.2735017  82.6339987  89.5725006 121.7285017
  83.5909987  89.5725006 121.7285017  82.3939987  90.4995006 121.7285017
  79.1479987  86.8185006 122.2185017  80.1049987  86.8185006 122.2185017
  78.9079987  87.7455006 122.2185017  86.9889987  79.5035006 132.5235017
  87.9459987  79.5035006 132.5235017  86.7489987  80.4305006 132.5235017
  88.2159987  78.8915006 123.6475017  89.1729987  78.8915006 123.6475017
  87.9759987  79.8185006 123.6475017  85.4209987  91.2435006 122.4475017
  86.3779987  91.2435006 122.4475017  85.1809987  92.1705006 122.4475017
  84.7559987  81.5155006 125.0825017  85.7129987  81.5155006 125.0825017
  84.5159987  82.4425006 125.0825017  85.5169987  81.8435006 133.5685017
  86.4739987  81.8435006 133.5685017  85.2769987  82.7705006 133.5685017
  85.8349987  77.8945006 125.3785017  86.7919987  77.8945006 125.3785017
  85.5949987  78.8215006 125.3785017  82.8009987  92.2815006 122.4625017
  83.7579987  92.2815006 122.4625017  82.5609987  93.2085006 122.4625017
  81.4129987  79.0185006 122.0205017  82.3699987  79.0185006 122.0205017
  81.1729987  79.9455006 122.0205017  91.7019987  79.7085006 134.4075017
  92.6589987  79.7085006 134.4075017  91.4619987  80.6355006 134.4075017
  90.2979987  83.5165006 128.5085017  91.2549987  83.5165006 128.5085017
  90.0579987  84.4435006 128.5085017  79.7099987  89.4345006 121.0985017
  80.6669987  89.4345006 121.0985017  79.4699987  90.3615006 121.0985017
  78.0519987  82.1055006 120.2305017  79.0089987  82.1055006 120.2305017
  77.8119987  83.0325006 120.2305017  91.3649987  92.7635006 130.1545017
  92.3219987  92.7635006 130.1545017  91.1249987  93.6905006 130.1545017
  78.8649987  76.8965006 128.9575017  79.8219987  76.8965006 128.9575017
  78.6249987  77.8235006 128.9575017  77.8179987  90.8125006 125.1015017
  78.7749987  90.8125006 125.1015017  77.5779987  91.7395006 125.1015017
  76.9249987  93.4885006 136.3285017  77.8819987  93.4885006 136.3285017
  76.6849987  94.4155006 136.3285017  85.8209987  91.8965006 119.4065017
  86.7779987  91.8965006 119.4065017  85.5809987  92.8235006 119.4065017
  90.3909987  91.6545006 119.6065017  91.3479987  91.6545006 119.6065017
  90.1509987  92.5815006 119.6065017  81.2899987  87.5885006 119.4395017
  82.2469987  87.5885006 119.4395017  81.0499987  88.5155006 119.4395017
  86.7069987  88.6815006 119.1995017  87.6639987  88.6815006 119.1995017
  86.4669987  89.6085006 119.1995017  89.3499987  87.1815006 134.2345017
  90.3069987  87.1815006 134.2345017  89.1099987  88.1085006 134.2345017
  82.5039987  85.5835006 121.8345017  83.4609987  85.5835006 121.8345017
  82.2639987  86.5105006 121.8345017  81.7879987  83.4365006 134.1575017
  82.7449987  83.4365006 134.1575017  81.5479987  84.3635006 134.1575017
  83.5539987  83.8175006 120.0495017  84.5109987  83.8175006 120.0495017
  83.3139987  84.7445006 120.0495017  92.9199987  86.1435006 119.4855017
  93.8769987  86.1435006 119.4855017  92.6799987  87.0705006 119.4855017
  81.9579987  80.8815006 135.0735017  82.9149987  80.8815006 135.0735017
  81.7179987  81.8085006 135.0735017  82.5459987  79.1625006 132.7765017
  83.5029987  79.1625006 132.7765017  82.3059987  80.0895006 132.7765017
  84.1189987  84.6365006 132.9785017  85.0759987  84.6365006 132.9785017
  83.8789987  85.5635006 132.9785017  89.7039987  85.0235006 135.4985017
  90.6609987  85.0235006 135.4985017  89.4639987  85.9505006 135.4985017
  83.3439987  76.6265006 133.1795017  84.3009987  76.6265006 133.1795017
  83.1039987  77.5535006 133.1795017  87.3339987  80.0455006 135.7925017
  88.2909987  80.0455006 135.7925017  87.0939987  80.9725006 135.7925017
  83.5509987  75.9695006 135.8505017  84.5079987  75.9695006 135.8505017
  83.3109987  76.8965006 135.8505017  83.4049987  94.5135006 121.1075017
  84.3619987  94.5135006 121.1075017  83.1649987  95.4405006 121.1075017
  76.9669987  89.1175006 120.5775017  77.9239987  89.1175006 120.5775017
  76.7269987  90.0445006 120.5775017  75.7229987  94.4985006 125.5685017
  76.6799987  94.4985006 125.5685017  75.4829987  95.4255006 125.5685017
  76.5329987  92.6175006 127.4215017  77.4899987  92.6175006 127.4215017
  76.2929987  93.5445006 127.4215017  94.0869987  93.4185006 130.3645017
  95.0439987  93.4185006 130.3645017  93.8469987  94.3455006 130.3645017
  93.6899987  93.0095006 133.2875017  94.6469987  93.0095006 133.2875017
  93.4499987  93.9365006 133.2875017  93.4129987  87.0555006 123.4265017
  94.3699987  87.0555006 123.4265017  93.1729987  87.9825006 123.4265017
  93.7869987  85.1255006 125.2935017  94.7439987  85.1255006 125.2935017
  93.5469987  86.0525006 125.2935017  93.5429987  87.8365006 130.2695017
  94.4999987  87.8365006 130.2695017  93.3029987  88.7635006 130.2695017
  92.0779987  90.7105006 132.5725017  93.0349987  90.7105006 132.5725017
  91.8379987  91.6375006 132.5725017  94.1049987  84.9755006 121.6805017
  95.0619987  84.9755006 121.6805017  93.8649987  85.9025006 121.6805017
  92.4529987  82.2005006 120.2135017  93.4099987  82.2005006 120.2135017
  92.2129987  83.1275006 120.2135017  91.6019987  83.6105006 125.8595017
  92.5589987  83.6105006 125.8595017  91.3619987  84.5375006 125.8595017
  76.6079987  85.6905006 129.9045017  77.5649987  85.6905006 129.9045017
  76.3679987  86.6175006 129.9045017  92.4409987  85.4315006 135.0865017
  93.3979987  85.4315006 135.0865017  92.2009987  86.3585006 135.0865017
  93.9979987  83.5175006 136.0935017  94.9549987  83.5175006 136.0935017
  93.7579987  84.4445006 136.0935017  91.6949987  79.6565006 119.3425017
  92.6519987  79.6565006 119.3425017  91.4549987  80.5835006 119.3425017
  91.2749987  81.2025006 124.3015017  92.2319987  81.2025006 124.3015017
  91.0349987  82.1295006 124.3015017  91.9029987  81.7415006 129.7595017
  92.8599987  81.7415006 129.7595017  91.6629987  82.6685006 129.7595017
  91.9709987  82.4755006 132.5515017  92.9279987  82.4755006 132.5515017
  91.7309987  83.4025006 132.5515017  76.2149987  80.9705006 136.0425017
  77.1719987  80.9705006 136.0425017  75.9749987  81.8975006 136.0425017
  91.9379987  78.4765006 124.3695017  92.8949987  78.4765006 124.3695017
  91.6979987  79.4035006 124.3695017  77.4249987  79.2825006 128.9195017
  78.3819987  79.2825006 128.9195017  77.1849987  80.2095006 128.9195017
  75.7119987  82.2765006 129.9715017  76.6689987  82.2765006 129.9715017
  75.4719987  83.2035006 129.9715017  93.8349987  78.6415006 136.0515017
  94.7919987  78.6415006 136.0515017  93.5949987  79.5685006 136.0515017
  93.7589987  78.5155006 120.9225017  94.7159987  78.5155006 120.9225017
  93.5189987  79.4425006 120.9225017  76.0749987  78.5515006 124.0445017
  77.0319987  78.5515006 124.0445017  75.8349987  79.4785006 124.0445017
  90.8149987  93.4975006 125.9885017  91.7719987  93.4975006 125.9885017
  90.5749987  94.4245006 125.9885017  76.0419987  77.2395006 132.3565017
  76.9989987  77.2395006 132.3565017  75.8019987  78.1665006 132.3565017
  78.2589987  90.5185006 136.4465017  79.2159987  90.5185006 136.4465017
  78.0189987  91.4455006 136.4465017  81.1649987  91.3985006 132.7775017
  82.1219987  91.3985006 132.7775017  80.9249987  92.3255006 132.7775017
  85.4469987  93.0345006 135.4875017  86.4039987  93.0345006 135.4875017
  85.2069987  93.9615006 135.4875017  87.8019987  94.0785006 135.0295017
  88.7589987  94.0785006 135.0295017  87.5619987  95.0055006 135.0295017
  92.7829987  76.7295006 134.0735017  93.7399987  76.7295006 134.0735017
  92.5429987  77.6565006 134.0735017  78.5759987  94.6435006 132.7925017
  79.5329987  94.6435006 132.7925017  78.3359987  95.5705006 132.7925017
  81.0499987  94.2085006 131.8595017  82.0069987  94.2085006 131.8595017
  80.8099987  95.1355006 131.8595017  85.8089987  94.1065006 131.0755017
  86.7659987  94.1065006 131.0755017  85.5689987  95.0335006 131.0755017
  88.0579987  92.9695006 132.0325017  89.0149987  92.9695006 132.0325017
  87.8179987  93.8965006 132.0325017  90.6419987  94.5465006 132.2805017
  91.5989987  94.5465006 132.2805017  90.4019987  95.4735006 132.2805017
  77.9939987  93.2805006 129.7135017  78.9509987  93.2805006 129.7135017
  77.7539987  94.2075006 129.7135017  80.0769987  91.9755006 128.3685017
  81.0339987  91.9755006 128.3685017  79.8369987  92.9025006 128.3685017
  82.6029987  92.1525006 129.3745017  83.5599987  92.1525006 129.3745017
  82.3629987  93.0795006 129.3745017  86.1849987  78.1415006 128.3925017
  87.1419987  78.1415006 128.3925017  85.9449987  79.0685006 128.3925017
  91.3129987  76.1985006 128.4725017  92.2699987  76.1985006 128.4725017
  91.0729987  77.1255006 128.4725017  92.9999987  77.4185006 126.7605017
  93.9569987  77.4185006 126.7605017  92.7599987  78.3455006 126.7605017
  78.5459987  76.7805006 126.2065017  79.5029987  76.7805006 126.2065017
  78.3059987  77.7075006 126.2065017  77.3399987  76.5285006 121.9945017
  78.2969987  76.5285006 121.9945017  77.0999987  77.4555006 121.9945017
  83.0349987  76.6485006 126.0185017  83.9919987  76.6485006 126.0185017
  82.7949987  77.5755006 126.0185017  88.6969987  76.7215006 127.6475017
  89.6539987  76.7215006 127.6475017  88.4569987  77.6485006 127.6475017
  90.0159987  76.7325006 123.3215017  90.9729987  76.7325006 123.3215017
  89.7759987  77.6595006 123.3215017  77.2399987  92.4785006 122.9555017
  78.1969987  92.4785006 122.9555017  76.9999987  93.4055006 122.9555017
  79.1569987  78.4725006 120.4525017  80.1139987  78.4725006 120.4525017
  78.9169987  79.3995006 120.4525017  83.6959987  78.4065006 123.0685017
  84.6529987  78.4065006 123.0685017  83.4559987  79.3335006 123.0685017
  86.1009987  93.7615006 121.3185017  87.0579987  93.7615006 121.3185017
  85.8609987  94.6885006 121.3185017  92.8149987  93.2865006 124.0205017
  93.7719987  93.2865006 124.0205017  92.5749987  94.2135006 124.0205017
  78.4189987  77.2795006 135.6875017  79.3759987  77.2795006 135.6875017
  78.1789987  78.2065006 135.6875017  79.0339987  93.4505006 119.9155017
  79.9909987  93.4505006 119.9155017  78.7939987  94.3775006 119.9155017
  92.2359987  92.1315006 135.8885017  93.1929987  92.1315006 135.8885017
  91.9959987  93.0585006 135.8885017 106.4699987  85.8755006 126.0785017
 107.4269987  85.8755006 126.0785017 106.2299987  86.8025006 126.0785017
 105.2809987  85.1855006 129.6035017 106.2379987  85.1855006 129.6035017
 105.0409987  86.1125006 129.6035017  97.7009987  84.8265006 131.1575017
  98.6579987  84.8265006 131.1575017  97.4609987  85.7535006 131.1575017
  98.6359987  89.2785006 129.6655017  99.5929987  89.2785006 129.6655017
  98.3959987  90.2055006 129.6655017  95.2789987  82.8555006 125.1275017
  96.2359987  82.8555006 125.1275017  95.0389987  83.7825006 125.1275017
  95.9749987  85.0705006 127.2605017  96.9319987  85.0705006 127.2605017
  95.7349987  85.9975006 127.2605017 106.1819987  93.2275006 128.0845017
 107.1389987  93.2275006 128.0845017 105.9419987  94.1545006 128.0845017
 103.6989987  87.5655006 130.0265017 104.6559987  87.5655006 130.0265017
 103.4589987  88.4925006 130.0265017 106.2159987  81.7725006 130.3125017
 107.1729987  81.7725006 130.3125017 105.9759987  82.6995006 130.3125017
 100.0169987  80.1175006 127.5935017 100.9739987  80.1175006 127.5935017
  99.7769987  81.0445006 127.5935017 107.7189987  80.7025006 125.5615017
 108.6759987  80.7025006 125.5615017 107.4789987  81.6295006 125.5615017
  96.6379987  82.5265006 128.3345017  97.5949987  82.5265006 128.3345017
  96.3979987  83.4535006 128.3345017 101.7939987  84.0875006 127.6115017
 102.7509987  84.0875006 127.6115017 101.5539987  85.0145006 127.6115017
  98.8969987  79.0105006 131.6475017  99.8539987  79.0105006 131.6475017
  98.6569987  79.9375006 131.6475017 106.2189987  88.5115006 125.2035017
 107.1759987  88.5115006 125.2035017 105.9789987  89.4385006 125.2035017
 101.4349987  86.6645006 131.8965017 102.3919987  86.6645006 131.8965017
 101.1949987  87.5915006 131.8965017  98.4559987  80.8895006 129.6335017
  99.4129987  80.8895006 129.6335017  98.2159987  81.8165006 129.6335017
  99.8569987  88.6595006 132.6815017 100.8139987  88.6595006 132.6815017
  99.6169987  89.5865006 132.6815017  95.9599987  88.2915006 123.4965017
  96.9169987  88.2915006 123.4965017  95.7199987  89.2185006 123.4965017
 102.8739987  76.3555006 129.0945017 103.8309987  76.3555006 129.0945017
 102.6339987  77.2825006 129.0945017 107.5019987  91.5545006 126.4385017
 108.4589987  91.5545006 126.4385017 107.2619987  92.4815006 126.4385017
 105.1279987  85.1425006 123.5965017 106.0849987  85.1425006 123.5965017
 104.8879987  86.0695006 123.5965017 105.1879987  83.6715006 120.6205017
 106.1449987  83.6715006 120.6205017 104.9479987  84.5985006 120.6205017
 100.2069987  86.0195006 126.4425017 101.1639987  86.0195006 126.4425017
  99.9669987  86.9465006 126.4425017 101.5399987  89.4155006 129.1275017
 102.4969987  89.4155006 129.1275017 101.2999987  90.3425006 129.1275017
 100.5479987  84.7625006 130.0975017 101.5049987  84.7625006 130.0975017
 100.3079987  85.6895006 130.0975017 106.5379987  90.3525006 130.8685017
 107.4949987  90.3525006 130.8685017 106.2979987  91.2795006 130.8685017
 101.4439987  89.1295006 134.7895017 102.4009987  89.1295006 134.7895017
 101.2039987  90.0565006 134.7895017 107.4599987  84.5295006 122.2215017
 108.4169987  84.5295006 122.2215017 107.2199987  85.4565006 122.2215017
  98.4109987  85.3655006 134.0015017  99.3679987  85.3655006 134.0015017
  98.1709987  86.2925006 134.0015017 105.0819987  91.2695006 125.6585017
 106.0389987  91.2695006 125.6585017 104.8419987  92.1965006 125.6585017
  99.7039987  91.1915006 135.5815017 100.6609987  91.1915006 135.5815017
  99.4639987  92.1185006 135.5815017  99.2049987  85.0345006 124.0105017
 100.1619987  85.0345006 124.0105017  98.9649987  85.9615006 124.0105017
  95.2829987  87.4685006 132.8995017  96.2399987  87.4685006 132.8995017
  95.0429987  88.3955006 132.8995017  95.0319987  90.2035006 129.7285017
  95.9889987  90.2035006 129.7285017  94.7919987  91.1305006 129.7285017
 104.2649987  90.4875006 134.2785017 105.2219987  90.4875006 134.2785017
 104.0249987  91.4145006 134.2785017 104.6649987  94.1955006 124.0945017
 105.6219987  94.1955006 124.0945017 104.4249987  95.1225006 124.0945017
  98.3019987  93.0605006 125.8915017  99.2589987  93.0605006 125.8915017
  98.0619987  93.9875006 125.8915017 107.7589987  93.3935006 121.0545017
 108.7159987  93.3935006 121.0545017 107.5189987  94.3205006 121.0545017
 107.2509987  93.1605006 123.6895017 108.2079987  93.1605006 123.6895017
 107.0109987  94.0875006 123.6895017  97.5439987  88.7625006 133.9035017
  98.5009987  88.7625006 133.9035017  97.3039987  89.6895006 133.9035017
 100.2179987  77.2475006 129.8545017 101.1749987  77.2475006 129.8545017
  99.9779987  78.1745006 129.8545017 104.8939987  76.3795006 132.9655017
 105.8509987  76.3795006 132.9655017 104.6539987  77.3065006 132.9655017
 104.5249987  79.4895006 120.5405017 105.4819987  79.4895006 120.5405017
 104.2849987  80.4165006 120.5405017 100.2919987  82.2045006 131.0435017
 101.2489987  82.2045006 131.0435017 100.0519987  83.1315006 131.0435017
 100.2819987  82.3725006 125.9465017 101.2389987  82.3725006 125.9465017
 100.0419987  83.2995006 125.9465017 105.7749987  82.8495006 124.7305017
 106.7319987  82.8495006 124.7305017 105.5349987  83.7765006 124.7305017
 104.8229987  82.8885006 136.0005017 105.7799987  82.8885006 136.0005017
 104.5829987  83.8155006 136.0005017 106.7859987  82.3065006 127.5615017
 107.7429987  82.3065006 127.5615017 106.5459987  83.2335006 127.5615017
  97.9879987  82.4935006 132.8275017  98.9449987  82.4935006 132.8275017
  97.7479987  83.4205006 132.8275017 101.3449987  79.9105006 119.6495017
 102.3019987  79.9105006 119.6495017 101.1049987  80.8375006 119.6495017
  94.6079987  79.6095006 126.7445017  95.5649987  79.6095006 126.7445017
  94.3679987  80.5365006 126.7445017  95.8889987  80.3255006 122.1215017
  96.8459987  80.3255006 122.1215017  95.6489987  81.2525006 122.1215017
 106.0409987  83.9245006 132.2075017 106.9979987  83.9245006 132.2075017
 105.8009987  84.8515006 132.2075017 102.8439987  79.8745006 126.9745017
 103.8009987  79.8745006 126.9745017 102.6039987  80.8015006 126.9745017
  97.6619987  81.4595006 125.8325017  98.6189987  81.4595006 125.8325017
  97.4219987  82.3865006 125.8325017 101.3049987  81.4855006 123.4535017
 102.2619987  81.4855006 123.4535017 101.0649987  82.4125006 123.4535017
 107.2499987  79.0875006 130.2565017 108.2069987  79.0875006 130.2565017
 107.0099987  80.0145006 130.2565017 100.0519987  82.6345006 121.0725017
 101.0089987  82.6345006 121.0725017  99.8119987  83.5615006 121.0725017
  97.9819987  87.2575006 136.0735017  98.9389987  87.2575006 136.0735017
  97.7419987  88.1845006 136.0735017 104.0949987  82.6445006 128.8205017
 105.0519987  82.6445006 128.8205017 103.8549987  83.5715006 128.8205017
  99.1449987  78.7975006 125.2965017 100.1019987  78.7975006 125.2965017
  98.9049987  79.7245006 125.2965017 102.7559987  80.9905006 131.2595017
 103.7129987  80.9905006 131.2595017 102.5159987  81.9175006 131.2595017
 103.3649987  87.2055006 122.9725017 104.3219987  87.2055006 122.9725017
 103.1249987  88.1325006 122.9725017 107.1559987  80.0485006 121.1575017
 108.1129987  80.0485006 121.1575017 106.9159987  80.9755006 121.1575017
 104.8439987  87.4335006 134.1665017 105.8009987  87.4335006 134.1665017
 104.6039987  88.3605006 134.1665017   0.1189987  82.0335006 122.8575017
   1.0759987  82.0335006 122.8575017  -0.1210013  82.9605006 122.8575017
  98.4619987  86.5825006 128.7675017  99.4189987  86.5825006 128.7675017
  98.2219987  87.5095006 128.7675017 105.4509987  88.6635006 122.0775017
 106.4079987  88.6635006 122.0775017 105.2109987  89.5905006 122.0775017
  95.4579987  85.0075006 134.0345017  96.4149987  85.0075006 134.0345017
  95.2179987  85.9345006 134.0345017 102.6129987  84.9215006 135.7755017
 103.5699987  84.9215006 135.7755017 102.3729987  85.8485006 135.7755017
 107.1609987  89.9635006 134.1485017 108.1179987  89.9635006 134.1485017
 106.9209987  90.8905006 134.1485017 100.8369987  90.0485006 126.1545017
 101.7939987  90.0485006 126.1545017 100.5969987  90.9755006 126.1545017
  96.5649987  84.9335006 120.7495017  97.5219987  84.9335006 120.7495017
  96.3249987  85.8605006 120.7495017 102.2539987  87.7165006 125.6795017
 103.2109987  87.7165006 125.6795017 102.0139987  88.6435006 125.6795017
 102.7089987  91.8895006 132.0455017 103.6659987  91.8895006 132.0455017
 102.4689987  92.8165006 132.0455017 100.9379987  92.7155006 125.2185017
 101.8949987  92.7155006 125.2185017 100.6979987  93.6425006 125.2185017
 106.2729987  87.9065006 131.7095017 107.2299987  87.9065006 131.7095017
 106.0329987  88.8335006 131.7095017  97.1089987  79.7665006 133.6415017
  98.0659987  79.7665006 133.6415017  96.8689987  80.6935006 133.6415017
  96.7429987  91.5365006 132.0015017  97.6999987  91.5365006 132.0015017
  96.5029987  92.4635006 132.0015017 102.4559987  90.0495006 119.2925017
 103.4129987  90.0495006 119.2925017 102.2159987  90.9765006 119.2925017
 101.4679987  89.5635006 121.7465017 102.4249987  89.5635006 121.7465017
 101.2279987  90.4905006 121.7465017  97.9989987  86.8075006 122.1915017
  98.9559987  86.8075006 122.1915017  97.7589987  87.7345006 122.1915017
 105.8929987  79.4715006 132.4585017 106.8499987  79.4715006 132.4585017
 105.6529987  80.3985006 132.4585017 106.3259987  79.3135006 123.5975017
 107.2829987  79.3135006 123.5975017 106.0859987  80.2405006 123.5975017
 104.2919987  91.2575006 122.4845017 105.2489987  91.2575006 122.4845017
 104.0519987  92.1845006 122.4845017 103.7899987  80.8675006 124.4405017
 104.7469987  80.8675006 124.4405017 103.5499987  81.7945006 124.4405017
 104.3729987  81.8555006 133.5715017 105.3299987  81.8555006 133.5715017
 104.1329987  82.7825006 133.5715017 104.6989987  77.9025006 125.3525017
 105.6559987  77.9025006 125.3525017 104.4589987  78.8295006 125.3525017
 101.6349987  92.2745006 122.4495017 102.5919987  92.2745006 122.4495017
 101.3949987  93.2015006 122.4495017 100.3229987  79.0105006 122.0405017
 101.2799987  79.0105006 122.0405017 100.0829987  79.9375006 122.0405017
  98.5639987  89.4215006 121.0995017  99.5209987  89.4215006 121.0995017
  98.3239987  90.3485006 121.0995017  96.8909987  82.1005006 120.2205017
  97.8479987  82.1005006 120.2205017  96.6509987  83.0275006 120.2205017
  97.7209987  76.8965006 128.9535017  98.6779987  76.8965006 128.9535017
  97.4809987  77.8235006 128.9535017  96.6699987  90.8155006 125.1065017
  97.6269987  90.8155006 125.1065017  96.4299987  91.7425006 125.1065017
  95.7819987  93.4865006 136.3295017  96.7389987  93.4865006 136.3295017
  95.5419987  94.4135006 136.3295017 104.6659987  92.0365006 119.6855017
 105.6229987  92.0365006 119.6855017 104.4259987  92.9635006 119.6855017
 100.1109987  87.5495006 119.4245017 101.0679987  87.5495006 119.4245017
  99.8709987  88.4765006 119.4245017 105.8969987  88.2995006 119.5385017
 106.8539987  88.2995006 119.5385017 105.6569987  89.2265006 119.5385017
 101.3049987  85.5865006 121.8025017 102.2619987  85.5865006 121.8025017
 101.0649987  86.5135006 121.8025017 100.6449987  83.4365006 134.1575017
 101.6019987  83.4365006 134.1575017 100.4049987  84.3635006 134.1575017
 102.3829987  83.8225006 120.0435017 103.3399987  83.8225006 120.0435017
 102.1429987  84.7495006 120.0435017 100.7979987  80.8705006 135.0615017
 101.7549987  80.8705006 135.0615017 100.5579987  81.7975006 135.0615017
 101.3939987  79.1785006 132.7685017 102.3509987  79.1785006 132.7685017
 101.1539987  80.1055006 132.7685017 102.9899987  84.6365006 132.9805017
 103.9469987  84.6365006 132.9805017 102.7499987  85.5635006 132.9805017
 102.2039987  76.6305006 133.1705017 103.1609987  76.6305006 133.1705017
 101.9639987  77.5575006 133.1705017 106.2119987  80.3505006 136.0665017
 107.1689987  80.3505006 136.0665017 105.9719987  81.2775006 136.0665017
 102.3929987  75.9405006 135.8565017 103.3499987  75.9405006 135.8565017
 102.1529987  76.8675006 135.8565017 102.2589987  94.5225006 121.1135017
 103.2159987  94.5225006 121.1135017 102.0189987  95.4495006 121.1135017
  95.8289987  89.1055006 120.5835017  96.7859987  89.1055006 120.5835017
  95.5889987  90.0325006 120.5835017  94.5789987  94.4995006 125.5685017
  95.5359987  94.4995006 125.5685017  94.3389987  95.4265006 125.5685017
  95.4079987  92.6175006 127.4225017  96.3649987  92.6175006 127.4225017
  95.1679987  93.5445006 127.4225017  95.4609987  85.6925006 129.9095017
  96.4179987  85.6925006 129.9095017  95.2209987  86.6195006 129.9095017
  95.0719987  80.9715006 136.0425017  96.0289987  80.9715006 136.0425017
  94.8319987  81.8985006 136.0425017  96.2799987  79.2825006 128.9195017
  97.2369987  79.2825006 128.9195017  96.0399987  80.2095006 128.9195017
  94.5679987  82.2775006 129.9715017  95.5249987  82.2775006 129.9715017
  94.3279987  83.2045006 129.9715017  94.9279987  78.5515006 124.0435017
  95.8849987  78.5515006 124.0435017  94.6879987  79.4785006 124.0435017
  94.8989987  77.2385006 132.3565017  95.8559987  77.2385006 132.3565017
  94.6589987  78.1655006 132.3565017  97.1139987  90.5195006 136.4465017
  98.0709987  90.5195006 136.4465017  96.8739987  91.4465006 136.4465017
 100.0199987  91.3975006 132.7585017 100.9769987  91.3975006 132.7585017
  99.7799987  92.3245006 132.7585017 104.2919987  93.0725006 135.5145017
 105.2489987  93.0725006 135.5145017 104.0519987  93.9995006 135.5145017
 106.6949987  94.1405006 134.9705017 107.6519987  94.1405006 134.9705017
 106.4549987  95.0675006 134.9705017  97.4419987  94.6545006 132.7755017
  98.3989987  94.6545006 132.7755017  97.2019987  95.5815006 132.7755017
  99.9029987  94.2315006 131.8195017 100.8599987  94.2315006 131.8195017
  99.6629987  95.1585006 131.8195017 104.5989987  94.1415006 131.0245017
 105.5559987  94.1415006 131.0245017 104.3589987  95.0685006 131.0245017
 106.9379987  93.0255006 132.0435017 107.8949987  93.0255006 132.0435017
 106.6979987  93.9525006 132.0435017  96.8759987  93.2975006 129.7155017
  97.8329987  93.2975006 129.7155017  96.6359987  94.2245006 129.7155017
  98.9709987  92.0095006 128.3685017  99.9279987  92.0095006 128.3685017
  98.7309987  92.9365006 128.3685017 101.5379987  92.4925006 129.2405017
 102.4949987  92.4925006 129.2405017 101.2979987  93.4195006 129.2405017
 105.0099987  78.1335006 128.3655017 105.9669987  78.1335006 128.3655017
 104.7699987  79.0605006 128.3655017  97.3949987  76.7735006 126.2225017
  98.3519987  76.7735006 126.2225017  97.1549987  77.7005006 126.2225017
  96.1829987  76.5285006 121.9705017  97.1399987  76.5285006 121.9705017
  95.9429987  77.4555006 121.9705017 101.8999987  76.6825006 126.0125017
 102.8569987  76.6825006 126.0125017 101.6599987  77.6095006 126.0125017
 107.4579987  76.6475006 127.8005017 108.4149987  76.6475006 127.8005017
 107.2179987  77.5745006 127.8005017  96.0959987  92.4785006 122.9555017
  97.0529987  92.4785006 122.9555017  95.8559987  93.4055006 122.9555017
  98.0229987  78.4995006 120.4445017  98.9799987  78.4995006 120.4445017
  97.7829987  79.4265006 120.4445017 103.0449987  78.7205006 122.8715017
 104.0019987  78.7205006 122.8715017 102.8049987  79.6475006 122.8715017
 104.9489987  93.8685006 121.3695017 105.9059987  93.8685006 121.3695017
 104.7089987  94.7955006 121.3695017  97.2719987  77.2685006 135.6875017
  98.2289987  77.2685006 135.6875017  97.0319987  78.1955006 135.6875017
  97.8919987  93.4515006 119.9195017  98.8489987  93.4515006 119.9195017
  97.6519987  94.3785006 119.9195017  12.1689987 104.7815006 126.1345017
  13.1259987 104.7815006 126.1345017  11.9289987 105.7085006 126.1345017
  11.0689987 104.0325006 129.5995017  12.0259987 104.0325006 129.5995017
  10.8289987 104.9595006 129.5995017   3.4839987 103.6415006 131.1095017
   4.4409987 103.6415006 131.1095017   3.2439987 104.5685006 131.1095017
  14.6339987 106.7945006 127.7975017  15.5909987 106.7945006 127.7975017
  14.3939987 107.7215006 127.7975017   4.4519987 107.5795006 130.0715017
   5.4089987 107.5795006 130.0715017   4.2119987 108.5065006 130.0715017
   1.0649987 101.8015006 125.0745017   2.0219987 101.8015006 125.0745017
   0.8249987 102.7285006 125.0745017   1.6879987 103.9025006 127.2605017
   2.6449987 103.9025006 127.2605017   1.4479987 104.8295006 127.2605017
   9.4299987 106.4095006 130.0695017  10.3869987 106.4095006 130.0695017
   9.1899987 107.3365006 130.0695017  18.0669987  98.0705006 130.8075017
  19.0239987  98.0705006 130.8075017  17.8269987  98.9975006 130.8075017
  12.6119987 100.8895006 130.3605017  13.5689987 100.8895006 130.3605017
  12.3719987 101.8165006 130.3605017   5.7509987  98.9585006 127.5675017
   6.7079987  98.9585006 127.5675017   5.5109987  99.8855006 127.5675017
  13.4709987  99.0635006 125.9635017  14.4279987  99.0635006 125.9635017
  13.2309987  99.9905006 125.9635017   2.5389987 101.4285006 128.2355017
   3.4959987 101.4285006 128.2355017   2.2989987 102.3555006 128.2355017
   7.5189987 102.9505006 127.6165017   8.4759987 102.9505006 127.6165017
   7.2789987 103.8775006 127.6165017  18.5029987  99.5055006 133.0585017
  19.4599987  99.5055006 133.0585017  18.2629987 100.4325006 133.0585017
   4.6229987  97.8555006 131.6475017   5.5799987  97.8555006 131.6475017
   4.3829987  98.7825006 131.6475017  11.9669987 107.3815006 125.1865017
  12.9239987 107.3815006 125.1865017  11.7269987 108.3085006 125.1865017
   7.1439987 105.5305006 131.8895017   8.1009987 105.5305006 131.8895017
   6.9039987 106.4575006 131.8895017  15.2619987  98.4005006 127.9555017
  16.2189987  98.4005006 127.9555017  15.0219987  99.3275006 127.9555017
   4.1999987  99.7155006 129.6345017   5.1569987  99.7155006 129.6345017
   3.9599987 100.6425006 129.6345017   5.5729987 107.5445006 132.6105017
   6.5299987 107.5445006 132.6105017   5.3329987 108.4715006 132.6105017
   1.6549987 107.0615006 123.5315017   2.6119987 107.0615006 123.5315017
   1.4149987 107.9885006 123.5315017  15.6009987  97.0845006 131.6195017
  16.5579987  97.0845006 131.6195017  15.3609987  98.0115006 131.6195017
   8.5899987  95.2025006 129.0955017   9.5469987  95.2025006 129.0955017
   8.3499987  96.1295006 129.0955017  16.3089987 106.9555006 133.8275017
  17.2659987 106.9555006 133.8275017  16.0689987 107.8825006 133.8275017
  10.8759987 103.9985006 123.6175017  11.8329987 103.9985006 123.6175017
  10.6359987 104.9255006 123.6175017  10.9359987 102.5405006 120.6265017
  11.8929987 102.5405006 120.6265017  10.6959987 103.4675006 120.6265017
  18.2549987 103.4075006 131.8875017  19.2119987 103.4075006 131.8875017
  18.0149987 104.3345006 131.8875017  14.2839987 104.1865006 124.5275017
  15.2409987 104.1865006 124.5275017  14.0439987 105.1135006 124.5275017
  14.2269987 102.3235006 133.5245017  15.1839987 102.3235006 133.5245017
  13.9869987 103.2505006 133.5245017   5.9299987 104.8705006 126.4425017
   6.8869987 104.8705006 126.4425017   5.6899987 105.7975006 126.4425017
   6.2769987 103.6435006 130.0985017   7.2339987 103.6435006 130.0985017
   6.0369987 104.5705006 130.0985017   6.6479987   0.0245006 134.8605017
   7.6049987   0.0245006 134.8605017   6.4079987   0.9515006 134.8605017
  13.1799987 103.3985006 122.2005017  14.1369987 103.3985006 122.2005017
  12.9399987 104.3255006 122.2005017   4.1839987 104.3495006 133.9325017
   5.1409987 104.3495006 133.9325017   3.9439987 105.2765006 133.9325017
  16.9029987  95.1375006 122.0775017  17.8599987  95.1375006 122.0775017
  16.6629987  96.0645006 122.0775017   4.9349987 103.9235006 124.0545017
   5.8919987 103.9235006 124.0545017   4.6949987 104.8505006 124.0545017
   1.0769987 106.3565006 132.8465017   2.0339987 106.3565006 132.8465017
   0.8369987 107.2835006 132.8465017  16.1319987 101.2615006 135.6825017
  17.0889987 101.2615006 135.6825017  15.8919987 102.1885006 135.6825017
   3.2749987 107.5985006 133.8945017   4.2319987 107.5985006 133.8945017
   3.0349987 108.5255006 133.8945017   5.9379987  96.1115006 129.8445017
   6.8949987  96.1115006 129.8445017   5.6979987  97.0385006 129.8445017
  10.5789987  95.8035006 133.2455017  11.5359987  95.8035006 133.2455017
  10.3389987  96.7305006 133.2455017  13.8649987  99.5995006 134.0955017
  14.8219987  99.5995006 134.0955017  13.6249987 100.5265006 134.0955017
  14.6319987 104.4125006 119.9515017  15.5889987 104.4125006 119.9515017
  14.3919987 105.3395006 119.9515017  10.2359987  98.3495006 120.5215017
  11.1929987  98.3495006 120.5215017   9.9959987  99.2765006 120.5215017
   6.0619987 101.0645006 131.0165017   7.0189987 101.0645006 131.0165017
   5.8219987 101.9915006 131.0165017   5.9849987 101.2295006 125.9475017
   6.9419987 101.2295006 125.9475017   5.7449987 102.1565006 125.9475017
  11.5139987 101.6985006 124.7335017  12.4709987 101.6985006 124.7335017
  11.2739987 102.6255006 124.7335017  10.5869987 101.6835006 135.9675017
  11.5439987 101.6835006 135.9675017  10.3469987 102.6105006 135.9675017
  12.5529987 101.1795006 127.5685017  13.5099987 101.1795006 127.5685017
  12.3129987 102.1065006 127.5685017   4.0389987 101.1195006 132.6475017
   4.9959987 101.1195006 132.6475017   3.7989987 102.0465006 132.6475017
   7.0789987  98.7365006 119.6295017   8.0359987  98.7365006 119.6295017
   6.8389987  99.6635006 119.6295017   0.4289987  97.7695006 127.0805017
   1.3859987  97.7695006 127.0805017   0.1889987  98.6965006 127.0805017
   1.8009987  99.1805006 122.2195017   2.7579987  99.1805006 122.2195017
   1.5609987 100.1075006 122.2195017  11.7719987 102.7845006 132.1885017
  12.7289987 102.7845006 132.1885017  11.5319987 103.7115006 132.1885017
   8.5589987  98.7385006 126.9795017   9.5159987  98.7385006 126.9795017
   8.3189987  99.6655006 126.9795017   3.3909987 100.2925006 125.8185017
   4.3479987 100.2925006 125.8185017   3.1509987 101.2195006 125.8185017
   7.0239987 100.3415006 123.4565017   7.9809987 100.3415006 123.4565017
   6.7839987 101.2685006 123.4565017  12.9719987  97.9755006 130.2195017
  13.9289987  97.9755006 130.2195017  12.7319987  98.9025006 130.2195017
   5.7079987 101.5355006 121.0445017   6.6649987 101.5355006 121.0445017
   5.4679987 102.4625006 121.0445017   3.7269987 106.1185006 136.0805017
   4.6839987 106.1185006 136.0805017   3.4869987 107.0455006 136.0805017
   9.8579987 101.5075006 128.8645017  10.8149987 101.5075006 128.8645017
   9.6179987 102.4345006 128.8645017   4.8549987  97.6585006 125.2805017
   5.8119987  97.6585006 125.2805017   4.6149987  98.5855006 125.2805017
   8.4929987  99.8365006 131.2775017   9.4499987  99.8365006 131.2775017
   8.2529987 100.7635006 131.2775017   9.0989987 106.0905006 122.9685017
  10.0559987 106.0905006 122.9685017   8.8589987 107.0175006 122.9685017
  16.2329987 105.2735006 131.7545017  17.1899987 105.2735006 131.7545017
  15.9929987 106.2005006 131.7545017  12.9189987  98.8835006 121.1505017
  13.8759987  98.8835006 121.1505017  12.6789987  99.8105006 121.1505017
  10.5289987 106.2965006 134.1585017  11.4859987 106.2965006 134.1585017
  10.2889987 107.2235006 134.1585017  13.6479987 100.7845006 122.7935017
  14.6049987 100.7845006 122.7935017  13.4079987 101.7115006 122.7935017
   4.1569987 105.4145006 128.7105017   5.1139987 105.4145006 128.7105017
   3.9169987 106.3415006 128.7105017  11.1929987 107.5275006 122.0325017
  12.1499987 107.5275006 122.0325017  10.9529987 108.4545006 122.0325017
   0.8019987 104.1435006 134.1255017   1.7589987 104.1435006 134.1255017
   0.5619987 105.0705006 134.1255017   8.3529987 103.7825006 135.7765017
   9.3099987 103.7825006 135.7765017   8.1129987 104.7095006 135.7765017
  18.5539987 100.9365006 122.5475017  19.5109987 100.9365006 122.5475017
  18.3139987 101.8635006 122.5475017  18.5159987 106.7565006 135.3575017
  19.4729987 106.7565006 135.3575017  18.2759987 107.6835006 135.3575017
  14.0289987 104.5885006 130.0235017  14.9859987 104.5885006 130.0235017
  13.7889987 105.5155006 130.0235017   2.2849987 103.7365006 120.7515017
   3.2419987 103.7365006 120.7515017   2.0449987 104.6635006 120.7515017
   8.0119987 106.5085006 125.6805017   8.9689987 106.5085006 125.6805017
   7.7719987 107.4355006 125.6805017  11.9899987 106.8045006 131.7065017
  12.9469987 106.8045006 131.7065017  11.7499987 107.7315006 131.7065017
  14.2459987 107.7485006 120.8215017  15.2029987 107.7485006 120.8215017
  14.0059987 108.6755006 120.8215017   2.8019987  98.5685006 133.5735017
   3.7589987  98.5685006 133.5735017   2.5619987  99.4955006 133.5735017
  15.0719987 106.3955006 123.0215017  16.0289987 106.3955006 123.0215017
  14.8319987 107.3225006 123.0215017   3.6739987 105.6765006 122.1915017
   4.6309987 105.6765006 122.1915017   3.4339987 106.6035006 122.1915017
  11.5659987  98.3585006 132.5225017  12.5229987  98.3585006 132.5225017
  11.3259987  99.2855006 132.5225017  12.3159987  97.9465006 123.6175017
  13.2729987  97.9465006 123.6175017  12.0759987  98.8735006 123.6175017
   9.5319987  99.7015006 124.4435017  10.4889987  99.7015006 124.4435017
   9.2919987 100.6285006 124.4435017  10.0939987 100.6995006 133.5685017
  11.0509987 100.6995006 133.5685017   9.8539987 101.6265006 133.5685017
  10.3929987  96.7585006 125.3495017  11.3499987  96.7585006 125.3495017
  10.1529987  97.6855006 125.3495017   6.0499987  97.8535006 122.0465017
   7.0069987  97.8535006 122.0465017   5.8099987  98.7805006 122.0465017
  16.2769987  98.5585006 134.4055017  17.2339987  98.5585006 134.4055017
  16.0369987  99.4855006 134.4055017  14.8759987 102.3725006 128.5105017
  15.8329987 102.3725006 128.5105017  14.6359987 103.2995006 128.5105017
   2.5799987 100.9725006 120.2765017   3.5369987 100.9725006 120.2765017
   2.3399987 101.8995006 120.2765017   3.4619987  95.7505006 128.9385017
   4.4189987  95.7505006 128.9385017   3.2219987  96.6775006 128.9385017
   5.8509987 106.4225006 119.4255017   6.8079987 106.4225006 119.4255017
   5.6109987 107.3495006 119.4255017  11.1279987 107.4985006 119.1965017
  12.0849987 107.4985006 119.1965017  10.8879987 108.4255006 119.1965017
  13.8869987 106.0175006 134.1835017  14.8439987 106.0175006 134.1835017
  13.6469987 106.9445006 134.1835017   7.0599987 104.4585006 121.8085017
   8.0169987 104.4585006 121.8085017   6.8199987 105.3855006 121.8085017
   6.4019987 102.3105006 134.1815017   7.3589987 102.3105006 134.1815017
   6.1619987 103.2375006 134.1815017   8.1339987 102.6435006 120.0495017
   9.0909987 102.6435006 120.0495017   7.8939987 103.5705006 120.0495017
  17.5039987 104.9925006 119.4765017  18.4609987 104.9925006 119.4765017
  17.2639987 105.9195006 119.4765017   6.5709987  99.7355006 135.0795017
   7.5279987  99.7355006 135.0795017   6.3309987 100.6625006 135.0795017
   7.1259987  98.0155006 132.7665017   8.0829987  98.0155006 132.7665017
   6.8859987  98.9425006 132.7665017   8.6989987 103.4985006 132.9735017
   9.6559987 103.4985006 132.9735017   8.4589987 104.4255006 132.9735017
  14.2929987 103.8845006 135.4845017  15.2499987 103.8845006 135.4845017
  14.0529987 104.8115006 135.4845017   7.9299987  95.4795006 133.1745017
   8.8869987  95.4795006 133.1745017   7.6899987  96.4065006 133.1745017
  11.9119987  98.8845006 135.7875017  12.8689987  98.8845006 135.7875017
  11.6719987  99.8115006 135.7875017   8.1459987  94.8315006 135.8555017
   9.1029987  94.8315006 135.8555017   7.9059987  95.7585006 135.8555017
   1.5659987 107.8665006 120.3685017   2.5229987 107.8665006 120.3685017
   1.3259987 108.7935006 120.3685017  17.9839987 105.8665006 123.4415017
  18.9409987 105.8665006 123.4415017  17.7439987 106.7935006 123.4415017
  18.3699987 103.9635006 125.3025017  19.3269987 103.9635006 125.3025017
  18.1299987 104.8905006 125.3025017  18.1049987 106.7155006 130.2555017
  19.0619987 106.7155006 130.2555017  17.8649987 107.6425006 130.2555017
  18.6629987 103.7905006 121.6925017  19.6199987 103.7905006 121.6925017
  18.4229987 104.7175006 121.6925017  17.0299987 101.0555006 120.2095017
  17.9869987 101.0555006 120.2095017  16.7899987 101.9825006 120.2095017
  16.1859987 102.4595006 125.8655017  17.1429987 102.4595006 125.8655017
  15.9459987 103.3865006 125.8655017   1.1729987 104.5285006 129.8855017
   2.1299987 104.5285006 129.8855017   0.9329987 105.4555006 129.8855017
  17.0319987 104.2855006 135.0685017  17.9889987 104.2855006 135.0685017
  16.7919987 105.2125006 135.0685017  18.5699987 102.3655006 136.1055017
  19.5269987 102.3655006 136.1055017  18.3299987 103.2925006 136.1055017
  16.2689987  98.5125006 119.3455017  17.2259987  98.5125006 119.3455017
  16.0289987  99.4395006 119.3455017  15.8349987 100.0515006 124.2925017
  16.7919987 100.0515006 124.2925017  15.5949987 100.9785006 124.2925017
  16.4789987 100.5965006 129.7605017  17.4359987 100.5965006 129.7605017
  16.2389987 101.5235006 129.7605017  16.5389987 101.3235006 132.5485017
  17.4959987 101.3235006 132.5485017  16.2989987 102.2505006 132.5485017
   0.8139987  99.7875006 136.0545017   1.7709987  99.7875006 136.0545017
   0.5739987 100.7145006 136.0545017  16.5109987  97.3335006 124.3705017
  17.4679987  97.3335006 124.3705017  16.2709987  98.2605006 124.3705017
   2.0849987  98.1705006 128.9135017   3.0419987  98.1705006 128.9135017
   1.8449987  99.0975006 128.9135017   0.8829987 101.0995006 130.1195017
   1.8399987 101.0995006 130.1195017   0.6429987 102.0265006 130.1195017
  18.4079987  97.4845006 136.0775017  19.3649987  97.4845006 136.0775017
  18.1679987  98.4115006 136.0775017  18.3389987  97.3725006 120.9235017
  19.2959987  97.3725006 120.9235017  18.0989987  98.2995006 120.9235017
   0.8919987  97.3455006 124.0565017   1.8489987  97.3455006 124.0565017
   0.6519987  98.2725006 124.0565017 108.3429987  96.0835006 132.3935017
 109.2999987  96.0835006 132.3935017 108.1029987  97.0105006 132.3935017
  17.3599987  95.5805006 134.0765017  18.3169987  95.5805006 134.0765017
  17.1199987  96.5075006 134.0765017  10.7539987  96.9975006 128.3855017
  11.7109987  96.9975006 128.3855017  10.5139987  97.9245006 128.3855017
  15.8899987  95.0545006 128.4735017  16.8469987  95.0545006 128.4735017
  15.6499987  95.9815006 128.4735017  17.5679987  96.2775006 126.7545017
  18.5249987  96.2775006 126.7545017  17.3279987  97.2045006 126.7545017
   3.1299987  95.6265006 126.1805017   4.0869987  95.6265006 126.1805017
   2.8899987  96.5535006 126.1805017   1.9369987  95.3765006 122.0175017
   2.8939987  95.3765006 122.0175017   1.6969987  96.3035006 122.0175017
   7.6149987  95.5485006 126.0145017   8.5719987  95.5485006 126.0145017
   7.3749987  96.4755006 126.0145017  13.2819987  95.5735006 127.6535017
  14.2389987  95.5735006 127.6535017  13.0419987  96.5005006 127.6535017
  14.5799987  95.6045006 123.3345017  15.5369987  95.6045006 123.3345017
  14.3399987  96.5315006 123.3345017   3.7349987  97.3365006 120.4575017
   4.6919987  97.3365006 120.4575017   3.4949987  98.2635006 120.4575017
   8.7609987  97.5825006 122.8715017   9.7179987  97.5825006 122.8715017
   8.5209987  98.5095006 122.8715017   2.9979987  96.0895006 135.6395017
   3.9549987  96.0895006 135.6395017   2.7579987  97.0165006 135.6395017
  31.0439987 104.7675006 126.1075017  32.0009987 104.7675006 126.1075017
  30.8039987 105.6945006 126.1075017  29.9579987 104.0085006 129.6025017
  30.9149987 104.0085006 129.6025017  29.7179987 104.9355006 129.6025017
  22.2809987 103.6735006 131.1495017  23.2379987 103.6735006 131.1495017
  22.0409987 104.6005006 131.1495017  33.4939987 106.8035006 127.7925017
  34.4509987 106.8035006 127.7925017  33.2539987 107.7305006 127.7925017
  23.3269987 107.5915006 130.0695017  24.2839987 107.5915006 130.0695017
  23.0869987 108.5185006 130.0695017  19.8489987 101.7025006 125.1275017
  20.8059987 101.7025006 125.1275017  19.6089987 102.6295006 125.1275017
  20.5499987 103.9405006 127.2675017  21.5069987 103.9405006 127.2675017
  20.3099987 104.8675006 127.2675017  28.2879987 106.4065006 130.0695017
  29.2449987 106.4065006 130.0695017  28.0479987 107.3335006 130.0695017
  36.8869987  98.0965006 130.7985017  37.8439987  98.0965006 130.7985017
  36.6469987  99.0235006 130.7985017  30.8929987 100.8025006 130.2605017
  31.8499987 100.8025006 130.2605017  30.6529987 101.7295006 130.2605017
  24.5929987  98.9745006 127.5945017  25.5499987  98.9745006 127.5945017
  24.3529987  99.9015006 127.5945017  32.3199987  99.1045006 125.9715017
  33.2769987  99.1045006 125.9715017  32.0799987 100.0315006 125.9715017
  21.2139987 101.3815006 128.3345017  22.1709987 101.3815006 128.3345017
  20.9739987 102.3085006 128.3345017  26.3629987 102.9555006 127.6135017
  27.3199987 102.9555006 127.6135017  26.1229987 103.8825006 127.6135017
  37.3449987  99.5035006 133.0535017  38.3019987  99.5035006 133.0535017
  37.1049987 100.4305006 133.0535017  23.4749987  97.8675006 131.6495017
  24.4319987  97.8675006 131.6495017  23.2349987  98.7945006 131.6495017
  30.8209987 107.3835006 125.1885017  31.7779987 107.3835006 125.1885017
  30.5809987 108.3105006 125.1885017  26.0029987 105.5205006 131.8875017
  26.9599987 105.5205006 131.8875017  25.7629987 106.4475006 131.8875017
  34.0779987  98.4405006 128.0115017  35.0349987  98.4405006 128.0115017
  33.8379987  99.3675006 128.0115017  23.0329987  99.7445006 129.6365017
  23.9899987  99.7445006 129.6365017  22.7929987 100.6715006 129.6365017
  24.4289987 107.5445006 132.6155017  25.3859987 107.5445006 132.6155017
  24.1889987 108.4715006 132.6155017  20.4999987 107.0685006 123.5665017
  21.4569987 107.0685006 123.5665017  20.2599987 107.9955006 123.5665017
  34.4519987  97.0965006 131.6165017  35.4089987  97.0965006 131.6165017
  34.2119987  98.0235006 131.6165017  27.4469987  95.2025006 129.0965017
  28.4039987  95.2025006 129.0965017  27.2069987  96.1295006 129.0965017
  35.1649987 106.9555006 133.8255017  36.1219987 106.9555006 133.8255017
  34.9249987 107.8825006 133.8255017  29.6559987 103.9655006 123.6235017
  30.6129987 103.9655006 123.6235017  29.4159987 104.8925006 123.6235017
  29.8259987 102.5625006 120.5985017  30.7829987 102.5625006 120.5985017
  29.5859987 103.4895006 120.5985017  37.0869987 103.3875006 131.8715017
  38.0439987 103.3875006 131.8715017  36.8469987 104.3145006 131.8715017
  33.1729987 104.1665006 124.5555017  34.1299987 104.1665006 124.5555017
  32.9329987 105.0935006 124.5555017  33.0909987 102.3225006 133.4905017
  34.0479987 102.3225006 133.4905017  32.8509987 103.2495006 133.4905017
  24.7739987 104.8655006 126.4405017  25.7309987 104.8655006 126.4405017
  24.5339987 105.7925006 126.4405017  25.1219987 103.6415006 130.1015017
  26.0789987 103.6415006 130.1015017  24.8819987 104.5685006 130.1015017
  25.4939987   0.0275006 134.8695017  26.4509987   0.0275006 134.8695017
  25.2539987   0.9545006 134.8695017  31.8729987 103.9125006 122.3725017
  32.8299987 103.9125006 122.3725017  31.6329987 104.8395006 122.3725017
  22.9919987 104.2165006 133.9995017  23.9489987 104.2165006 133.9995017
  22.7519987 105.1435006 133.9995017  35.7579987  95.1445006 122.0775017
  36.7149987  95.1445006 122.0775017  35.5179987  96.0715006 122.0775017
  23.7699987 103.9135006 124.0565017  24.7269987 103.9135006 124.0565017
  23.5299987 104.8405006 124.0565017  19.8299987 106.3165006 132.8905017
  20.7869987 106.3165006 132.8905017  19.5899987 107.2435006 132.8905017
  34.9979987 101.2585006 135.6725017  35.9549987 101.2585006 135.6725017
  34.7579987 102.1855006 135.6725017  22.1279987 107.5705006 133.8865017
  23.0849987 107.5705006 133.8865017  21.8879987 108.4975006 133.8865017
  24.7949987  96.1025006 129.8565017  25.7519987  96.1025006 129.8565017
  24.5549987  97.0295006 129.8565017  29.4329987  95.8025006 133.2465017
  30.3899987  95.8025006 133.2465017  29.1929987  96.7295006 133.2465017
  32.7049987  99.6075006 134.0585017  33.6619987  99.6075006 134.0585017
  32.4649987 100.5345006 134.0585017  33.5219987 104.3435006 119.9605017
  34.4789987 104.3435006 119.9605017  33.2819987 105.2705006 119.9605017
  29.1089987  98.3595006 120.5315017  30.0659987  98.3595006 120.5315017
  28.8689987  99.2865006 120.5315017  24.8809987 101.0685006 131.0425017
  25.8379987 101.0685006 131.0425017  24.6409987 101.9955006 131.0425017
  24.8539987 101.2245006 125.9495017  25.8109987 101.2245006 125.9495017
  24.6139987 102.1515006 125.9495017  30.3699987 101.7005006 124.7335017
  31.3269987 101.7005006 124.7335017  30.1299987 102.6275006 124.7335017
  29.4359987 101.6845006 135.9765017  30.3929987 101.6845006 135.9765017
  29.1959987 102.6115006 135.9765017  31.4639987 101.1735006 127.5885017
  32.4209987 101.1735006 127.5885017  31.2239987 102.1005006 127.5885017
  22.5679987 101.3465006 132.8275017  23.5249987 101.3465006 132.8275017
  22.3279987 102.2735006 132.8275017  25.9229987  98.7375006 119.6375017
  26.8799987  98.7375006 119.6375017  25.6829987  99.6645006 119.6375017
  19.1839987  98.4655006 126.7445017  20.1409987  98.4655006 126.7445017
  18.9439987  99.3925006 126.7445017  20.4589987  99.1775006 122.1185017
  21.4159987  99.1775006 122.1185017  20.2189987 100.1045006 122.1185017
  30.6879987 102.7755006 132.2175017  31.6449987 102.7755006 132.2175017
  30.4479987 103.7025006 132.2175017  27.4219987  98.7355006 126.9775017
  28.3789987  98.7355006 126.9775017  27.1819987  99.6625006 126.9775017
  22.2379987 100.3145006 125.8315017  23.1949987 100.3145006 125.8315017
  21.9979987 101.2415006 125.8315017  25.8819987 100.3385006 123.4555017
  26.8389987 100.3385006 123.4555017  25.6419987 101.2655006 123.4555017
  31.8429987  98.0585006 130.2095017  32.7999987  98.0585006 130.2095017
  31.6029987  98.9855006 130.2095017  24.5819987 101.5295006 121.0535017
  25.5389987 101.5295006 121.0535017  24.3419987 102.4565006 121.0535017
  22.5609987 106.1435006 136.0815017  23.5179987 106.1435006 136.0815017
  22.3209987 107.0705006 136.0815017  28.6939987 101.5145006 128.8475017
  29.6509987 101.5145006 128.8475017  28.4539987 102.4415006 128.8475017
  23.7209987  97.6525006 125.2975017  24.6779987  97.6525006 125.2975017
  23.4809987  98.5795006 125.2975017  27.3579987  99.8415006 131.2745017
  28.3149987  99.8415006 131.2745017  27.1179987 100.7685006 131.2745017
  27.9539987 106.0925006 122.9675017  28.9109987 106.0925006 122.9675017
  27.7139987 107.0195006 122.9675017  35.0799987 105.2325006 131.7355017
  36.0369987 105.2325006 131.7355017  34.8399987 106.1595006 131.7355017
  31.7719987  98.9015006 121.1285017  32.7289987  98.9015006 121.1285017
  31.5319987  99.8285006 121.1285017  29.3839987 106.2955006 134.1565017
  30.3409987 106.2955006 134.1565017  29.1439987 107.2225006 134.1565017
  32.5069987 100.5945006 122.9625017  33.4639987 100.5945006 122.9625017
  32.2669987 101.5215006 122.9625017  23.0109987 105.4115006 128.7085017
  23.9679987 105.4115006 128.7085017  22.7709987 106.3385006 128.7085017
  30.0469987 107.5315006 122.0345017  31.0039987 107.5315006 122.0345017
  29.8069987 108.4585006 122.0345017  20.0499987 103.8425006 134.0315017
  21.0069987 103.8425006 134.0315017  19.8099987 104.7695006 134.0315017
  27.2099987 103.7755006 135.7685017  28.1669987 103.7755006 135.7685017
  26.9699987 104.7025006 135.7685017  37.3719987 100.9445006 122.5575017
  38.3289987 100.9445006 122.5575017  37.1319987 101.8715006 122.5575017
  37.3729987 106.7585006 135.3575017  38.3299987 106.7585006 135.3575017
  37.1329987 107.6855006 135.3575017  32.8819987 104.5595006 130.0585017
  33.8389987 104.5595006 130.0585017  32.6419987 105.4865006 130.0585017
  21.1759987 103.7325006 120.7325017  22.1329987 103.7325006 120.7325017
  20.9359987 104.6595006 120.7325017  26.8679987 106.5075006 125.6805017
  27.8249987 106.5075006 125.6805017  26.6279987 107.4345006 125.6805017
  30.8409987 106.8105006 131.7075017  31.7979987 106.8105006 131.7075017
  30.6009987 107.7375006 131.7075017  33.1009987 107.7175006 120.8055017
  34.0579987 107.7175006 120.8055017  32.8609987 108.6445006 120.8055017
  21.6839987  98.6235006 133.6425017  22.6409987  98.6235006 133.6425017
  21.4439987  99.5505006 133.6425017  33.9419987 106.3695006 123.0065017
  34.8989987 106.3695006 123.0065017  33.7019987 107.2965006 123.0065017
  22.5799987 105.6835006 122.2205017  23.5369987 105.6835006 122.2205017
  22.3399987 106.6105006 122.2205017  30.4539987  98.3575006 132.5025017
  31.4109987  98.3575006 132.5025017  30.2139987  99.2845006 132.5025017
  31.1619987  97.9745006 123.6215017  32.1189987  97.9745006 123.6215017
  30.9219987  98.9015006 123.6215017  28.3889987  99.7005006 124.4455017
  29.3459987  99.7005006 124.4455017  28.1489987 100.6275006 124.4455017
  28.9819987 100.7125006 133.5515017  29.9389987 100.7125006 133.5515017
  28.7419987 101.6395006 133.5515017  29.2549987  96.7595006 125.3615017
  30.2119987  96.7595006 125.3615017  29.0149987  97.6865006 125.3615017
  24.9019987  97.8505006 122.0475017  25.8589987  97.8505006 122.0475017
  24.6619987  98.7775006 122.0475017  35.1239987  98.5725006 134.3955017
  36.0809987  98.5725006 134.3955017  34.8839987  99.4995006 134.3955017
  33.6989987 102.3815006 128.5765017  34.6559987 102.3815006 128.5765017
  33.4589987 103.3085006 128.5765017  21.4839987 100.9615006 120.2355017
  22.4409987 100.9615006 120.2355017  21.2439987 101.8885006 120.2355017
  22.2969987  95.7515006 128.9535017  23.2539987  95.7515006 128.9535017
  22.0569987  96.6785006 128.9535017  24.7129987 106.4345006 119.4285017
  25.6699987 106.4345006 119.4285017  24.4729987 107.3615006 119.4285017
  29.9899987 107.5085006 119.2135017  30.9469987 107.5085006 119.2135017
  29.7499987 108.4355006 119.2135017  32.7429987 106.0185006 134.1855017
  33.6999987 106.0185006 134.1855017  32.5029987 106.9455006 134.1855017
  25.9139987 104.4585006 121.8075017  26.8709987 104.4585006 121.8075017
  25.6739987 105.3855006 121.8075017  25.2209987 102.2905006 134.1575017
  26.1779987 102.2905006 134.1575017  24.9809987 103.2175006 134.1575017
  26.9939987 102.6375006 120.0475017  27.9509987 102.6375006 120.0475017
  26.7539987 103.5645006 120.0475017  36.3369987 104.9895006 119.4775017
  37.2939987 104.9895006 119.4775017  36.0969987 105.9165006 119.4775017
  25.3909987  99.7375006 135.0735017  26.3479987  99.7375006 135.0735017
  25.1509987 100.6645006 135.0735017  25.9819987  98.0185006 132.7655017
  26.9389987  98.0185006 132.7655017  25.7419987  98.9455006 132.7655017
  27.5559987 103.4935006 132.9725017  28.5129987 103.4935006 132.9725017
  27.3159987 104.4205006 132.9725017  33.1539987 103.8735006 135.4675017
  34.1109987 103.8735006 135.4675017  32.9139987 104.8005006 135.4675017
  26.7789987  95.4825006 133.1775017  27.7359987  95.4825006 133.1775017
  26.5389987  96.4095006 133.1775017  30.7699987  98.8825006 135.7865017
  31.7269987  98.8825006 135.7865017  30.5299987  99.8095006 135.7865017
  27.0009987  94.8315006 135.8535017  27.9579987  94.8315006 135.8535017
  26.7609987  95.7585006 135.8535017  20.4749987 107.7895006 120.4275017
  21.4319987 107.7895006 120.4275017  20.2349987 108.7165006 120.4275017
  36.8349987 105.8525006 123.4325017  37.7919987 105.8525006 123.4325017
  36.5949987 106.7795006 123.4325017  37.2269987 103.9635006 125.3055017
  38.1839987 103.9635006 125.3055017  36.9869987 104.8905006 125.3055017
  36.9609987 106.7155006 130.2575017  37.9179987 106.7155006 130.2575017
  36.7209987 107.6425006 130.2575017  37.4729987 103.7705006 121.7025017
  38.4299987 103.7705006 121.7025017  37.2329987 104.6975006 121.7025017
  35.7909987 101.0775006 120.2055017  36.7479987 101.0775006 120.2055017
  35.5509987 102.0045006 120.2055017  35.0039987 102.4525006 125.8665017
  35.9609987 102.4525006 125.8665017  34.7639987 103.3795006 125.8665017
  20.0349987 104.5375006 129.8965017  20.9919987 104.5375006 129.8965017
  19.7949987 105.4645006 129.8965017  35.8899987 104.2855006 135.0675017
  36.8469987 104.2855006 135.0675017  35.6499987 105.2125006 135.0675017
  37.4259987 102.3655006 136.1055017  38.3829987 102.3655006 136.1055017
  37.1859987 103.2925006 136.1055017  35.1109987  98.5445006 119.3915017
  36.0679987  98.5445006 119.3915017  34.8709987  99.4715006 119.3915017
  34.7049987 100.0505006 124.2775017  35.6619987 100.0505006 124.2775017
  34.4649987 100.9775006 124.2775017  35.4219987 100.6025006 129.7415017
  36.3789987 100.6025006 129.7415017  35.1819987 101.5295006 129.7415017
  35.3489987 101.3305006 132.4595017  36.3059987 101.3305006 132.4595017
  35.1089987 102.2575006 132.4595017  19.6469987  99.8265006 136.0425017
  20.6039987  99.8265006 136.0425017  19.4069987 100.7535006 136.0425017
  35.3669987  97.3335006 124.3725017  36.3239987  97.3335006 124.3725017
  35.1269987  98.2605006 124.3725017  20.8569987  98.1395006 128.9195017
  21.8139987  98.1395006 128.9195017  20.6169987  99.0665006 128.9195017
  19.1439987 101.1235006 129.9675017  20.1009987 101.1235006 129.9675017
  18.9039987 102.0505006 129.9675017  37.2649987  97.4845006 136.0765017
  38.2219987  97.4845006 136.0765017  37.0249987  98.4115006 136.0765017
  37.1949987  97.3795006 120.9275017  38.1519987  97.3795006 120.9275017
  36.9549987  98.3065006 120.9275017  19.5079987  97.4075006 124.0435017
  20.4649987  97.4075006 124.0435017  19.2679987  98.3345006 124.0435017
  19.4749987  96.0925006 132.3565017  20.4319987  96.0925006 132.3565017
  19.2349987  97.0195006 132.3565017  36.2159987  95.5855006 134.0735017
  37.1729987  95.5855006 134.0735017  35.9759987  96.5125006 134.0735017
  29.6349987  97.0065006 128.3975017  30.5919987  97.0065006 128.3975017
  29.3949987  97.9335006 128.3975017  34.7479987  95.0515006 128.4715017
  35.7049987  95.0515006 128.4715017  34.5079987  95.9785006 128.4715017
  36.4189987  96.2805006 126.7575017  37.3759987  96.2805006 126.7575017
  36.1789987  97.2075006 126.7575017  21.9699987  95.6295006 126.2235017
  22.9269987  95.6295006 126.2235017  21.7299987  96.5565006 126.2235017
  20.7589987  95.3855006 121.9695017  21.7159987  95.3855006 121.9695017
  20.5189987  96.3125006 121.9695017  26.4709987  95.5475006 126.0135017
  27.4279987  95.5475006 126.0135017  26.2309987  96.4745006 126.0135017
  32.1429987  95.5835006 127.6575017  33.0999987  95.5835006 127.6575017
  31.9029987  96.5105006 127.6575017  33.4359987  95.6225006 123.3335017
  34.3929987  95.6225006 123.3335017  33.1959987  96.5495006 123.3335017
  22.5909987  97.3275006 120.4555017  23.5479987  97.3275006 120.4555017
  22.3509987  98.2545006 120.4555017  27.6189987  97.5825006 122.8695017
  28.5759987  97.5825006 122.8695017  27.3789987  98.5095006 122.8695017
  21.8509987  96.1355006 135.6875017  22.8079987  96.1355006 135.6875017
  21.6109987  97.0625006 135.6875017  49.8809987 104.7815006 126.1345017
  50.8379987 104.7815006 126.1345017  49.6409987 105.7085006 126.1345017
  48.7749987 104.0305006 129.6015017  49.7319987 104.0305006 129.6015017
  48.5349987 104.9575006 129.6015017  41.1369987 103.6735006 131.1505017
  42.0939987 103.6735006 131.1505017  40.8969987 104.6005006 131.1505017
  52.3459987 106.7945006 127.7975017  53.3029987 106.7945006 127.7975017
  52.1059987 107.7215006 127.7975017  42.1809987 107.5915006 130.0675017
  43.1379987 107.5915006 130.0675017  41.9409987 108.5185006 130.0675017
  38.7039987 101.7025006 125.1315017  39.6609987 101.7025006 125.1315017
  38.4639987 102.6295006 125.1315017  39.4069987 103.9405006 127.2675017
  40.3639987 103.9405006 127.2675017  39.1669987 104.8675006 127.2675017
  47.1439987 106.4085006 130.0695017  48.1009987 106.4085006 130.0695017
  46.9039987 107.3355006 130.0695017  55.7789987  98.0705006 130.8075017
  56.7359987  98.0705006 130.8075017  55.5389987  98.9975006 130.8075017
  50.3239987 100.8895006 130.3605017  51.2809987 100.8895006 130.3605017
  50.0839987 101.8165006 130.3605017  43.4489987  98.9745006 127.5935017
  44.4059987  98.9745006 127.5935017  43.2089987  99.9015006 127.5935017
  51.1829987  99.0635006 125.9635017  52.1399987  99.0635006 125.9635017
  50.9429987  99.9905006 125.9635017  40.0689987 101.3805006 128.3345017
  41.0259987 101.3805006 128.3345017  39.8289987 102.3075006 128.3345017
  45.2319987 102.9515006 127.6185017  46.1889987 102.9515006 127.6185017
  44.9919987 103.8785006 127.6185017  56.2149987  99.5055006 133.0585017
  57.1719987  99.5055006 133.0585017  55.9749987 100.4325006 133.0585017
  42.3309987  97.8675006 131.6485017  43.2879987  97.8675006 131.6485017
  42.0909987  98.7945006 131.6485017  49.6789987 107.3815006 125.1865017
  50.6359987 107.3815006 125.1865017  49.4389987 108.3085006 125.1865017
  44.8559987 105.5305006 131.8895017  45.8129987 105.5305006 131.8895017
  44.6159987 106.4575006 131.8895017  52.9739987  98.4005006 127.9555017
  53.9309987  98.4005006 127.9555017  52.7339987  99.3275006 127.9555017
  41.8909987  99.7455006 129.6355017  42.8479987  99.7455006 129.6355017
  41.6509987 100.6725006 129.6355017  43.2839987 107.5485006 132.6145017
  44.2409987 107.5485006 132.6145017  43.0439987 108.4755006 132.6145017
  39.3549987 107.0675006 123.5665017  40.3119987 107.0675006 123.5665017
  39.1149987 107.9945006 123.5665017  53.3129987  97.0845006 131.6195017
  54.2699987  97.0845006 131.6195017  53.0729987  98.0115006 131.6195017
  46.3029987  95.2035006 129.0975017  47.2599987  95.2035006 129.0975017
  46.0629987  96.1305006 129.0975017  54.0209987 106.9555006 133.8275017
  54.9779987 106.9555006 133.8275017  53.7809987 107.8825006 133.8275017
  48.5879987 103.9985006 123.6175017  49.5449987 103.9985006 123.6175017
  48.3479987 104.9255006 123.6175017  48.6479987 102.5395006 120.6275017
  49.6049987 102.5395006 120.6275017  48.4079987 103.4665006 120.6275017
  55.9669987 103.4075006 131.8875017  56.9239987 103.4075006 131.8875017
  55.7269987 104.3345006 131.8875017  51.9959987 104.1865006 124.5275017
  52.9529987 104.1865006 124.5275017  51.7559987 105.1135006 124.5275017
  51.9389987 102.3235006 133.5245017  52.8959987 102.3235006 133.5245017
  51.6989987 103.2505006 133.5245017  43.6309987 104.8645006 126.4405017
  44.5879987 104.8645006 126.4405017  43.3909987 105.7915006 126.4405017
  43.9699987 103.6445006 130.0985017  44.9269987 103.6445006 130.0985017
  43.7299987 104.5715006 130.0985017  44.3499987   0.0275006 134.8695017
  45.3069987   0.0275006 134.8695017  44.1099987   0.9545006 134.8695017
  50.8919987 103.3985006 122.2005017  51.8489987 103.3985006 122.2005017
  50.6519987 104.3255006 122.2005017  41.8479987 104.2165006 133.9995017
  42.8049987 104.2165006 133.9995017  41.6079987 105.1435006 133.9995017
  54.6149987  95.1375006 122.0775017  55.5719987  95.1375006 122.0775017
  54.3749987  96.0645006 122.0775017  42.6269987 103.9135006 124.0555017
  43.5839987 103.9135006 124.0555017  42.3869987 104.8405006 124.0555017
  38.6739987 106.3065006 132.8915017  39.6309987 106.3065006 132.8915017
  38.4339987 107.2335006 132.8915017  53.8439987 101.2615006 135.6825017
  54.8009987 101.2615006 135.6825017  53.6039987 102.1885006 135.6825017
  40.9819987 107.5685006 133.8855017  41.9389987 107.5685006 133.8855017
  40.7419987 108.4955006 133.8855017  43.6509987  96.1025006 129.8565017
  44.6079987  96.1025006 129.8565017  43.4109987  97.0295006 129.8565017
  48.2899987  95.8035006 133.2455017  49.2469987  95.8035006 133.2455017
  48.0499987  96.7305006 133.2455017  51.5769987  99.6005006 134.0955017
  52.5339987  99.6005006 134.0955017  51.3369987 100.5275006 134.0955017
  52.3439987 104.4145006 119.9505017  53.3009987 104.4145006 119.9505017
  52.1039987 105.3415006 119.9505017  47.9469987  98.3495006 120.5195017
  48.9039987  98.3495006 120.5195017  47.7069987  99.2765006 120.5195017
  43.7379987 101.0685006 131.0415017  44.6949987 101.0685006 131.0415017
  43.4979987 101.9955006 131.0415017  43.7139987 101.2295006 125.9465017
  44.6709987 101.2295006 125.9465017  43.4739987 102.1565006 125.9465017
  49.2279987 101.6995006 124.7325017  50.1849987 101.6995006 124.7325017
  48.9879987 102.6265006 124.7325017  48.2969987 101.6815006 135.9685017
  49.2539987 101.6815006 135.9685017  48.0569987 102.6085006 135.9685017
  50.2649987 101.1795006 127.5685017  51.2219987 101.1795006 127.5685017
  50.0249987 102.1065006 127.5685017  41.4169987 101.3485006 132.8245017
  42.3739987 101.3485006 132.8245017  41.1769987 102.2755006 132.8245017
  44.7799987  98.7395006 119.6365017  45.7369987  98.7395006 119.6365017
  44.5399987  99.6665006 119.6365017  38.0399987  98.4645006 126.7445017
  38.9969987  98.4645006 126.7445017  37.7999987  99.3915006 126.7445017
  39.3119987  99.1805006 122.1205017  40.2689987  99.1805006 122.1205017
  39.0719987 100.1075006 122.1205017  49.4839987 102.7845006 132.1885017
  50.4409987 102.7845006 132.1885017  49.2439987 103.7115006 132.1885017
  46.2699987  98.7385006 126.9795017  47.2269987  98.7385006 126.9795017
  46.0299987  99.6655006 126.9795017  41.0939987 100.3155006 125.8315017
  42.0509987 100.3155006 125.8315017  40.8539987 101.2425006 125.8315017
  44.7399987 100.3395006 123.4575017  45.6969987 100.3395006 123.4575017
  44.4999987 101.2665006 123.4575017  50.6829987  97.9765006 130.2195017
  51.6399987  97.9765006 130.2195017  50.4429987  98.9035006 130.2195017
  43.4289987 101.5115006 121.0605017  44.3859987 101.5115006 121.0605017
  43.1889987 102.4385006 121.0605017  41.4179987 106.1425006 136.0835017
  42.3749987 106.1425006 136.0835017  41.1779987 107.0695006 136.0835017
  47.5659987 101.5055006 128.8645017  48.5229987 101.5055006 128.8645017
  47.3259987 102.4325006 128.8645017  42.5769987  97.6525006 125.2985017
  43.5339987  97.6525006 125.2985017  42.3369987  98.5795006 125.2985017
  46.2029987  99.8375006 131.2775017  47.1599987  99.8375006 131.2775017
  45.9629987 100.7645006 131.2775017  46.8099987 106.0915006 122.9565017
  47.7669987 106.0915006 122.9565017  46.5699987 107.0185006 122.9565017
  53.9449987 105.2735006 131.7545017  54.9019987 105.2735006 131.7545017
  53.7049987 106.2005006 131.7545017  50.6309987  98.8835006 121.1505017
  51.5879987  98.8835006 121.1505017  50.3909987  99.8105006 121.1505017
  48.2409987 106.2965006 134.1585017  49.1979987 106.2965006 134.1585017
  48.0009987 107.2235006 134.1585017  51.3599987 100.7845006 122.7935017
  52.3169987 100.7845006 122.7935017  51.1199987 101.7115006 122.7935017
  41.8669987 105.4115006 128.7085017  42.8239987 105.4115006 128.7085017
  41.6269987 106.3385006 128.7085017  48.9009987 107.5265006 122.0255017
  49.8579987 107.5265006 122.0255017  48.6609987 108.4535006 122.0255017
  38.9039987 103.8415006 134.0295017  39.8609987 103.8415006 134.0295017
  38.6639987 104.7685006 134.0295017  46.0659987 103.7765006 135.7685017
  47.0229987 103.7765006 135.7685017  45.8259987 104.7035006 135.7685017
  56.2649987 100.9385006 122.5475017  57.2219987 100.9385006 122.5475017
  56.0249987 101.8655006 122.5475017  56.2279987 106.7565006 135.3575017
  57.1849987 106.7565006 135.3575017  55.9879987 107.6835006 135.3575017
  51.7409987 104.5885006 130.0235017  52.6979987 104.5885006 130.0235017
  51.5009987 105.5155006 130.0235017  40.0279987 103.7315006 120.7355017
  40.9849987 103.7315006 120.7355017  39.7879987 104.6585006 120.7355017
  45.7239987 106.5075006 125.6805017  46.6809987 106.5075006 125.6805017
  45.4839987 107.4345006 125.6805017  49.7029987 106.8045006 131.7065017
  50.6599987 106.8045006 131.7065017  49.4629987 107.7315006 131.7065017
  51.9559987 107.7465006 120.8225017  52.9129987 107.7465006 120.8225017
  51.7159987 108.6735006 120.8225017  40.5409987  98.6225006 133.6425017
  41.4979987  98.6225006 133.6425017  40.3009987  99.5495006 133.6425017
  52.7839987 106.3955006 123.0205017  53.7409987 106.3955006 123.0205017
  52.5439987 107.3225006 123.0205017  41.4349987 105.6835006 122.2205017
  42.3919987 105.6835006 122.2205017  41.1949987 106.6105006 122.2205017
  49.2779987  98.3585006 132.5225017  50.2349987  98.3585006 132.5225017
  49.0379987  99.2855006 132.5225017  50.0279987  97.9465006 123.6175017
  50.9849987  97.9465006 123.6175017  49.7879987  98.8735006 123.6175017
  47.2439987  99.7015006 124.4435017  48.2009987  99.7015006 124.4435017
  47.0039987 100.6285006 124.4435017  47.8049987 100.6995006 133.5685017
  48.7619987 100.6995006 133.5685017  47.5649987 101.6265006 133.5685017
  48.1049987  96.7585006 125.3495017  49.0619987  96.7585006 125.3495017
  47.8649987  97.6855006 125.3495017  43.7579987  97.8505006 122.0475017
  44.7149987  97.8505006 122.0475017  43.5179987  98.7775006 122.0475017
  53.9889987  98.5585006 134.4055017  54.9459987  98.5585006 134.4055017
  53.7489987  99.4855006 134.4055017  52.5879987 102.3725006 128.5105017
  53.5449987 102.3725006 128.5105017  52.3479987 103.2995006 128.5105017
  40.3349987 100.9595006 120.2275017  41.2919987 100.9595006 120.2275017
  40.0949987 101.8865006 120.2275017  41.1529987  95.7525006 128.9535017
  42.1099987  95.7525006 128.9535017  40.9129987  96.6795006 128.9535017
  43.5489987 106.4155006 119.4235017  44.5059987 106.4155006 119.4235017
  43.3089987 107.3425006 119.4235017  48.8409987 107.4915006 119.2055017
  49.7979987 107.4915006 119.2055017  48.6009987 108.4185006 119.2055017
  51.5989987 106.0175006 134.1825017  52.5559987 106.0175006 134.1825017
  51.3589987 106.9445006 134.1825017  44.7689987 104.4575006 121.8155017
  45.7259987 104.4575006 121.8155017  44.5289987 105.3845006 121.8155017
  44.0769987 102.2905006 134.1565017  45.0339987 102.2905006 134.1565017
  43.8369987 103.2175006 134.1565017  45.8449987 102.6675006 120.0475017
  46.8019987 102.6675006 120.0475017  45.6049987 103.5945006 120.0475017
  55.2159987 104.9925006 119.4765017  56.1729987 104.9925006 119.4765017
  54.9759987 105.9195006 119.4765017  44.2459987  99.7375006 135.0735017
  45.2029987  99.7375006 135.0735017  44.0059987 100.6645006 135.0735017
  44.8369987  98.0175006 132.7665017  45.7939987  98.0175006 132.7665017
  44.5969987  98.9445006 132.7665017  46.4099987 103.4955006 132.9705017
  47.3669987 103.4955006 132.9705017  46.1699987 104.4225006 132.9705017
  52.0049987 103.8845006 135.4835017  52.9619987 103.8845006 135.4835017
  51.7649987 104.8115006 135.4835017  45.6339987  95.4835006 133.1775017
  46.5909987  95.4835006 133.1775017  45.3939987  96.4105006 133.1775017
  49.6249987  98.8835006 135.7865017  50.5819987  98.8835006 135.7865017
  49.3849987  99.8105006 135.7865017  45.8569987  94.8325006 135.8535017
  46.8139987  94.8325006 135.8535017  45.6169987  95.7595006 135.8535017
  39.3309987 107.7885006 120.4275017  40.2879987 107.7885006 120.4275017
  39.0909987 108.7155006 120.4275017  55.6959987 105.8665006 123.4415017
  56.6529987 105.8665006 123.4415017  55.4559987 106.7935006 123.4415017
  56.0819987 103.9635006 125.3025017  57.0389987 103.9635006 125.3025017
  55.8419987 104.8905006 125.3025017  55.8169987 106.7155006 130.2555017
  56.7739987 106.7155006 130.2555017  55.5769987 107.6425006 130.2555017
  56.3749987 103.7905006 121.6925017  57.3319987 103.7905006 121.6925017
  56.1349987 104.7175006 121.6925017  54.7419987 101.0555006 120.2095017
  55.6989987 101.0555006 120.2095017  54.5019987 101.9825006 120.2095017
  53.8979987 102.4595006 125.8655017  54.8549987 102.4595006 125.8655017
  53.6579987 103.3865006 125.8655017  38.8909987 104.5375006 129.8985017
  39.8479987 104.5375006 129.8985017  38.6509987 105.4645006 129.8985017
  54.7449987 104.2855006 135.0685017  55.7019987 104.2855006 135.0685017
  54.5049987 105.2125006 135.0685017  56.2819987 102.3655006 136.1055017
  57.2389987 102.3655006 136.1055017  56.0419987 103.2925006 136.1055017
  53.9809987  98.5135006 119.3455017  54.9379987  98.5135006 119.3455017
  53.7409987  99.4405006 119.3455017  53.5479987 100.0515006 124.2945017
  54.5049987 100.0515006 124.2945017  53.3079987 100.9785006 124.2945017
  54.1909987 100.5965006 129.7605017  55.1479987 100.5965006 129.7605017
  53.9509987 101.5235006 129.7605017  54.2509987 101.3235006 132.5485017
  55.2079987 101.3235006 132.5485017  54.0109987 102.2505006 132.5485017
  38.5029987  99.8255006 136.0415017  39.4599987  99.8255006 136.0415017
  38.2629987 100.7525006 136.0415017  54.2229987  97.3335006 124.3705017
  55.1799987  97.3335006 124.3705017  53.9829987  98.2605006 124.3705017
  39.7119987  98.1395006 128.9215017  40.6689987  98.1395006 128.9215017
  39.4719987  99.0665006 128.9215017  37.9909987 101.1315006 129.9615017
  38.9479987 101.1315006 129.9615017  37.7509987 102.0585006 129.9615017
  56.1199987  97.4845006 136.0775017  57.0769987  97.4845006 136.0775017
  55.8799987  98.4115006 136.0775017  56.0509987  97.3725006 120.9235017
  57.0079987  97.3725006 120.9235017  55.8109987  98.2995006 120.9235017
  38.3629987  97.4055006 124.0445017  39.3199987  97.4055006 124.0445017
  38.1229987  98.3325006 124.0445017  38.3309987  96.0935006 132.3575017
  39.2879987  96.0935006 132.3575017  38.0909987  97.0205006 132.3575017
  55.0719987  95.5805006 134.0765017  56.0289987  95.5805006 134.0765017
  54.8319987  96.5075006 134.0765017  48.4659987  96.9965006 128.3865017
  49.4229987  96.9965006 128.3865017  48.2259987  97.9235006 128.3865017
  53.6019987  95.0545006 128.4735017  54.5589987  95.0545006 128.4735017
  53.3619987  95.9815006 128.4735017  55.2799987  96.2775006 126.7545017
  56.2369987  96.2775006 126.7545017  55.0399987  97.2045006 126.7545017
  40.8259987  95.6295006 126.2235017  41.7829987  95.6295006 126.2235017
  40.5859987  96.5565006 126.2235017  39.6129987  95.3895006 121.9715017
  40.5699987  95.3895006 121.9715017  39.3729987  96.3165006 121.9715017
  45.3269987  95.5485006 126.0135017  46.2839987  95.5485006 126.0135017
  45.0869987  96.4755006 126.0135017  50.9939987  95.5735006 127.6535017
  51.9509987  95.5735006 127.6535017  50.7539987  96.5005006 127.6535017
  52.2919987  95.6045006 123.3345017  53.2489987  95.6045006 123.3345017
  52.0519987  96.5315006 123.3345017  41.4469987  97.3275006 120.4565017
  42.4039987  97.3275006 120.4565017  41.2069987  98.2545006 120.4565017
  46.4749987  97.5805006 122.8705017  47.4319987  97.5805006 122.8705017
  46.2349987  98.5075006 122.8705017  40.7069987  96.1335006 135.6885017
  41.6639987  96.1335006 135.6885017  40.4669987  97.0605006 135.6885017
  68.7359987 104.7815006 126.1345017  69.6929987 104.7815006 126.1345017
  68.4959987 105.7085006 126.1345017  67.6309987 104.0305006 129.6015017
  68.5879987 104.0305006 129.6015017  67.3909987 104.9575006 129.6015017
  59.9929987 103.6735006 131.1495017  60.9499987 103.6735006 131.1495017
  59.7529987 104.6005006 131.1495017  71.1989987 106.7935006 127.7955017
  72.1559987 106.7935006 127.7955017  70.9589987 107.7205006 127.7955017
  61.0369987 107.5915006 130.0675017  61.9939987 107.5915006 130.0675017
  60.7969987 108.5185006 130.0675017  57.5609987 101.7025006 125.1275017
  58.5179987 101.7025006 125.1275017  57.3209987 102.6295006 125.1275017
  58.2629987 103.9405006 127.2675017  59.2199987 103.9405006 127.2675017
  58.0229987 104.8675006 127.2675017  65.9999987 106.4085006 130.0695017
  66.9569987 106.4085006 130.0695017  65.7599987 107.3355006 130.0695017
  74.6349987  98.0705006 130.8075017  75.5919987  98.0705006 130.8075017
  74.3949987  98.9975006 130.8075017  69.1799987 100.8895006 130.3605017
  70.1369987 100.8895006 130.3605017  68.9399987 101.8165006 130.3605017
  62.3049987  98.9745006 127.5935017  63.2619987  98.9745006 127.5935017
  62.0649987  99.9015006 127.5935017  70.0389987  99.0645006 125.9635017
  70.9959987  99.0645006 125.9635017  69.7989987  99.9915006 125.9635017
  58.9259987 101.3815006 128.3345017  59.8829987 101.3815006 128.3345017
  58.6859987 102.3085006 128.3345017  64.0879987 102.9515006 127.6185017
  65.0449987 102.9515006 127.6185017  63.8479987 103.8785006 127.6185017
  75.0699987  99.5085006 133.0575017  76.0269987  99.5085006 133.0575017
  74.8299987 100.4355006 133.0575017  61.1869987  97.8675006 131.6495017
  62.1439987  97.8675006 131.6495017  60.9469987  98.7945006 131.6495017
  68.5349987 107.3825006 125.1875017  69.4919987 107.3825006 125.1875017
  68.2949987 108.3095006 125.1875017  63.7119987 105.5305006 131.8895017
  64.6689987 105.5305006 131.8895017  63.4719987 106.4575006 131.8895017
  71.8299987  98.4005006 127.9555017  72.7869987  98.4005006 127.9555017
  71.5899987  99.3275006 127.9555017  60.7459987  99.7455006 129.6355017
  61.7029987  99.7455006 129.6355017  60.5059987 100.6725006 129.6355017
  62.1399987 107.5475006 132.6145017  63.0969987 107.5475006 132.6145017
  61.8999987 108.4745006 132.6145017  58.2119987 107.0685006 123.5665017
  59.1689987 107.0685006 123.5665017  57.9719987 107.9955006 123.5665017
  72.1669987  97.0845006 131.6205017  73.1239987  97.0845006 131.6205017
  71.9269987  98.0115006 131.6205017  65.1589987  95.2035006 129.0975017
  66.1159987  95.2035006 129.0975017  64.9189987  96.1305006 129.0975017
  72.8759987 106.9575006 133.8295017  73.8329987 106.9575006 133.8295017
  72.6359987 107.8845006 133.8295017  67.4429987 103.9985006 123.6175017
  68.3999987 103.9985006 123.6175017  67.2029987 104.9255006 123.6175017
  67.5039987 102.5405006 120.6265017  68.4609987 102.5405006 120.6265017
  67.2639987 103.4675006 120.6265017  74.8229987 103.4075006 131.8875017
  75.7799987 103.4075006 131.8875017  74.5829987 104.3345006 131.8875017
  70.8509987 104.1875006 124.5295017  71.8079987 104.1875006 124.5295017
  70.6109987 105.1145006 124.5295017  70.7949987 102.3235006 133.5245017
  71.7519987 102.3235006 133.5245017  70.5549987 103.2505006 133.5245017
  62.4869987 104.8655006 126.4415017  63.4439987 104.8655006 126.4415017
  62.2469987 105.7925006 126.4415017  62.8259987 103.6445006 130.0985017
  63.7829987 103.6445006 130.0985017  62.5859987 104.5715006 130.0985017
  63.2059987   0.0285006 134.8695017  64.1629987   0.0285006 134.8695017
  62.9659987   0.9555006 134.8695017  69.7479987 103.3995006 122.2005017
  70.7049987 103.3995006 122.2005017  69.5079987 104.3265006 122.2005017
  60.7039987 104.2165006 133.9995017  61.6609987 104.2165006 133.9995017
  60.4639987 105.1435006 133.9995017  73.4699987  95.1365006 122.0775017
  74.4269987  95.1365006 122.0775017  73.2299987  96.0635006 122.0775017
  61.4779987 103.9125006 124.0635017  62.4349987 103.9125006 124.0635017
  61.2379987 104.8395006 124.0635017  57.5419987 106.3165006 132.8905017
  58.4989987 106.3165006 132.8905017  57.3019987 107.2435006 132.8905017
  72.6999987 101.2615006 135.6835017  73.6569987 101.2615006 135.6835017
  72.4599987 102.1885006 135.6835017  59.8399987 107.5705006 133.8865017
  60.7969987 107.5705006 133.8865017  59.5999987 108.4975006 133.8865017
  62.5069987  96.1025006 129.8565017  63.4639987  96.1025006 129.8565017
  62.2669987  97.0295006 129.8565017  67.1459987  95.8035006 133.2455017
  68.1029987  95.8035006 133.2455017  66.9059987  96.7305006 133.2455017
  70.4329987  99.6005006 134.0955017  71.3899987  99.6005006 134.0955017
  70.1929987 100.5275006 134.0955017  71.2079987 104.4115006 119.9495017
  72.1649987 104.4115006 119.9495017  70.9679987 105.3385006 119.9495017
  66.8029987  98.3495006 120.5205017  67.7599987  98.3495006 120.5205017
  66.5629987  99.2765006 120.5205017  62.5939987 101.0685006 131.0425017
  63.5509987 101.0685006 131.0425017  62.3539987 101.9955006 131.0425017
  62.5709987 101.2295006 125.9465017  63.5279987 101.2295006 125.9465017
  62.3309987 102.1565006 125.9465017  68.0829987 101.6985006 124.7335017
  69.0399987 101.6985006 124.7335017  67.8429987 102.6255006 124.7335017
  67.1519987 101.6845006 135.9735017  68.1089987 101.6845006 135.9735017
  66.9119987 102.6115006 135.9735017  69.1209987 101.1775006 127.5685017
  70.0779987 101.1775006 127.5685017  68.8809987 102.1045006 127.5685017
  60.2799987 101.3465006 132.8275017  61.2369987 101.3465006 132.8275017
  60.0399987 102.2735006 132.8275017  63.6349987  98.7385006 119.6365017
  64.5919987  98.7385006 119.6365017  63.3949987  99.6655006 119.6365017
  56.8959987  98.4655006 126.7445017  57.8529987  98.4655006 126.7445017
  56.6559987  99.3925006 126.7445017  58.1709987  99.1775006 122.1185017
  59.1279987  99.1775006 122.1185017  57.9309987 100.1045006 122.1185017
  68.3389987 102.7845006 132.1875017  69.2959987 102.7845006 132.1875017
  68.0989987 103.7115006 132.1875017  65.1259987  98.7385006 126.9795017
  66.0829987  98.7385006 126.9795017  64.8859987  99.6655006 126.9795017
  59.9499987 100.3145006 125.8315017  60.9069987 100.3145006 125.8315017
  59.7099987 101.2415006 125.8315017  63.5959987 100.3395006 123.4585017
  64.5529987 100.3395006 123.4585017  63.3559987 101.2665006 123.4585017
  69.5389987  97.9775006 130.2195017  70.4959987  97.9775006 130.2195017
  69.2989987  98.9045006 130.2195017  62.2879987 101.5295006 121.0525017
  63.2449987 101.5295006 121.0525017  62.0479987 102.4565006 121.0525017
  60.2719987 106.1435006 136.0815017  61.2289987 106.1435006 136.0815017
  60.0319987 107.0705006 136.0815017  66.4219987 101.5055006 128.8645017
  67.3789987 101.5055006 128.8645017  66.1819987 102.4325006 128.8645017
  61.4329987  97.6525006 125.2985017  62.3899987  97.6525006 125.2985017
  61.1929987  98.5795006 125.2985017  65.0589987  99.8375006 131.2775017
  66.0159987  99.8375006 131.2775017  64.8189987 100.7645006 131.2775017
  65.6669987 106.0905006 122.9685017  66.6239987 106.0905006 122.9685017
  65.4269987 107.0175006 122.9685017  72.8009987 105.2725006 131.7545017
  73.7579987 105.2725006 131.7545017  72.5609987 106.1995006 131.7545017
  69.4879987  98.8835006 121.1515017  70.4449987  98.8835006 121.1515017
  69.2479987  99.8105006 121.1515017  67.0969987 106.2955006 134.1585017
  68.0539987 106.2955006 134.1585017  66.8569987 107.2225006 134.1585017
  70.2159987 100.7855006 122.7945017  71.1729987 100.7855006 122.7945017
  69.9759987 101.7125006 122.7945017  60.7229987 105.4115006 128.7085017
  61.6799987 105.4115006 128.7085017  60.4829987 106.3385006 128.7085017
  67.7609987 107.5275006 122.0345017  68.7179987 107.5275006 122.0345017
  67.5209987 108.4545006 122.0345017  57.7619987 103.8425006 134.0315017
  58.7189987 103.8425006 134.0315017  57.5219987 104.7695006 134.0315017
  64.9219987 103.7765006 135.7695017  65.8789987 103.7765006 135.7695017
  64.6819987 104.7035006 135.7695017  75.1149987 100.9385006 122.5495017
  76.0719987 100.9385006 122.5495017  74.8749987 101.8655006 122.5495017
  75.0849987 106.7545006 135.3585017  76.0419987 106.7545006 135.3585017
  74.8449987 107.6815006 135.3585017  70.5969987 104.5885006 130.0235017
  71.5539987 104.5885006 130.0235017  70.3569987 105.5155006 130.0235017
  58.8879987 103.7325006 120.7325017  59.8449987 103.7325006 120.7325017
  58.6479987 104.6595006 120.7325017  64.5799987 106.5075006 125.6805017
  65.5369987 106.5075006 125.6805017  64.3399987 107.4345006 125.6805017
  68.5579987 106.8045006 131.7065017  69.5149987 106.8045006 131.7065017
  68.3179987 107.7315006 131.7065017  70.8109987 107.7495006 120.8245017
  71.7679987 107.7495006 120.8245017  70.5709987 108.6765006 120.8245017
  59.3969987  98.6225006 133.6425017  60.3539987  98.6225006 133.6425017
  59.1569987  99.5495006 133.6425017  71.6399987 106.3975006 123.0225017
  72.5969987 106.3975006 123.0225017  71.3999987 107.3245006 123.0225017
  60.2929987 105.6835006 122.2205017  61.2499987 105.6835006 122.2205017
  60.0529987 106.6105006 122.2205017  68.1339987  98.3595006 132.5225017
  69.0909987  98.3595006 132.5225017  67.8939987  99.2865006 132.5225017
  68.8859987  97.9435006 123.6145017  69.8429987  97.9435006 123.6145017
  68.6459987  98.8705006 123.6145017  66.0999987  99.7015006 124.4435017
  67.0569987  99.7015006 124.4435017  65.8599987 100.6285006 124.4435017
  66.6609987 100.6995006 133.5695017  67.6179987 100.6995006 133.5695017
  66.4209987 101.6265006 133.5695017  66.9599987  96.7595006 125.3495017
  67.9169987  96.7595006 125.3495017  66.7199987  97.6865006 125.3495017
  62.6139987  97.8505006 122.0475017  63.5709987  97.8505006 122.0475017
  62.3739987  98.7775006 122.0475017  72.8439987  98.5575006 134.4055017
  73.8009987  98.5575006 134.4055017  72.6039987  99.4845006 134.4055017
  71.4439987 102.3725006 128.5105017  72.4009987 102.3725006 128.5105017
  71.2039987 103.2995006 128.5105017  59.1959987 100.9615006 120.2355017
  60.1529987 100.9615006 120.2355017  58.9559987 101.8885006 120.2355017
  60.0089987  95.7515006 128.9535017  60.9659987  95.7515006 128.9535017
  59.7689987  96.6785006 128.9535017  62.4169987 106.4225006 119.4285017
  63.3739987 106.4225006 119.4285017  62.1769987 107.3495006 119.4285017
  67.7269987 107.4905006 119.2175017  68.6839987 107.4905006 119.2175017
  67.4869987 108.4175006 119.2175017  70.4549987 106.0175006 134.1835017
  71.4119987 106.0175006 134.1835017  70.2149987 106.9445006 134.1835017
  63.6289987 104.4575006 121.8105017  64.5859987 104.4575006 121.8105017
  63.3889987 105.3845006 121.8105017  62.9329987 102.2905006 134.1575017
  63.8899987 102.2905006 134.1575017  62.6929987 103.2175006 134.1575017
  64.7029987 102.6445006 120.0455017  65.6599987 102.6445006 120.0455017
  64.4629987 103.5715006 120.0455017  74.0489987 105.0035006 119.4845017
  75.0059987 105.0035006 119.4845017  73.8089987 105.9305006 119.4845017
  63.1019987  99.7375006 135.0745017  64.0589987  99.7375006 135.0745017
  62.8619987 100.6645006 135.0745017  63.6929987  98.0185006 132.7665017
  64.6499987  98.0185006 132.7665017  63.4529987  98.9455006 132.7665017
  65.2659987 103.4955006 132.9715017  66.2229987 103.4955006 132.9715017
  65.0259987 104.4225006 132.9715017  70.8609987 103.8845006 135.4845017
  71.8179987 103.8845006 135.4845017  70.6209987 104.8115006 135.4845017
  64.4899987  95.4835006 133.1775017  65.4469987  95.4835006 133.1775017
  64.2499987  96.4105006 133.1775017  68.4819987  98.8835006 135.7875017
  69.4389987  98.8835006 135.7875017  68.2419987  99.8105006 135.7875017
  64.7129987  94.8325006 135.8535017  65.6699987  94.8325006 135.8535017
  64.4729987  95.7595006 135.8535017  58.1869987 107.7895006 120.4275017
  59.1439987 107.7895006 120.4275017  57.9469987 108.7165006 120.4275017
  74.5509987 105.8685006 123.4435017  75.5079987 105.8685006 123.4435017
  74.3109987 106.7955006 123.4435017  74.9389987 103.9625006 125.3015017
  75.8959987 103.9625006 125.3015017  74.6989987 104.8895006 125.3015017
  74.6739987 106.7145006 130.2565017  75.6309987 106.7145006 130.2565017
  74.4339987 107.6415006 130.2565017  75.2169987 103.7955006 121.7105017
  76.1739987 103.7955006 121.7105017  74.9769987 104.7225006 121.7105017
  73.5269987 101.0595006 120.2215017  74.4839987 101.0595006 120.2215017
  73.2869987 101.9865006 120.2215017  72.7539987 102.4595006 125.8655017
  73.7109987 102.4595006 125.8655017  72.5139987 103.3865006 125.8655017
  57.7469987 104.5375006 129.8965017  58.7039987 104.5375006 129.8965017
  57.5069987 105.4645006 129.8965017  73.5999987 104.2855006 135.0685017
  74.5569987 104.2855006 135.0685017  73.3599987 105.2125006 135.0685017
  75.1379987 102.3655006 136.1055017  76.0949987 102.3655006 136.1055017
  74.8979987 103.2925006 136.1055017  72.8359987  98.5095006 119.3475017
  73.7929987  98.5095006 119.3475017  72.5959987  99.4365006 119.3475017
  72.4049987 100.0515006 124.2965017  73.3619987 100.0515006 124.2965017
  72.1649987 100.9785006 124.2965017  73.0469987 100.5955006 129.7615017
  74.0039987 100.5955006 129.7615017  72.8069987 101.5225006 129.7615017
  73.1079987 101.3235006 132.5485017  74.0649987 101.3235006 132.5485017
  72.8679987 102.2505006 132.5485017  57.3589987  99.8265006 136.0425017
  58.3159987  99.8265006 136.0425017  57.1189987 100.7535006 136.0425017
  73.0729987  97.3355006 124.3715017  74.0299987  97.3355006 124.3715017
  72.8329987  98.2625006 124.3715017  58.5689987  98.1395006 128.9195017
  59.5259987  98.1395006 128.9195017  58.3289987  99.0665006 128.9195017
  56.8559987 101.1235006 129.9675017  57.8129987 101.1235006 129.9675017
  56.6159987 102.0505006 129.9675017  74.9759987  97.4845006 136.0775017
  75.9329987  97.4845006 136.0775017  74.7359987  98.4115006 136.0775017
  74.8989987  97.3575006 120.9335017  75.8559987  97.3575006 120.9335017
  74.6589987  98.2845006 120.9335017  57.2199987  97.4075006 124.0435017
  58.1769987  97.4075006 124.0435017  56.9799987  98.3345006 124.0435017
  57.1869987  96.0925006 132.3565017  58.1439987  96.0925006 132.3565017
  56.9469987  97.0195006 132.3565017  73.9249987  95.5805006 134.0785017
  74.8819987  95.5805006 134.0785017  73.6849987  96.5075006 134.0785017
  67.3219987  96.9985006 128.3855017  68.2789987  96.9985006 128.3855017
  67.0819987  97.9255006 128.3855017  72.4579987  95.0545006 128.4735017
  73.4149987  95.0545006 128.4735017  72.2179987  95.9815006 128.4735017
  74.1369987  96.2765006 126.7555017  75.0939987  96.2765006 126.7555017
  73.8969987  97.2035006 126.7555017  59.6819987  95.6295006 126.2235017
  60.6389987  95.6295006 126.2235017  59.4419987  96.5565006 126.2235017
  58.4699987  95.3855006 121.9705017  59.4269987  95.3855006 121.9705017
  58.2299987  96.3125006 121.9705017  64.1829987  95.5485006 126.0135017
  65.1399987  95.5485006 126.0135017  63.9429987  96.4755006 126.0135017
  69.8499987  95.5735006 127.6535017  70.8069987  95.5735006 127.6535017
  69.6099987  96.5005006 127.6535017  71.1479987  95.6055006 123.3345017
  72.1049987  95.6055006 123.3345017  70.9079987  96.5325006 123.3345017
  60.3029987  97.3265006 120.4565017  61.2599987  97.3265006 120.4565017
  60.0629987  98.2535006 120.4565017  65.3309987  97.5805006 122.8705017
  66.2879987  97.5805006 122.8705017  65.0909987  98.5075006 122.8705017
  59.5629987  96.1355006 135.6875017  60.5199987  96.1355006 135.6875017
  59.3229987  97.0625006 135.6875017  87.5919987 104.7805006 126.1345017
  88.5489987 104.7805006 126.1345017  87.3519987 105.7075006 126.1345017
  86.4859987 104.0305006 129.6015017  87.4429987 104.0305006 129.6015017
  86.2459987 104.9575006 129.6015017  78.8489987 103.6735006 131.1505017
  79.8059987 103.6735006 131.1505017  78.6089987 104.6005006 131.1505017
  90.0579987 106.7945006 127.7975017  91.0149987 106.7945006 127.7975017
  89.8179987 107.7215006 127.7975017  79.8989987 107.5975006 130.0665017
  80.8559987 107.5975006 130.0665017  79.6589987 108.5245006 130.0665017
  76.4139987 101.7045006 125.1285017  77.3709987 101.7045006 125.1285017
  76.1739987 102.6315006 125.1285017  77.1189987 103.9405006 127.2675017
  78.0759987 103.9405006 127.2675017  76.8789987 104.8675006 127.2675017
  84.8559987 106.4115006 130.0675017  85.8129987 106.4115006 130.0675017
  84.6159987 107.3385006 130.0675017  93.4909987  98.0705006 130.8075017
  94.4479987  98.0705006 130.8075017  93.2509987  98.9975006 130.8075017
  88.0359987 100.8875006 130.3615017  88.9929987 100.8875006 130.3615017
  87.7959987 101.8145006 130.3615017  81.1549987  98.9845006 127.5995017
  82.1119987  98.9845006 127.5995017  80.9149987  99.9115006 127.5995017
  88.8949987  99.0635006 125.9635017  89.8519987  99.0635006 125.9635017
  88.6549987  99.9905006 125.9635017  77.7809987 101.3815006 128.3355017
  78.7379987 101.3815006 128.3355017  77.5409987 102.3085006 128.3355017
  82.9439987 102.9555006 127.6205017  83.9009987 102.9555006 127.6205017
  82.7039987 103.8825006 127.6205017  93.9259987  99.5075006 133.0585017
  94.8829987  99.5075006 133.0585017  93.6859987 100.4345006 133.0585017
  80.0389987  97.9475006 131.7055017  80.9959987  97.9475006 131.7055017
  79.7989987  98.8745006 131.7055017  87.3889987 107.3835006 125.1875017
  88.3459987 107.3835006 125.1875017  87.1489987 108.3105006 125.1875017
  82.5679987 105.5305006 131.8895017  83.5249987 105.5305006 131.8895017
  82.3279987 106.4575006 131.8895017  90.6869987  98.4005006 127.9555017
  91.6439987  98.4005006 127.9555017  90.4469987  99.3275006 127.9555017
  79.5949987  99.7635006 129.6295017  80.5519987  99.7635006 129.6295017
  79.3549987 100.6905006 129.6295017  80.9959987 107.5485006 132.6145017
  81.9529987 107.5485006 132.6145017  80.7559987 108.4755006 132.6145017
  77.0679987 107.0685006 123.5665017  78.0249987 107.0685006 123.5665017
  76.8279987 107.9955006 123.5665017  91.0259987  97.0845006 131.6195017
  91.9829987  97.0845006 131.6195017  90.7859987  98.0115006 131.6195017
  84.4149987  95.3325006 129.3515017  85.3719987  95.3325006 129.3515017
  84.1749987  96.2595006 129.3515017  91.7329987 106.9555006 133.8275017
  92.6899987 106.9555006 133.8275017  91.4929987 107.8825006 133.8275017
  86.2999987 103.9975006 123.6175017  87.2569987 103.9975006 123.6175017
  86.0599987 104.9245006 123.6175017  86.3609987 102.5405006 120.6265017
  87.3179987 102.5405006 120.6265017  86.1209987 103.4675006 120.6265017
  93.6789987 103.4075006 131.8875017  94.6359987 103.4075006 131.8875017
  93.4389987 104.3345006 131.8875017  89.7079987 104.1865006 124.5275017
  90.6649987 104.1865006 124.5275017  89.4679987 105.1135006 124.5275017
  89.6509987 102.3235006 133.5245017  90.6079987 102.3235006 133.5245017
  89.4109987 103.2505006 133.5245017  81.3419987 104.8655006 126.4395017
  82.2989987 104.8655006 126.4395017  81.1019987 105.7925006 126.4395017
  81.6799987 103.6465006 130.0975017  82.6369987 103.6465006 130.0975017
  81.4399987 104.5735006 130.0975017  82.0619987   0.0275006 134.8695017
  83.0189987   0.0275006 134.8695017  81.8219987   0.9545006 134.8695017
  88.6039987 103.3985006 122.2005017  89.5609987 103.3985006 122.2005017
  88.3639987 104.3255006 122.2005017  79.5609987 104.2165006 133.9995017
  80.5179987 104.2165006 133.9995017  79.3209987 105.1435006 133.9995017
  92.3249987  95.1385006 122.0815017  93.2819987  95.1385006 122.0815017
  92.0849987  96.0655006 122.0815017  80.3339987 103.9105006 124.0655017
  81.2909987 103.9105006 124.0655017  80.0939987 104.8375006 124.0655017
  76.3979987 106.3165006 132.8905017  77.3549987 106.3165006 132.8905017
  76.1579987 107.2435006 132.8905017  91.5569987 101.2615006 135.6825017
  92.5139987 101.2615006 135.6825017  91.3169987 102.1885006 135.6825017
  78.6949987 107.5705006 133.8855017  79.6519987 107.5705006 133.8855017
  78.4549987 108.4975006 133.8855017  81.1539987  96.2095006 130.2115017
  82.1109987  96.2095006 130.2115017  80.9139987  97.1365006 130.2115017
  86.0019987  95.8065006 133.2485017  86.9589987  95.8065006 133.2485017
  85.7619987  96.7335006 133.2485017  89.2889987  99.5995006 134.0955017
  90.2459987  99.5995006 134.0955017  89.0489987 100.5265006 134.0955017
  90.0569987 104.4125006 119.9515017  91.0139987 104.4125006 119.9515017
  89.8169987 105.3395006 119.9515017  85.6589987  98.3495006 120.5205017
  86.6159987  98.3495006 120.5205017  85.4189987  99.2765006 120.5205017
  81.4509987 101.0675006 131.0405017  82.4079987 101.0675006 131.0405017
  81.2109987 101.9945006 131.0405017  81.4239987 101.2285006 125.9415017
  82.3809987 101.2285006 125.9415017  81.1839987 102.1555006 125.9415017
  86.9489987 101.7015006 124.7355017  87.9059987 101.7015006 124.7355017
  86.7089987 102.6285006 124.7355017  86.0089987 101.6825006 135.9695017
  86.9659987 101.6825006 135.9695017  85.7689987 102.6095006 135.9695017
  87.9779987 101.1795006 127.5685017  88.9349987 101.1795006 127.5685017
  87.7379987 102.1065006 127.5685017  79.1359987 101.3455006 132.8265017
  80.0929987 101.3455006 132.8265017  78.8959987 102.2725006 132.8265017
  82.4919987  98.7335006 119.6345017  83.4489987  98.7335006 119.6345017
  82.2519987  99.6605006 119.6345017  75.7519987  98.4655006 126.7445017
  76.7089987  98.4655006 126.7445017  75.5119987  99.3925006 126.7445017
  77.0229987  99.1595006 122.1445017  77.9799987  99.1595006 122.1445017
  76.7829987 100.0865006 122.1445017  87.1949987 102.7845006 132.1875017
  88.1519987 102.7845006 132.1875017  86.9549987 103.7115006 132.1875017
  83.9869987  98.7735006 126.9825017  84.9439987  98.7735006 126.9825017
  83.7469987  99.7005006 126.9825017  78.8049987 100.3155006 125.8295017
  79.7619987 100.3155006 125.8295017  78.5649987 101.2425006 125.8295017
  82.4529987 100.3405006 123.4595017  83.4099987 100.3405006 123.4595017
  82.2129987 101.2675006 123.4595017  88.3959987  97.9775006 130.2195017
  89.3529987  97.9775006 130.2195017  88.1559987  98.9045006 130.2195017
  81.1649987 101.5195006 121.0605017  82.1219987 101.5195006 121.0605017
  80.9249987 102.4465006 121.0605017  79.1289987 106.1435006 136.0815017
  80.0859987 106.1435006 136.0815017  78.8889987 107.0705006 136.0815017
  85.2799987 101.5045006 128.8645017  86.2369987 101.5045006 128.8645017
  85.0399987 102.4315006 128.8645017  80.2839987  97.6595006 125.2885017
  81.2409987  97.6595006 125.2885017  80.0439987  98.5865006 125.2885017
  83.9159987  99.8225006 131.2745017  84.8729987  99.8225006 131.2745017
  83.6759987 100.7495006 131.2745017  84.5229987 106.0915006 122.9685017
  85.4799987 106.0915006 122.9685017  84.2829987 107.0185006 122.9685017
  91.6569987 105.2735006 131.7545017  92.6139987 105.2735006 131.7545017
  91.4169987 106.2005006 131.7545017  88.3429987  98.8835006 121.1505017
  89.2999987  98.8835006 121.1505017  88.1029987  99.8105006 121.1505017
  85.9529987 106.2965006 134.1575017  86.9099987 106.2965006 134.1575017
  85.7129987 107.2235006 134.1575017  89.0719987 100.7845006 122.7935017
  90.0289987 100.7845006 122.7935017  88.8319987 101.7115006 122.7935017
  79.5789987 105.4125006 128.7095017  80.5359987 105.4125006 128.7095017
  79.3389987 106.3395006 128.7095017  86.6169987 107.5275006 122.0355017
  87.5739987 107.5275006 122.0355017  86.3769987 108.4545006 122.0355017
  76.6169987 103.8485006 134.0305017  77.5739987 103.8485006 134.0305017
  76.3769987 104.7755006 134.0305017  83.7779987 103.7755006 135.7685017
  84.7349987 103.7755006 135.7685017  83.5379987 104.7025006 135.7685017
  93.9769987 100.9385006 122.5475017  94.9339987 100.9385006 122.5475017
  93.7369987 101.8655006 122.5475017  93.9399987 106.7565006 135.3575017
  94.8969987 106.7565006 135.3575017  93.6999987 107.6835006 135.3575017
  89.4529987 104.5885006 130.0235017  90.4099987 104.5885006 130.0235017
  89.2129987 105.5155006 130.0235017  77.7539987 103.7435006 120.7615017
  78.7109987 103.7435006 120.7615017  77.5139987 104.6705006 120.7615017
  83.4369987 106.5185006 125.6855017  84.3939987 106.5185006 125.6855017
  83.1969987 107.4455006 125.6855017  87.4149987 106.8055006 131.7065017
  88.3719987 106.8055006 131.7065017  87.1749987 107.7325006 131.7065017
  89.6679987 107.7465006 120.8225017  90.6249987 107.7465006 120.8225017
  89.4279987 108.6735006 120.8225017  78.2509987  98.6265006 133.6475017
  79.2079987  98.6265006 133.6475017  78.0109987  99.5535006 133.6475017
  90.4989987 106.3945006 123.0215017  91.4559987 106.3945006 123.0215017
  90.2589987 107.3215006 123.0215017  79.1499987 105.6845006 122.2225017
  80.1069987 105.6845006 122.2225017  78.9099987 106.6115006 122.2225017
  86.9839987  98.3545006 132.5185017  87.9409987  98.3545006 132.5185017
  86.7439987  99.2815006 132.5185017  87.7419987  97.9475006 123.6185017
  88.6989987  97.9475006 123.6185017  87.5019987  98.8745006 123.6185017
  84.9569987  99.7015006 124.4435017  85.9139987  99.7015006 124.4435017
  84.7169987 100.6285006 124.4435017  85.5179987 100.6995006 133.5685017
  86.4749987 100.6995006 133.5685017  85.2779987 101.6265006 133.5685017
  85.8289987  96.7665006 125.3345017  86.7859987  96.7665006 125.3345017
  85.5889987  97.6935006 125.3345017  81.4709987  97.8505006 122.0465017
  82.4279987  97.8505006 122.0465017  81.2309987  98.7775006 122.0465017
  91.6989987  98.5545006 134.4055017  92.6559987  98.5545006 134.4055017
  91.4589987  99.4815006 134.4055017  90.2999987 102.3725006 128.5105017
  91.2569987 102.3725006 128.5105017  90.0599987 103.2995006 128.5105017
  78.2239987 100.8755006 120.6255017  79.1809987 100.8755006 120.6255017
  77.9839987 101.8025006 120.6255017  78.7899987  95.7855006 128.9605017
  79.7469987  95.7855006 128.9605017  78.5499987  96.7125006 128.9605017
  81.2749987 106.4245006 119.4305017  82.2319987 106.4245006 119.4305017
  81.0349987 107.3515006 119.4305017  86.5849987 107.4935006 119.2215017
  87.5419987 107.4935006 119.2215017  86.3449987 108.4205006 119.2215017
  89.3109987 106.0175006 134.1825017  90.2679987 106.0175006 134.1825017
  89.0709987 106.9445006 134.1825017  82.4929987 104.4635006 121.8155017
  83.4499987 104.4635006 121.8155017  82.2529987 105.3905006 121.8155017
  81.7899987 102.2915006 134.1575017  82.7469987 102.2915006 134.1575017
  81.5499987 103.2185006 134.1575017  83.5709987 102.6425006 120.0495017
  84.5279987 102.6425006 120.0495017  83.3309987 103.5695006 120.0495017
  92.9279987 104.9925006 119.4765017  93.8849987 104.9925006 119.4765017
  92.6879987 105.9195006 119.4765017  81.9579987  99.7375006 135.0745017
  82.9149987  99.7375006 135.0745017  81.7179987 100.6645006 135.0745017
  82.5469987  98.0365006 132.7785017  83.5039987  98.0365006 132.7785017
  82.3069987  98.9635006 132.7785017  84.1219987 103.4955006 132.9705017
  85.0789987 103.4955006 132.9705017  83.8819987 104.4225006 132.9705017
  89.7169987 103.8845006 135.4845017  90.6739987 103.8845006 135.4845017
  89.4769987 104.8115006 135.4845017  83.3419987  95.4845006 133.1965017
  84.2989987  95.4845006 133.1965017  83.1019987  96.4115006 133.1965017
  87.3369987  98.8805006 135.7885017  88.2939987  98.8805006 135.7885017
  87.0969987  99.8075006 135.7885017  83.5729987  94.8305006 135.8545017
  84.5299987  94.8305006 135.8545017  83.3329987  95.7575006 135.8545017
  77.0419987 107.7855006 120.4265017  77.9989987 107.7855006 120.4265017
  76.8019987 108.7125006 120.4265017  93.4079987 105.8665006 123.4415017
  94.3649987 105.8665006 123.4415017  93.1679987 106.7935006 123.4415017
  93.7939987 103.9655006 125.3025017  94.7509987 103.9655006 125.3025017
  93.5539987 104.8925006 125.3025017  93.5289987 106.7145006 130.2555017
  94.4859987 106.7145006 130.2555017  93.2889987 107.6415006 130.2555017
  94.0869987 103.7905006 121.6925017  95.0439987 103.7905006 121.6925017
  93.8469987 104.7175006 121.6925017  92.4539987 101.0555006 120.2095017
  93.4109987 101.0555006 120.2095017  92.2139987 101.9825006 120.2095017
  91.6099987 102.4595006 125.8655017  92.5669987 102.4595006 125.8655017
  91.3699987 103.3865006 125.8655017  76.6029987 104.5375006 129.8965017
  77.5599987 104.5375006 129.8965017  76.3629987 105.4645006 129.8965017
  92.4559987 104.2855006 135.0685017  93.4129987 104.2855006 135.0685017
  92.2159987 105.2125006 135.0685017  93.9939987 102.3655006 136.1055017
  94.9509987 102.3655006 136.1055017  93.7539987 103.2925006 136.1055017
  91.6929987  98.5125006 119.3455017  92.6499987  98.5125006 119.3455017
  91.4529987  99.4395006 119.3455017  91.2609987 100.0505006 124.2955017
  92.2179987 100.0505006 124.2955017  91.0209987 100.9775006 124.2955017
  91.9029987 100.5955006 129.7615017  92.8599987 100.5955006 129.7615017
  91.6629987 101.5225006 129.7615017  91.9629987 101.3235006 132.5485017
  92.9199987 101.3235006 132.5485017  91.7229987 102.2505006 132.5485017
  76.2149987  99.8265006 136.0425017  77.1719987  99.8265006 136.0425017
  75.9749987 100.7535006 136.0425017  91.9349987  97.3335006 124.3705017
  92.8919987  97.3335006 124.3705017  91.6949987  98.2605006 124.3705017
  77.4169987  98.1465006 128.9255017  78.3739987  98.1465006 128.9255017
  77.1769987  99.0735006 128.9255017  75.7109987 101.1235006 129.9675017
  76.6679987 101.1235006 129.9675017  75.4709987 102.0505006 129.9675017
  93.8319987  97.4845006 136.0775017  94.7889987  97.4845006 136.0775017
  93.5919987  98.4115006 136.0775017  93.7619987  97.3725006 120.9235017
  94.7189987  97.3725006 120.9235017  93.5219987  98.2995006 120.9235017
  76.0759987  97.4075006 124.0415017  77.0329987  97.4075006 124.0415017
  75.8359987  98.3345006 124.0415017  76.0429987  96.0925006 132.3575017
  76.9999987  96.0925006 132.3575017  75.8029987  97.0195006 132.3575017
  92.7839987  95.5825006 134.0755017  93.7409987  95.5825006 134.0755017
  92.5439987  96.5095006 134.0755017  86.2059987  97.0205006 128.3685017
  87.1629987  97.0205006 128.3685017  85.9659987  97.9475006 128.3685017
  91.3139987  95.0535006 128.4745017  92.2709987  95.0535006 128.4745017
  91.0739987  95.9805006 128.4745017  92.9919987  96.2775006 126.7545017
  93.9489987  96.2775006 126.7545017  92.7519987  97.2045006 126.7545017
  78.5299987  95.6375006 126.2085017  79.4869987  95.6375006 126.2085017
  78.2899987  96.5645006 126.2085017  77.3239987  95.3875006 121.9695017
  78.2809987  95.3875006 121.9695017  77.0839987  96.3145006 121.9695017
  83.1229987  95.6445006 125.8485017  84.0799987  95.6445006 125.8485017
  82.8829987  96.5715006 125.8485017  88.7089987  95.5735006 127.6505017
  89.6659987  95.5735006 127.6505017  88.4689987  96.5005006 127.6505017
  90.0049987  95.6045006 123.3345017  90.9619987  95.6045006 123.3345017
  89.7649987  96.5315006 123.3345017  79.1569987  97.2965006 120.4755017
  80.1139987  97.2965006 120.4755017  78.9169987  98.2235006 120.4755017
  84.1879987  97.5775006 122.8745017  85.1449987  97.5775006 122.8745017
  83.9479987  98.5045006 122.8745017  78.4189987  96.1355006 135.6875017
  79.3759987  96.1355006 135.6875017  78.1789987  97.0625006 135.6875017
 106.4469987 104.7735006 126.1075017 107.4039987 104.7735006 126.1075017
 106.2069987 105.7005006 126.1075017 105.2779987 104.0475006 129.6085017
 106.2349987 104.0475006 129.6085017 105.0379987 104.9745006 129.6085017
  97.7049987 103.6735006 131.1495017  98.6619987 103.6735006 131.1495017
  97.4649987 104.6005006 131.1495017  98.7559987 107.5965006 130.0665017
  99.7129987 107.5965006 130.0665017  98.5159987 108.5235006 130.0665017
  95.2729987 101.7025006 125.1275017  96.2299987 101.7025006 125.1275017
  95.0329987 102.6295006 125.1275017  95.9749987 103.9405006 127.2675017
  96.9319987 103.9405006 127.2675017  95.7349987 104.8675006 127.2675017
 103.7199987 106.4315006 130.0585017 104.6769987 106.4315006 130.0585017
 103.4799987 107.3585006 130.0585017 106.2179987 100.6345006 130.2935017
 107.1749987 100.6345006 130.2935017 105.9779987 101.5615006 130.2935017
 100.0169987  98.9745006 127.5945017 100.9739987  98.9745006 127.5945017
  99.7769987  99.9015006 127.5945017 107.7189987  99.5555006 125.5635017
 108.6759987  99.5555006 125.5635017 107.4789987 100.4825006 125.5635017
  96.6379987 101.3825006 128.3335017  97.5949987 101.3825006 128.3335017
  96.3979987 102.3095006 128.3335017 101.7919987 102.9595006 127.6155017
 102.7489987 102.9595006 127.6155017 101.5519987 103.8865006 127.6155017
  98.8989987  97.8675006 131.6495017  99.8559987  97.8675006 131.6495017
  98.6589987  98.7945006 131.6495017 106.2799987 107.3685006 125.1905017
 107.2369987 107.3685006 125.1905017 106.0399987 108.2955006 125.1905017
 101.4269987 105.5315006 131.8895017 102.3839987 105.5315006 131.8895017
 101.1869987 106.4585006 131.8895017  98.4569987  99.7435006 129.6355017
  99.4139987  99.7435006 129.6355017  98.2169987 100.6705006 129.6355017
  99.8519987 107.5485006 132.6135017 100.8089987 107.5485006 132.6135017
  99.6119987 108.4755006 132.6135017  95.9229987 107.0665006 123.5655017
  96.8799987 107.0665006 123.5655017  95.6829987 107.9935006 123.5655017
 102.8789987  95.2045006 129.1055017 103.8359987  95.2045006 129.1055017
 102.6389987  96.1315006 129.1055017 105.1299987 103.9935006 123.6015017
 106.0869987 103.9935006 123.6015017 104.8899987 104.9205006 123.6015017
 105.1949987 102.5315006 120.6195017 106.1519987 102.5315006 120.6195017
 104.9549987 103.4585006 120.6195017 100.1989987 104.8655006 126.4405017
 101.1559987 104.8655006 126.4405017  99.9589987 105.7925006 126.4405017
 100.5359987 103.6475006 130.0975017 101.4929987 103.6475006 130.0975017
 100.2959987 104.5745006 130.0975017 100.9179987   0.0275006 134.8665017
 101.8749987   0.0275006 134.8665017 100.6779987   0.9545006 134.8665017
 107.4619987 103.3975006 122.2205017 108.4189987 103.3975006 122.2205017
 107.2219987 104.3245006 122.2205017  98.4159987 104.2165006 133.9995017
  99.3729987 104.2165006 133.9995017  98.1759987 105.1435006 133.9995017
  99.1899987 103.9125006 124.0635017 100.1469987 103.9125006 124.0635017
  98.9499987 104.8395006 124.0635017  95.2539987 106.3165006 132.8905017
  96.2109987 106.3165006 132.8905017  95.0139987 107.2435006 132.8905017
  97.5519987 107.5705006 133.8865017  98.5089987 107.5705006 133.8865017
  97.3119987 108.4975006 133.8865017 100.2189987  96.1025006 129.8565017
 101.1759987  96.1025006 129.8565017  99.9789987  97.0295006 129.8565017
 104.8879987  95.7945006 133.2535017 105.8449987  95.7945006 133.2535017
 104.6479987  96.7215006 133.2535017 104.5259987  98.3455006 120.5415017
 105.4829987  98.3455006 120.5415017 104.2859987  99.2725006 120.5415017
 100.2929987 101.0655006 131.0415017 101.2499987 101.0655006 131.0415017
 100.0529987 101.9925006 131.0415017 100.2819987 101.2295006 125.9465017
 101.2389987 101.2295006 125.9465017 100.0419987 102.1565006 125.9465017
 105.7829987 101.7035006 124.7355017 106.7399987 101.7035006 124.7355017
 105.5429987 102.6305006 124.7355017 104.8239987 101.7075006 135.9985017
 105.7809987 101.7075006 135.9985017 104.5839987 102.6345006 135.9985017
 106.7859987 101.1625006 127.5605017 107.7429987 101.1625006 127.5605017
 106.5459987 102.0895006 127.5605017  97.9919987 101.3475006 132.8275017
  98.9489987 101.3475006 132.8275017  97.7519987 102.2745006 132.8275017
 101.3479987  98.7385006 119.6365017 102.3049987  98.7385006 119.6365017
 101.1079987  99.6655006 119.6365017  94.6079987  98.4655006 126.7445017
  95.5649987  98.4655006 126.7445017  94.3679987  99.3925006 126.7445017
  95.8829987  99.1775006 122.1185017  96.8399987  99.1775006 122.1185017
  95.6429987 100.1045006 122.1185017 106.0099987 102.7815006 132.1755017
 106.9669987 102.7815006 132.1755017 105.7699987 103.7085006 132.1755017
 102.8439987  98.7305006 126.9755017 103.8009987  98.7305006 126.9755017
 102.6039987  99.6575006 126.9755017  97.6619987 100.3155006 125.8315017
  98.6189987 100.3155006 125.8315017  97.4219987 101.2425006 125.8315017
 101.3079987 100.3405006 123.4585017 102.2649987 100.3405006 123.4585017
 101.0679987 101.2675006 123.4585017 107.2479987  97.9385006 130.2735017
 108.2049987  97.9385006 130.2735017 107.0079987  98.8655006 130.2735017
 100.0029987 101.5295006 121.0525017 100.9599987 101.5295006 121.0525017
  99.7629987 102.4565006 121.0525017  97.9859987 106.1435006 136.0825017
  98.9429987 106.1435006 136.0825017  97.7459987 107.0705006 136.0825017
 104.0929987 101.4995006 128.8195017 105.0499987 101.4995006 128.8195017
 103.8529987 102.4265006 128.8195017  99.1459987  97.6525006 125.2985017
 100.1029987  97.6525006 125.2985017  98.9059987  98.5795006 125.2985017
 102.7549987  99.8325006 131.2785017 103.7119987  99.8325006 131.2785017
 102.5149987 100.7595006 131.2785017 103.3869987 106.0825006 122.9665017
 104.3439987 106.0825006 122.9665017 103.1469987 107.0095006 122.9665017
 107.1559987  98.9025006 121.1565017 108.1129987  98.9025006 121.1565017
 106.9159987  99.8295006 121.1565017 104.8329987 106.2865006 134.1555017
 105.7899987 106.2865006 134.1555017 104.5929987 107.2135006 134.1555017
   0.1199987 100.8935006 122.8565017   1.0769987 100.8935006 122.8565017
  -0.1200013 101.8205006 122.8565017  98.4349987 105.4125006 128.7095017
  99.3919987 105.4125006 128.7095017  98.1949987 106.3395006 128.7095017
 105.4739987 107.5175006 122.0385017 106.4309987 107.5175006 122.0385017
 105.2339987 108.4445006 122.0385017  95.4739987 103.8425006 134.0315017
  96.4309987 103.8425006 134.0315017  95.2339987 104.7695006 134.0315017
 102.6329987 103.7715006 135.7705017 103.5899987 103.7715006 135.7705017
 102.3929987 104.6985006 135.7705017  96.5999987 103.7325006 120.7325017
  97.5569987 103.7325006 120.7325017  96.3599987 104.6595006 120.7325017
 102.2869987 106.5195006 125.6835017 103.2439987 106.5195006 125.6835017
 102.0469987 107.4465006 125.6835017 106.2569987 106.7945006 131.6855017
 107.2139987 106.7945006 131.6855017 106.0169987 107.7215006 131.6855017
  97.1089987  98.6215006 133.6435017  98.0659987  98.6215006 133.6435017
  96.8689987  99.5485006 133.6435017  98.0049987 105.6825006 122.2205017
  98.9619987 105.6825006 122.2205017  97.7649987 106.6095006 122.2205017
 105.8429987  98.3325006 132.5195017 106.7999987  98.3325006 132.5195017
 105.6029987  99.2595006 132.5195017 106.3279987  98.1665006 123.5965017
 107.2849987  98.1665006 123.5965017 106.0879987  99.0935006 123.5965017
 103.7919987  99.7235006 124.4405017 104.7489987  99.7235006 124.4405017
 103.5519987 100.6505006 124.4405017 104.3329987 100.6635006 133.6005017
 105.2899987 100.6635006 133.6005017 104.0929987 101.5905006 133.6005017
 104.6999987  96.7565006 125.3495017 105.6569987  96.7565006 125.3495017
 104.4599987  97.6835006 125.3495017 100.3269987  97.8495006 122.0485017
 101.2839987  97.8495006 122.0485017 100.0869987  98.7765006 122.0485017
  96.9079987 100.9605006 120.2355017  97.8649987 100.9605006 120.2355017
  96.6679987 101.8875006 120.2355017  97.7209987  95.7515006 128.9535017
  98.6779987  95.7515006 128.9535017  97.4809987  96.6785006 128.9535017
 100.1289987 106.4225006 119.4285017 101.0859987 106.4225006 119.4285017
  99.8889987 107.3495006 119.4285017 105.4559987 107.4775006 119.2095017
 106.4129987 107.4775006 119.2095017 105.2159987 108.4045006 119.2095017
 101.3319987 104.4615006 121.8035017 102.2889987 104.4615006 121.8035017
 101.0919987 105.3885006 121.8035017 100.6449987 102.2905006 134.1565017
 101.6019987 102.2905006 134.1565017 100.4049987 103.2175006 134.1565017
 102.4139987 102.6415006 120.0455017 103.3709987 102.6415006 120.0455017
 102.1739987 103.5685006 120.0455017 100.8129987  99.7375006 135.0735017
 101.7699987  99.7375006 135.0735017 100.5729987 100.6645006 135.0735017
 101.4049987  98.0155006 132.7665017 102.3619987  98.0155006 132.7665017
 101.1649987  98.9425006 132.7665017 102.9729987 103.4895006 132.9635017
 103.9299987 103.4895006 132.9635017 102.7329987 104.4165006 132.9635017
 102.2219987  95.4875006 133.1665017 103.1789987  95.4875006 133.1665017
 101.9819987  96.4145006 133.1665017 106.1279987  98.8655006 135.7715017
 107.0849987  98.8655006 135.7715017 105.8879987  99.7925006 135.7715017
 102.4209987  94.8355006 135.8535017 103.3779987  94.8355006 135.8535017
 102.1809987  95.7625006 135.8535017  95.8979987 107.7905006 120.4265017
  96.8549987 107.7905006 120.4265017  95.6579987 108.7175006 120.4265017
  95.4589987 104.5375006 129.8965017  96.4159987 104.5375006 129.8965017
  95.2189987 105.4645006 129.8965017  95.0709987  99.8265006 136.0425017
  96.0279987  99.8265006 136.0425017  94.8309987 100.7535006 136.0425017
  96.2789987  98.1385006 128.9205017  97.2359987  98.1385006 128.9205017
  96.0389987  99.0655006 128.9205017  94.5679987 101.1235006 129.9675017
  95.5249987 101.1235006 129.9675017  94.3279987 102.0505006 129.9675017
  94.9319987  97.4075006 124.0435017  95.8889987  97.4075006 124.0435017
  94.6919987  98.3345006 124.0435017  94.8979987  96.0925006 132.3555017
  95.8549987  96.0925006 132.3555017  94.6579987  97.0195006 132.3555017
 105.0119987  96.9885006 128.3655017 105.9689987  96.9885006 128.3655017
 104.7719987  97.9155006 128.3655017  97.3939987  95.6295006 126.2235017
  98.3509987  95.6295006 126.2235017  97.1539987  96.5565006 126.2235017
  96.1809987  95.3855006 121.9715017  97.1379987  95.3855006 121.9715017
  95.9409987  96.3125006 121.9715017 101.8999987  95.5385006 126.0135017
 102.8569987  95.5385006 126.0135017 101.6599987  96.4655006 126.0135017
 107.4669987  95.4945006 127.8145017 108.4239987  95.4945006 127.8145017
 107.2269987  96.4215006 127.8145017  98.0149987  97.3275006 120.4565017
  98.9719987  97.3275006 120.4565017  97.7749987  98.2545006 120.4565017
 103.0449987  97.5775006 122.8715017 104.0019987  97.5775006 122.8715017
 102.8049987  98.5045006 122.8715017  97.2749987  96.1345006 135.6875017
  98.2319987  96.1345006 135.6875017  97.0349987  97.0615006 135.6875017
  12.1969987  10.4865006 143.5905017  13.1539987  10.4865006 143.5905017
  11.9569987  11.4135006 143.5905017  11.0649987   9.7485006 147.0625017
  12.0219987   9.7485006 147.0625017  10.8249987  10.6755006 147.0625017
   3.5079987   9.3575006 148.5455017   4.4649987   9.3575006 148.5455017
   3.2679987  10.2845006 148.5455017  14.7739987  12.6845006 145.3355017
  15.7309987  12.6845006 145.3355017  14.5339987  13.6115006 145.3355017
   4.3439987  13.8515006 147.1445017   5.3009987  13.8515006 147.1445017
   4.1039987  14.7785006 147.1445017   1.0669987   7.5315006 142.5495017
   2.0239987   7.5315006 142.5495017   0.8269987   8.4585006 142.5495017
   1.4979987   9.6655006 144.4925017   2.4549987   9.6655006 144.4925017
   1.2579987  10.5925006 144.4925017  11.8819987  17.8395006 145.5695017
  12.8389987  17.8395006 145.5695017  11.6419987  18.7665006 145.5695017
   9.4489987  12.1555006 147.4985017  10.4059987  12.1555006 147.4985017
   9.2089987  13.0825006 147.4985017  18.0799987   3.7555006 148.2565017
  19.0369987   3.7555006 148.2565017  17.8399987   4.6825006 148.2565017
  12.6099987   6.5965006 147.8255017  13.5669987   6.5965006 147.8255017
  12.3699987   7.5235006 147.8255017   5.7269987   4.6985006 145.0485017
   6.6839987   4.6985006 145.0485017   5.4869987   5.6255006 145.0485017
  13.4729987   4.7815006 143.4305017  14.4299987   4.7815006 143.4305017
  13.2329987   5.7085006 143.4305017   2.4259987   6.9345006 145.6705017
   3.3829987   6.9345006 145.6705017   2.1859987   7.8615006 145.6705017
   7.4719987   8.6545006 145.1045017   8.4289987   8.6545006 145.1045017
   7.2319987   9.5815006 145.1045017  18.5369987   5.2515006 150.5205017
  19.4939987   5.2515006 150.5205017  18.2969987   6.1785006 150.5205017
   4.6369987   3.6005006 149.1195017   5.5939987   3.6005006 149.1195017
   4.3969987   4.5275006 149.1195017  11.9329987  13.0875006 142.6355017
  12.8899987  13.0875006 142.6355017  11.6929987  14.0145006 142.6355017
   7.1339987  11.2335006 149.3335017   8.0909987  11.2335006 149.3335017
   6.8939987  12.1605006 149.3335017  15.2669987   4.1055006 145.4115017
  16.2239987   4.1055006 145.4115017  15.0269987   5.0325006 145.4115017
   4.1939987   5.4965006 147.0945017   5.1509987   5.4965006 147.0945017
   3.9539987   6.4235006 147.0945017   5.5899987  13.2275006 150.1575017
   6.5469987  13.2275006 150.1575017   5.3499987  14.1545006 150.1575017
   1.7079987  12.8795006 140.9605017   2.6649987  12.8795006 140.9605017
   1.4679987  13.8065006 140.9605017  15.2939987  14.5215006 147.7015017
  16.2509987  14.5215006 147.7015017  15.0539987  15.4485006 147.7015017
  15.6389987   2.8045006 149.1615017  16.5959987   2.8045006 149.1615017
  15.3989987   3.7315006 149.1615017   8.5609987   0.9615006 146.4215017
   9.5179987   0.9615006 146.4215017   8.3209987   1.8885006 146.4215017
  13.5469987  16.3085006 144.3055017  14.5039987  16.3085006 144.3055017
  13.3069987  17.2355006 144.3055017  14.7449987  14.2305006 142.8225017
  15.7019987  14.2305006 142.8225017  14.5049987  15.1575006 142.8225017
  16.4219987  12.8025006 151.2975017  17.3789987  12.8025006 151.2975017
  16.1819987  13.7295006 151.2975017  10.8799987   9.7295006 141.0815017
  11.8369987   9.7295006 141.0815017  10.6399987  10.6565006 141.0815017
  10.9349987   8.2845006 138.3345017  11.8919987   8.2845006 138.3345017
  10.6949987   9.2115006 138.3345017  17.9039987   8.9965006 149.3075017
  18.8609987   8.9965006 149.3075017  17.6639987   9.9235006 149.3075017
  14.3049987   9.9455006 142.0135017  15.2619987   9.9455006 142.0135017
  14.0649987  10.8725006 142.0135017  14.2279987   8.0935006 151.1115017
  15.1849987   8.0935006 151.1115017  13.9879987   9.0205006 151.1115017
   5.8949987  10.5815006 143.9405017   6.8519987  10.5815006 143.9405017
   5.6549987  11.5085006 143.9405017   7.2629987  13.9995006 146.5885017
   8.2199987  13.9995006 146.5885017   7.0229987  14.9265006 146.5885017
   6.2399987   9.3675006 147.5305017   7.1969987   9.3675006 147.5305017
   5.9999987  10.2945006 147.5305017  12.6509987  14.9015006 148.2655017
  13.6079987  14.9015006 148.2655017  12.4109987  15.8285006 148.2655017
   7.2049987  13.7645006 152.2645017   8.1619987  13.7645006 152.2645017
   6.9649987  14.6915006 152.2645017  13.1669987   9.1075006 139.6725017
  14.1239987   9.1075006 139.6725017  12.9269987  10.0345006 139.6725017
   4.1229987   9.9375006 151.4285017   5.0799987   9.9375006 151.4285017
   3.8829987  10.8645006 151.4285017  10.8929987  15.8455006 143.1495017
  11.8499987  15.8455006 143.1495017  10.6529987  16.7725006 143.1495017
   5.4459987  15.8145006 153.0155017   6.4029987  15.8145006 153.0155017
   5.2059987  16.7415006 153.0155017  16.9459987   0.9055006 139.5485017
  17.9029987   0.9055006 139.5485017  16.7059987   1.8325006 139.5485017
   4.8989987   9.6475006 141.5595017   5.8559987   9.6475006 141.5595017
   4.6589987  10.5745006 141.5595017  18.0339987  15.1875006 137.9555017
  18.9909987  15.1875006 137.9555017  17.7939987  16.1145006 137.9555017
   1.1449987  12.0065006 150.3185017   2.1019987  12.0065006 150.3185017
   0.9049987  12.9335006 150.3185017   1.0119987  14.9135006 146.9215017
   1.9689987  14.9135006 146.9215017   0.7719987  15.8405006 146.9215017
  18.9869987  15.4795006 152.8805017  19.9439987  15.4795006 152.8805017
  18.7469987  16.4065006 152.8805017   9.9479987  15.0225006 151.7425017
  10.9049987  15.0225006 151.7425017   9.7079987  15.9495006 151.7425017
  10.3589987  18.7735006 141.5255017  11.3159987  18.7735006 141.5255017
  10.1189987  19.7005006 141.5255017   4.0259987  17.6315006 143.3455017
   4.9829987  17.6315006 143.3455017   3.7859987  18.5585006 143.3455017
  13.3819987  17.9955006 138.5235017  14.3389987  17.9955006 138.5235017
  13.1419987  18.9225006 138.5235017  13.1249987  17.9125006 141.3105017
  14.0819987  17.9125006 141.3105017  12.8849987  18.8395006 141.3105017
  16.1269987   6.9575006 153.3665017  17.0839987   6.9575006 153.3665017
  15.8869987   7.8845006 153.3665017   3.2619987  13.3895006 151.3715017
   4.2189987  13.3895006 151.3715017   3.0219987  14.3165006 151.3715017
   6.0019987   1.9235006 147.2465017   6.9589987   1.9235006 147.2465017
   5.7619987   2.8505006 147.2465017  10.6079987   1.5595006 150.7325017
  11.5649987   1.5595006 150.7325017  10.3679987   2.4865006 150.7325017
  13.8669987   5.2875006 151.5695017  14.8239987   5.2875006 151.5695017
  13.6269987   6.2145006 151.5695017  14.7829987  10.2225006 137.8345017
  15.7399987  10.2225006 137.8345017  14.5429987  11.1495006 137.8345017
  10.2319987   4.0355006 137.9985017  11.1889987   4.0355006 137.9985017
   9.9919987   4.9625006 137.9985017   6.0239987   6.7895006 148.5115017
   6.9809987   6.7895006 148.5115017   5.7839987   7.7165006 148.5115017
   5.9739987   6.9635006 143.4135017   6.9309987   6.9635006 143.4135017
   5.7339987   7.8905006 143.4135017  11.5219987   7.4125006 142.1615017
  12.4789987   7.4125006 142.1615017  11.2819987   8.3395006 142.1615017
  10.5979987   7.6255006 153.6425017  11.5549987   7.6255006 153.6425017
  10.3579987   8.5525006 153.6425017  12.5519987   6.9015006 145.0315017
  13.5089987   6.9015006 145.0315017  12.3119987   7.8285006 145.0315017
   3.6929987   7.0795006 150.2585017   4.6499987   7.0795006 150.2585017
   3.4529987   8.0065006 150.2585017   7.1249987   4.4135006 137.2545017
   8.0819987   4.4135006 137.2545017   6.8849987   5.3405006 137.2545017
   0.4399987   3.4675006 144.5275017   1.3969987   3.4675006 144.5275017
   0.1999987   4.3945006 144.5275017   1.8039987   4.9205006 139.6915017
   2.7609987   4.9205006 139.6915017   1.5639987   5.8475006 139.6915017
  11.7709987   8.5035006 149.6155017  12.7279987   8.5035006 149.6155017
  11.5309987   9.4305006 149.6155017   8.5719987   4.4755006 144.4265017
   9.5289987   4.4755006 144.4265017   8.3319987   5.4025006 144.4265017
   3.3929987   6.0475006 143.3015017   4.3499987   6.0475006 143.3015017
   3.1529987   6.9745006 143.3015017   7.0159987   6.0915006 140.9565017
   7.9729987   6.0915006 140.9565017   6.7759987   7.0185006 140.9565017
  12.9819987   3.6755006 147.6765017  13.9389987   3.6755006 147.6765017
  12.7419987   4.6025006 147.6765017   5.6889987   7.2805006 138.4995017
   6.6459987   7.2805006 138.4995017   5.4489987   8.2075006 138.4995017
  16.1869987  19.3405006 154.0015017  17.1439987  19.3405006 154.0015017
  15.9469987  20.2675006 154.0015017   3.8559987  11.7895006 153.5815017
   4.8129987  11.7895006 153.5815017   3.6159987  12.7165006 153.5815017
   9.8589987   7.2285006 146.3265017  10.8159987   7.2285006 146.3265017
   9.6189987   8.1555006 146.3265017   4.8499987   3.3865006 142.7465017
   5.8069987   3.3865006 142.7465017   4.6099987   4.3135006 142.7465017
   8.4909987   5.5785006 148.7355017   9.4479987   5.5785006 148.7355017
   8.2509987   6.5055006 148.7355017   9.0789987  11.7885006 140.4265017
  10.0359987  11.7885006 140.4265017   8.8389987  12.7155006 140.4265017
  16.2539987  10.9855006 149.2335017  17.2109987  10.9855006 149.2335017
  16.0139987  11.9125006 149.2335017  12.9399987   4.6255006 138.5655017
  13.8969987   4.6255006 138.5655017  12.6999987   5.5525006 138.5655017
  10.5669987  12.0295006 151.6735017  11.5239987  12.0295006 151.6735017
  10.3269987  12.9565006 151.6735017  13.6459987   6.4915006 140.2835017
  14.6029987   6.4915006 140.2835017  13.4059987   7.4185006 140.2835017
   4.2429987  11.2555006 146.2405017   5.1999987  11.2555006 146.2405017
   4.0029987  12.1825006 146.2405017  11.1779987  13.2395006 139.4555017
  12.1349987  13.2395006 139.4555017  10.9379987  14.1665006 139.4555017
   1.1759987   9.5775006 151.4855017   2.1329987   9.5775006 151.4855017
   0.9359987  10.5045006 151.4855017   8.1879987   9.1335006 153.6935017
   9.1449987   9.1335006 153.6935017   7.9479987  10.0605006 153.6935017
  12.8619987  14.4645006 151.6165017  13.8189987  14.4645006 151.6165017
  12.6219987  15.3915006 151.6165017  18.5569987   6.6775006 140.0525017
  19.5139987   6.6775006 140.0525017  18.3169987   7.6045006 140.0525017
  18.5279987  12.4935006 152.8295017  19.4849987  12.4935006 152.8295017
  18.2879987  13.4205006 152.8295017  16.8689987  15.4785006 140.4315017
  17.8259987  15.4785006 140.4315017  16.6289987  16.4055006 140.4315017
  14.0329987  10.3025006 147.5115017  14.9899987  10.3025006 147.5115017
  13.7929987  11.2295006 147.5115017   6.5689987  14.6175006 143.6155017
   7.5259987  14.6175006 143.6155017   6.3289987  15.5445006 143.6155017
   2.3069987   9.4545006 138.2075017   3.2639987   9.4545006 138.2075017
   2.0669987  10.3815006 138.2075017   7.9839987  12.2895006 143.1385017
   8.9409987  12.2895006 143.1385017   7.7439987  13.2165006 143.1385017
   8.4249987  16.4845006 149.5485017   9.3819987  16.4845006 149.5485017
   8.1849987  17.4115006 149.5485017   6.6609987  17.2905006 142.6945017
   7.6179987  17.2905006 142.6945017   6.4209987  18.2175006 142.6945017
  11.9779987  12.4975006 149.1755017  12.9349987  12.4975006 149.1755017
  11.7379987  13.4245006 149.1755017  14.2339987  13.5245006 138.2625017
  15.1909987  13.5245006 138.2625017  13.9939987  14.4515006 138.2625017
  14.7349987  17.0735006 151.6705017  15.6919987  17.0735006 151.6705017
  14.4949987  18.0005006 151.6705017  18.7579987  17.9175006 138.5385017
  19.7149987  17.9175006 138.5385017  18.5179987  18.8445006 138.5385017
   2.8179987   4.3435006 151.1125017   3.7749987   4.3435006 151.1125017
   2.5779987   5.2705006 151.1125017  15.0749987  12.1775006 140.5045017
  16.0319987  12.1775006 140.5045017  14.8349987  13.1045006 140.5045017
   2.4759987  16.1195006 149.4655017   3.4329987  16.1195006 149.4655017
   2.2359987  17.0465006 149.4655017   8.4929987  14.5985006 136.7905017
   9.4499987  14.5985006 136.7905017   8.2529987  15.5255006 136.7905017
   7.2259987  14.1575006 139.1805017   8.1829987  14.1575006 139.1805017
   6.9859987  15.0845006 139.1805017   3.6759987  11.3905006 139.6325017
   4.6329987  11.3905006 139.6325017   3.4359987  12.3175006 139.6325017
  11.5539987   4.0815006 149.9865017  12.5109987   4.0815006 149.9865017
  11.3139987   5.0085006 149.9865017  12.3079987   3.6815006 141.0815017
  13.2649987   3.6815006 141.0815017  12.0679987   4.6085006 141.0815017
   9.9949987  15.8275006 139.9515017  10.9519987  15.8275006 139.9515017
   9.7549987  16.7545006 139.9515017   9.5409987   5.4025006 141.8995017
  10.4979987   5.4025006 141.8995017   9.3009987   6.3295006 141.8995017
  10.0799987   6.4305006 151.0905017  11.0369987   6.4305006 151.0905017
   9.8399987   7.3575006 151.0905017  10.4059987   2.4775006 142.8235017
  11.3629987   2.4775006 142.8235017  10.1659987   3.4045006 142.8235017
   7.3679987  16.8595006 139.9265017   8.3249987  16.8595006 139.9265017
   7.1279987  17.7865006 139.9265017   6.0299987   3.5815006 139.5265017
   6.9869987   3.5815006 139.5265017   5.7899987   4.5085006 139.5265017
  16.2749987   4.3225006 151.9325017  17.2319987   4.3225006 151.9325017
  16.0349987   5.2495006 151.9325017  14.8749987   8.0935006 145.9725017
  15.8319987   8.0935006 145.9725017  14.6349987   9.0205006 145.9725017
   4.3119987  13.9905006 138.5735017   5.2689987  13.9905006 138.5735017
   4.0719987  14.9175006 138.5735017   2.6029987   6.6715006 137.7905017
   3.5599987   6.6715006 137.7905017   2.3629987   7.5985006 137.7905017
  15.9379987  17.3415006 147.6375017  16.8949987  17.3415006 147.6375017
  15.6979987  18.2685006 147.6375017   3.2289987   1.6625006 146.2895017
   4.1859987   1.6625006 146.2895017   2.9889987   2.5895006 146.2895017
   2.3849987  15.3965006 142.5605017   3.3419987  15.3965006 142.5605017
   2.1449987  16.3235006 142.5605017   1.7139987  17.9775006 153.7965017
   2.6709987  17.9775006 153.7965017   1.4739987  18.9045006 153.7965017
   6.2669987  16.9415006 155.4905017   7.2239987  16.9415006 155.4905017
   6.0269987  17.8685006 155.4905017  10.5759987  16.0845006 137.3695017
  11.5329987  16.0845006 137.3695017  10.3359987  17.0115006 137.3695017
  12.8019987  15.3385006 154.2135017  13.7589987  15.3385006 154.2135017
  12.5619987  16.2655006 154.2135017  14.7699987  16.1775006 137.2615017
  15.7269987  16.1775006 137.2615017  14.5299987  17.1045006 137.2615017
   1.5049987  11.8255006 154.8565017   2.4619987  11.8255006 154.8565017
   1.2649987  12.7525006 154.8565017   6.0259987  12.1885006 137.0485017
   6.9829987  12.1885006 137.0485017   5.7859987  13.1155006 137.0485017
   8.2349987  11.8095006 154.2465017   9.1919987  11.8095006 154.2465017
   7.9949987  12.7365006 154.2465017  11.2099987  13.2275006 136.6555017
  12.1669987  13.2275006 136.6555017  10.9699987  14.1545006 136.6555017
  13.9399987  11.6725006 151.6305017  14.8969987  11.6725006 151.6305017
  13.6999987  12.5995006 151.6305017   2.3579987   9.0215006 154.2305017
   3.3149987   9.0215006 154.2305017   2.1179987   9.9485006 154.2305017
   7.0639987  10.1655006 139.2735017   8.0209987  10.1655006 139.2735017
   6.8239987  11.0925006 139.2735017   6.3379987   7.9965006 151.6065017
   7.2949987   7.9965006 151.6065017   6.0979987   8.9235006 151.6065017
   8.1819987   8.0735006 137.7975017   9.1389987   8.0735006 137.7975017
   7.9419987   9.0005006 137.7975017  11.3939987  10.5425006 154.9195017
  12.3509987  10.5425006 154.9195017  11.1539987  11.4695006 154.9195017
  17.5689987  10.9305006 137.2885017  18.5259987  10.9305006 137.2885017
  17.3289987  11.8575006 137.2885017   6.7229987   5.3685006 152.6685017
   7.6799987   5.3685006 152.6685017   6.4829987   6.2955006 152.6685017
   7.1399987   3.7415006 150.2065017   8.0969987   3.7415006 150.2065017
   6.8999987   4.6685006 150.2065017   8.6799987   9.2185006 150.4495017
   9.6369987   9.2185006 150.4495017   8.4399987  10.1455006 150.4495017
  13.0799987   6.9975006 155.4265017  14.0369987   6.9975006 155.4265017
  12.8399987   7.9245006 155.4265017  14.4119987   9.7875006 153.5685017
  15.3689987   9.7875006 153.5685017  14.1719987  10.7145006 153.5685017
   5.1679987   6.6165006 154.5875017   6.1249987   6.6165006 154.5875017
   4.9279987   7.5435006 154.5875017   8.0039987   1.2295006 150.4815017
   8.9609987   1.2295006 150.4815017   7.7639987   2.1565006 150.4815017
   9.1859987   5.5175006 154.2055017  10.1429987   5.5175006 154.2055017
   8.9459987   6.4445006 154.2055017  11.9089987   4.6865006 153.3015017
  12.8659987   4.6865006 153.3015017  11.6689987   5.6135006 153.3015017
  13.5399987   3.3055006 155.2355017  14.4969987   3.3055006 155.2355017
  13.2999987   4.2325006 155.2355017   3.2629987   4.5255006 154.3535017
   4.2199987   4.5255006 154.3535017   3.0229987   5.4525006 154.3535017
   8.7139987 108.5275006 153.3535017   9.6709987 108.5275006 153.3535017
   8.4739987 109.4545006 153.3535017   8.4869987   2.2525006 155.4415017
   9.4439987   2.2525006 155.4415017   8.2469987   3.1795006 155.4415017
   7.9859987  19.1085006 138.5745017   8.9429987  19.1085006 138.5745017
   7.7459987  20.0355006 138.5745017   1.5679987  13.5995006 138.1165017
   2.5249987  13.5995006 138.1165017   1.3279987  14.5265006 138.1165017
 108.0929987  19.1255006 143.0435017 109.0499987  19.1255006 143.0435017
 107.8529987  20.0525006 143.0435017   1.5109987  17.3425006 144.9945017
   2.4679987  17.3425006 144.9945017   1.2709987  18.2695006 144.9945017
  18.6629987  17.9905006 147.8365017  19.6199987  17.9905006 147.8365017
  18.4229987  18.9175006 147.8365017  18.2379987  17.5905006 150.7815017
  19.1949987  17.5905006 150.7815017  17.9979987  18.5175006 150.7815017
  16.6829987  13.3195006 155.4335017  17.6399987  13.3195006 155.4335017
  16.4429987  14.2465006 155.4335017  17.9969987  11.6345006 140.9025017
  18.9539987  11.6345006 140.9025017  17.7569987  12.5615006 140.9025017
  18.3539987   9.7065006 142.7475017  19.3109987   9.7065006 142.7475017
  18.1139987  10.6335006 142.7475017  18.1599987  12.3945006 147.7845017
  19.1169987  12.3945006 147.7845017  17.9199987  13.3215006 147.7845017
  16.6639987  15.3165006 150.0215017  17.6209987  15.3165006 150.0215017
  16.4239987  16.2435006 150.0215017  18.6729987   9.5205006 139.1835017
  19.6299987   9.5205006 139.1835017  18.4329987  10.4475006 139.1835017
  17.1269987   6.7085006 137.9065017  18.0839987   6.7085006 137.9065017
  16.8869987   7.6355006 137.9065017  16.1749987   8.1875006 143.3225017
  17.1319987   8.1875006 143.3225017  15.9349987   9.1145006 143.3225017
   1.1939987  10.2085006 147.3715017   2.1509987  10.2085006 147.3715017
   0.9539987  11.1355006 147.3715017  17.0339987  10.1615006 152.9735017
  17.9909987  10.1615006 152.9735017  16.7939987  11.0885006 152.9735017
  18.5419987   8.0535006 153.6255017  19.4989987   8.0535006 153.6255017
  18.3019987   8.9805006 153.6255017  16.1869987   4.3135006 136.9975017
  17.1439987   4.3135006 136.9975017  15.9469987   5.2405006 136.9975017
  15.8419987   5.7855006 141.7875017  16.7989987   5.7855006 141.7875017
  15.6019987   6.7125006 141.7875017  16.4869987   6.3315006 147.2235017
  17.4439987   6.3315006 147.2235017  16.2469987   7.2585006 147.2235017
  16.5049987   7.0095006 150.0355017  17.4619987   7.0095006 150.0355017
  16.2649987   7.9365006 150.0355017   0.8759987   5.5655006 153.5145017
   1.8329987   5.5655006 153.5145017   0.6359987   6.4925006 153.5145017
  18.7459987   1.1895006 155.3025017  19.7029987   1.1895006 155.3025017
  18.5059987   2.1165006 155.3025017  16.4909987   3.0715006 141.8235017
  17.4479987   3.0715006 141.8235017  16.2509987   3.9985006 141.8235017
   2.0569987   3.9555006 146.3665017   3.0139987   3.9555006 146.3665017
   1.8169987   4.8825006 146.3665017   0.8999987   6.8615006 147.6135017
   1.8569987   6.8615006 147.6135017   0.6599987   7.7885006 147.6135017
  18.3379987   3.2095006 153.7005017  19.2949987   3.2095006 153.7005017
  18.0979987   4.1365006 153.7005017  18.4319987   3.0675006 138.5925017
  19.3889987   3.0675006 138.5925017  18.1919987   3.9945006 138.5925017
   0.8599987   3.0605006 141.5395017   1.8169987   3.0605006 141.5395017
   0.6199987   3.9875006 141.5395017  15.3949987  18.0785006 143.4425017
  16.3519987  18.0785006 143.4425017  15.1549987  19.0055006 143.4425017
 108.3449987   1.8625006 149.8735017 109.3019987   1.8625006 149.8735017
 108.1049987   2.7895006 149.8735017   2.8119987  14.9995006 153.9835017
   3.7689987  14.9995006 153.9835017   2.5719987  15.9265006 153.9835017
   5.7309987  15.9705006 150.2465017   6.6879987  15.9705006 150.2465017
   5.4909987  16.8975006 150.2465017  10.0509987  17.4235006 153.1555017
  11.0079987  17.4235006 153.1555017   9.8109987  18.3505006 153.1555017
  12.3609987  18.6775006 152.4565017  13.3179987  18.6775006 152.4565017
  12.1209987  19.6045006 152.4565017  17.4399987   1.4225006 151.5025017
  18.3969987   1.4225006 151.5025017  17.1999987   2.3495006 151.5025017
   3.1429987  19.2285006 150.2695017   4.0999987  19.2285006 150.2695017
   2.9029987  20.1555006 150.2695017   5.5519987  18.7305006 149.1945017
   6.5089987  18.7305006 149.1945017   5.3119987  19.6575006 149.1945017
  10.2869987  18.6975006 148.5005017  11.2439987  18.6975006 148.5005017
  10.0469987  19.6245006 148.5005017  12.6329987  17.5545006 149.4935017
  13.5899987  17.5545006 149.4935017  12.3929987  18.4815006 149.4935017
  15.2129987  19.1115006 149.7325017  16.1699987  19.1115006 149.7325017
  14.9729987  20.0385006 149.7325017   2.6379987  17.8925006 147.2375017
   3.5949987  17.8925006 147.2375017   2.3979987  18.8195006 147.2375017
   4.6829987  16.5835006 145.8325017   5.6399987  16.5835006 145.8325017
   4.4429987  17.5105006 145.8325017   7.2729987  17.0635006 146.7005017
   8.2299987  17.0635006 146.7005017   7.0329987  17.9905006 146.7005017
  10.7439987   2.7455006 145.8425017  11.7009987   2.7455006 145.8425017
  10.5039987   3.6725006 145.8425017  15.9639987   1.0805006 146.1015017
  16.9209987   1.0805006 146.1015017  15.7239987   2.0075006 146.1015017
  17.6009987   1.9935006 144.2385017  18.5579987   1.9935006 144.2385017
  17.3609987   2.9205006 144.2385017   3.1019987   1.3305006 143.6385017
   4.0589987   1.3305006 143.6385017   2.8619987   2.2575006 143.6385017
   2.1479987   1.5005006 139.7805017   3.1049987   1.5005006 139.7805017
   1.9079987   2.4275006 139.7805017   7.6419987   1.3165006 143.4775017
   8.5989987   1.3165006 143.4775017   7.4019987   2.2435006 143.4775017
  13.2209987   1.3265006 145.1155017  14.1779987   1.3265006 145.1155017
  12.9809987   2.2535006 145.1155017  14.5749987   1.3575006 140.8465017
  15.5319987   1.3575006 140.8465017  14.3349987   2.2845006 140.8465017
   1.9519987  17.0915006 140.3585017   2.9089987  17.0915006 140.3585017
   1.7119987  18.0185006 140.3585017   3.7529987   3.0695006 137.9345017
   4.7099987   3.0695006 137.9345017   3.5129987   3.9965006 137.9345017
   8.7429987   3.3065006 140.3405017   9.6999987   3.3065006 140.3405017
   8.5029987   4.2335006 140.3405017  10.6589987  18.4095006 138.7485017
  11.6159987  18.4095006 138.7485017  10.4189987  19.3365006 138.7485017
  17.3999987  17.8755006 141.4825017  18.3569987  17.8755006 141.4825017
  17.1599987  18.8025006 141.4825017   2.9779987   1.9385006 153.2385017
   3.9349987   1.9385006 153.2385017   2.7379987   2.8655006 153.2385017
   5.0029987   1.2595006 154.7625017   5.9599987   1.2595006 154.7625017
   4.7629987   2.1865006 154.7625017   3.7539987  18.0845006 137.4645017
   4.7109987  18.0845006 137.4645017   3.5139987  19.0115006 137.4645017
  13.4939987 108.3825006 154.7865017  14.4509987 108.3825006 154.7865017
  13.2539987 109.3095006 154.7865017  16.6259987  16.6005006 153.5805017
  17.5829987  16.6005006 153.5805017  16.3859987  17.5275006 153.5805017
  31.0829987  10.4835006 143.5645017  32.0399987  10.4835006 143.5645017
  30.8429987  11.4105006 143.5645017  29.9859987   9.7265006 147.0615017
  30.9429987   9.7265006 147.0615017  29.7459987  10.6535006 147.0615017
  22.2979987   9.3965006 148.6285017  23.2549987   9.3965006 148.6285017
  22.0579987  10.3235006 148.6285017  33.6269987  12.6885006 145.3325017
  34.5839987  12.6885006 145.3325017  33.3869987  13.6155006 145.3325017
  23.1989987  13.8375006 147.1595017  24.1559987  13.8375006 147.1595017
  22.9589987  14.7645006 147.1595017  19.8489987   7.4245006 142.5945017
  20.8059987   7.4245006 142.5945017  19.6089987   8.3515006 142.5945017
  20.5529987   9.6235006 144.6835017  21.5099987   9.6235006 144.6835017
  20.3129987  10.5505006 144.6835017  30.7389987  17.8375006 145.5685017
  31.6959987  17.8375006 145.5685017  30.4989987  18.7645006 145.5685017
  28.4119987  12.2505006 147.7045017  29.3689987  12.2505006 147.7045017
  28.1719987  13.1775006 147.7045017  36.9349987   3.7605006 148.2585017
  37.8919987   3.7605006 148.2585017  36.6949987   4.6875006 148.2585017
  31.4709987   6.5975006 147.8265017  32.4279987   6.5975006 147.8265017
  31.2309987   7.5245006 147.8265017  24.5999987   4.6925006 145.0525017
  25.5569987   4.6925006 145.0525017  24.3599987   5.6195006 145.0525017
  32.3289987   4.7815006 143.4275017  33.2859987   4.7815006 143.4275017
  32.0889987   5.7085006 143.4275017  21.2119987   7.1215006 145.8105017
  22.1689987   7.1215006 145.8105017  20.9719987   8.0485006 145.8105017
  26.3429987   8.5435006 145.0495017  27.2999987   8.5435006 145.0495017
  26.1029987   9.4705006 145.0495017  37.3669987   5.2215006 150.5215017
  38.3239987   5.2215006 150.5215017  37.1269987   6.1485006 150.5215017
  23.4939987   3.6045006 149.1085017  24.4509987   3.6045006 149.1085017
  23.2539987   4.5315006 149.1085017  30.8209987  13.1005006 142.6205017
  31.7779987  13.1005006 142.6205017  30.5809987  14.0275006 142.6205017
  26.0179987  11.2435006 149.4055017  26.9749987  11.2435006 149.4055017
  25.7779987  12.1705006 149.4055017  34.1209987   4.1035006 145.4095017
  35.0779987   4.1035006 145.4095017  33.8809987   5.0305006 145.4095017
  23.0349987   5.4925006 147.1015017  23.9919987   5.4925006 147.1015017
  22.7949987   6.4195006 147.1015017  24.4349987  13.2315006 150.1775017
  25.3919987  13.2315006 150.1775017  24.1949987  14.1585006 150.1775017
  20.5319987  12.8595006 140.9945017  21.4889987  12.8595006 140.9945017
  20.2919987  13.7865006 140.9945017  34.1499987  14.5225006 147.7035017
  35.1069987  14.5225006 147.7035017  33.9099987  15.4495006 147.7035017
  34.4959987   2.8045006 149.1605017  35.4529987   2.8045006 149.1605017
  34.2559987   3.7315006 149.1605017  27.4179987   0.9635006 146.4215017
  28.3749987   0.9635006 146.4215017  27.1779987   1.8905006 146.4215017
  32.4029987  16.3075006 144.3065017  33.3599987  16.3075006 144.3065017
  32.1629987  17.2345006 144.3065017  33.6029987  14.2305006 142.8225017
  34.5599987  14.2305006 142.8225017  33.3629987  15.1575006 142.8225017
  35.2399987  12.8115006 151.3035017  36.1969987  12.8115006 151.3035017
  34.9999987  13.7385006 151.3035017  29.7369987   9.7175006 141.0665017
  30.6939987   9.7175006 141.0665017  29.4969987  10.6445006 141.0665017
  29.8009987   8.2825006 138.3435017  30.7579987   8.2825006 138.3435017
  29.5609987   9.2095006 138.3435017  37.1169987   9.1305006 149.3615017
  38.0739987   9.1305006 149.3615017  36.8769987  10.0575006 149.3615017
  33.1679987   9.9435006 142.0095017  34.1249987   9.9435006 142.0095017
  32.9279987  10.8705006 142.0095017  33.0909987   8.0975006 151.1055017
  34.0479987   8.0975006 151.1055017  32.8509987   9.0245006 151.1055017
  24.6609987  10.5635006 143.8795017  25.6179987  10.5635006 143.8795017
  24.4209987  11.4905006 143.8795017  26.1149987  14.0495006 146.5925017
  27.0719987  14.0495006 146.5925017  25.8749987  14.9765006 146.5925017
  25.1059987   9.3245006 147.5775017  26.0629987   9.3245006 147.5775017
  24.8659987  10.2515006 147.5775017  31.5099987  14.8995006 148.2645017
  32.4669987  14.8995006 148.2645017  31.2699987  15.8265006 148.2645017
  26.0609987  13.7605006 152.2635017  27.0179987  13.7605006 152.2635017
  25.8209987  14.6875006 152.2635017  32.0249987   9.1065006 139.6725017
  32.9819987   9.1065006 139.6725017  31.7849987  10.0335006 139.6725017
  22.9859987   9.9345006 151.4245017  23.9429987   9.9345006 151.4245017
  22.7459987  10.8615006 151.4245017  29.7719987  15.8665006 143.1305017
  30.7289987  15.8665006 143.1305017  29.5319987  16.7935006 143.1305017
  24.3029987  15.8105006 153.0145017  25.2599987  15.8105006 153.0145017
  24.0629987  16.7375006 153.0145017  35.8019987   0.9055006 139.5485017
  36.7589987   0.9055006 139.5485017  35.5619987   1.8325006 139.5485017
  23.7519987   9.6125006 141.5065017  24.7089987   9.6125006 141.5065017
  23.5119987  10.5395006 141.5065017  36.8899987  15.1875006 137.9545017
  37.8469987  15.1875006 137.9545017  36.6499987  16.1145006 137.9545017
  19.8539987  12.0815006 150.4005017  20.8109987  12.0815006 150.4005017
  19.6139987  13.0085006 150.4005017  19.6109987  14.7645006 147.2125017
  20.5679987  14.7645006 147.2125017  19.3709987  15.6915006 147.2125017
  37.8629987  15.4745006 152.9085017  38.8199987  15.4745006 152.9085017
  37.6229987  16.4015006 152.9085017  28.8039987  15.0185006 151.7375017
  29.7609987  15.0185006 151.7375017  28.5639987  15.9455006 151.7375017
  29.2149987  18.7755006 141.5245017  30.1719987  18.7755006 141.5245017
  28.9749987  19.7025006 141.5245017  22.8609987  17.6645006 143.3715017
  23.8179987  17.6645006 143.3715017  22.6209987  18.5915006 143.3715017
  32.2359987  17.9945006 138.5235017  33.1929987  17.9945006 138.5235017
  31.9959987  18.9215006 138.5235017  31.9809987  17.9135006 141.3105017
  32.9379987  17.9135006 141.3105017  31.7409987  18.8405006 141.3105017
  34.9829987   6.9585006 153.3635017  35.9399987   6.9585006 153.3635017
  34.7429987   7.8855006 153.3635017  22.1269987  13.3385006 151.3475017
  23.0839987  13.3385006 151.3475017  21.8869987  14.2655006 151.3475017
  24.8869987   1.9225006 147.2545017  25.8439987   1.9225006 147.2545017
  24.6469987   2.8495006 147.2545017  29.4639987   1.5595006 150.7335017
  30.4209987   1.5595006 150.7335017  29.2239987   2.4865006 150.7335017
  32.7359987   5.2995006 151.5695017  33.6929987   5.2995006 151.5695017
  32.4959987   6.2265006 151.5695017  33.6379987  10.2225006 137.8345017
  34.5949987  10.2225006 137.8345017  33.3979987  11.1495006 137.8345017
  29.0879987   4.0355006 137.9985017  30.0449987   4.0355006 137.9985017
  28.8479987   4.9625006 137.9985017  24.8799987   6.7825006 148.5335017
  25.8369987   6.7825006 148.5335017  24.6399987   7.7095006 148.5335017
  24.8539987   6.9245006 143.4085017  25.8109987   6.9245006 143.4085017
  24.6139987   7.8515006 143.4085017  30.3729987   7.4155006 142.1645017
  31.3299987   7.4155006 142.1645017  30.1329987   8.3425006 142.1645017
  29.4539987   7.6255006 153.6425017  30.4109987   7.6255006 153.6425017
  29.2139987   8.5525006 153.6425017  31.4079987   6.9035006 145.0315017
  32.3649987   6.9035006 145.0315017  31.1679987   7.8305006 145.0315017
  22.4909987   7.1005006 150.2585017  23.4479987   7.1005006 150.2585017
  22.2509987   8.0275006 150.2585017  25.9739987   4.4065006 137.2705017
  26.9309987   4.4065006 137.2705017  25.7339987   5.3335006 137.2705017
  19.1749987   4.2085006 144.2005017  20.1319987   4.2085006 144.2005017
  18.9349987   5.1355006 144.2005017  20.4589987   4.9185006 139.5805017
  21.4159987   4.9185006 139.5805017  20.2189987   5.8455006 139.5805017
  30.6249987   8.5025006 149.6175017  31.5819987   8.5025006 149.6175017
  30.3849987   9.4295006 149.6175017  27.4299987   4.4735006 144.4265017
  28.3869987   4.4735006 144.4265017  27.1899987   5.4005006 144.4265017
  22.2409987   6.0415006 143.3015017  23.1979987   6.0415006 143.3015017
  22.0009987   6.9685006 143.3015017  25.8789987   6.0905006 140.9445017
  26.8359987   6.0905006 140.9445017  25.6389987   7.0175006 140.9445017
  31.8379987   3.6755006 147.6765017  32.7949987   3.6755006 147.6765017
  31.5979987   4.6025006 147.6765017  24.5419987   7.2675006 138.5095017
  25.4989987   7.2675006 138.5095017  24.3019987   8.1945006 138.5095017
  34.8869987  19.8035006 153.9015017  35.8439987  19.8035006 153.9015017
  34.6469987  20.7305006 153.9015017  22.7039987  11.8125006 153.5575017
  23.6609987  11.8125006 153.5575017  22.4639987  12.7395006 153.5575017
  28.7179987   7.2155006 146.3315017  29.6749987   7.2155006 146.3315017
  28.4779987   8.1425006 146.3315017  23.7079987   3.3655006 142.7495017
  24.6649987   3.3655006 142.7495017  23.4679987   4.2925006 142.7495017
  27.3469987   5.5795006 148.7355017  28.3039987   5.5795006 148.7355017
  27.1069987   6.5065006 148.7355017  27.9419987  11.7825006 140.4115017
  28.8989987  11.7825006 140.4115017  27.7019987  12.7095006 140.4115017
  35.0989987  10.9655006 149.2375017  36.0559987  10.9655006 149.2375017
  34.8589987  11.8925006 149.2375017  31.7959987   4.6245006 138.5665017
  32.7529987   4.6245006 138.5665017  31.5559987   5.5515006 138.5665017
  29.4239987  12.0295006 151.6745017  30.3809987  12.0295006 151.6745017
  29.1839987  12.9565006 151.6745017  32.5029987   6.4905006 140.2835017
  33.4599987   6.4905006 140.2835017  32.2629987   7.4175006 140.2835017
  23.0169987  11.1435006 146.2335017  23.9739987  11.1435006 146.2335017
  22.7769987  12.0705006 146.2335017  30.0349987  13.2405006 139.4575017
  30.9919987  13.2405006 139.4575017  29.7949987  14.1675006 139.4575017
  20.0029987   9.5615006 151.5775017  20.9599987   9.5615006 151.5775017
  19.7629987  10.4885006 151.5775017  27.0439987   9.1295006 153.6965017
  28.0009987   9.1295006 153.6965017  26.8039987  10.0565006 153.6965017
  31.7119987  14.4665006 151.6095017  32.6689987  14.4665006 151.6095017
  31.4719987  15.3935006 151.6095017  37.4129987   6.6775006 140.0515017
  38.3699987   6.6775006 140.0515017  37.1729987   7.6045006 140.0515017
  37.3849987  12.5155006 152.8335017  38.3419987  12.5155006 152.8335017
  37.1449987  13.4425006 152.8335017  35.7229987  15.4745006 140.4285017
  36.6799987  15.4745006 140.4285017  35.4829987  16.4015006 140.4285017
  32.8839987  10.3005006 147.5105017  33.8409987  10.3005006 147.5105017
  32.6439987  11.2275006 147.5105017  25.4029987  14.6405006 143.6225017
  26.3599987  14.6405006 143.6225017  25.1629987  15.5675006 143.6225017
  21.1769987   9.4755006 138.1645017  22.1339987   9.4755006 138.1645017
  20.9369987  10.4025006 138.1645017  26.7259987  12.3515006 142.8715017
  27.6829987  12.3515006 142.8715017  26.4859987  13.2785006 142.8715017
  27.2909987  16.4665006 149.5325017  28.2479987  16.4665006 149.5325017
  27.0509987  17.3935006 149.5325017  25.5089987  17.2935006 142.6955017
  26.4659987  17.2935006 142.6955017  25.2689987  18.2205006 142.6955017
  30.8699987  12.5185006 149.1985017  31.8269987  12.5185006 149.1985017
  30.6299987  13.4455006 149.1985017  33.0899987  13.5245006 138.2625017
  34.0469987  13.5245006 138.2625017  32.8499987  14.4515006 138.2625017
  33.5989987  17.0875006 151.6795017  34.5559987  17.0875006 151.6795017
  33.3589987  18.0145006 151.6795017  37.6139987  17.9175006 138.5385017
  38.5709987  17.9175006 138.5385017  37.3739987  18.8445006 138.5385017
  21.6899987   4.3015006 151.0795017  22.6469987   4.3015006 151.0795017
  21.4499987   5.2285006 151.0795017  33.9319987  12.1765006 140.5045017
  34.8889987  12.1765006 140.5045017  33.6919987  13.1035006 140.5045017
  21.3019987  16.1195006 149.4835017  22.2589987  16.1195006 149.4835017
  21.0619987  17.0465006 149.4835017  27.3489987  14.5945006 136.7885017
  28.3059987  14.5945006 136.7885017  27.1089987  15.5215006 136.7885017
  26.0699987  14.1565006 139.1825017  27.0269987  14.1565006 139.1825017
  25.8299987  15.0835006 139.1825017  22.5619987  11.4105006 139.6415017
  23.5189987  11.4105006 139.6415017  22.3219987  12.3375006 139.6415017
  30.4099987   4.0815006 149.9865017  31.3669987   4.0815006 149.9865017
  30.1699987   5.0085006 149.9865017  31.1679987   3.6775006 141.0845017
  32.1249987   3.6775006 141.0845017  30.9279987   4.6045006 141.0845017
  28.8499987  15.8265006 139.9535017  29.8069987  15.8265006 139.9535017
  28.6099987  16.7535006 139.9535017  28.4009987   5.3975006 141.9025017
  29.3579987   5.3975006 141.9025017  28.1609987   6.3245006 141.9025017
  28.9389987   6.4285006 151.0935017  29.8959987   6.4285006 151.0935017
  28.6989987   7.3555006 151.0935017  29.2619987   2.4775006 142.8235017
  30.2189987   2.4775006 142.8235017  29.0219987   3.4045006 142.8235017
  26.2229987  16.8605006 139.9265017  27.1799987  16.8605006 139.9265017
  25.9829987  17.7875006 139.9265017  24.8769987   3.5685006 139.5395017
  25.8339987   3.5685006 139.5395017  24.6369987   4.4955006 139.5395017
  35.1309987   4.3265006 151.9325017  36.0879987   4.3265006 151.9325017
  34.8909987   5.2535006 151.9325017  33.7319987   8.0935006 145.9725017
  34.6889987   8.0935006 145.9725017  33.4919987   9.0205006 145.9725017
  23.1579987  13.9855006 138.5795017  24.1149987  13.9855006 138.5795017
  22.9179987  14.9125006 138.5795017  21.5029987   6.6755006 137.7045017
  22.4599987   6.6755006 137.7045017  21.2629987   7.6025006 137.7045017
  34.7979987  17.3445006 147.6365017  35.7549987  17.3445006 147.6365017
  34.5579987  18.2715006 147.6365017  22.0689987   1.6735006 146.2905017
  23.0259987   1.6735006 146.2905017  21.8289987   2.6005006 146.2905017
  21.2469987  15.3855006 142.5495017  22.2039987  15.3855006 142.5495017
  21.0069987  16.3125006 142.5495017  20.4709987  18.0345006 153.8635017
  21.4279987  18.0345006 153.8635017  20.2309987  18.9615006 153.8635017
  25.1229987  16.9525006 155.4805017  26.0799987  16.9525006 155.4805017
  24.8829987  17.8795006 155.4805017  29.4329987  16.0845006 137.3685017
  30.3899987  16.0845006 137.3685017  29.1929987  17.0115006 137.3685017
  31.6709987  15.3395006 154.2125017  32.6279987  15.3395006 154.2125017
  31.4309987  16.2665006 154.2125017  33.6259987  16.1775006 137.2615017
  34.5829987  16.1775006 137.2615017  33.3859987  17.1045006 137.2615017
  20.3999987  11.8295006 154.8475017  21.3569987  11.8295006 154.8475017
  20.1599987  12.7565006 154.8475017  24.8819987  12.1875006 137.0455017
  25.8389987  12.1875006 137.0455017  24.6419987  13.1145006 137.0455017
  27.0869987  11.8025006 154.2475017  28.0439987  11.8025006 154.2475017
  26.8469987  12.7295006 154.2475017  30.0729987  13.2335006 136.6615017
  31.0299987  13.2335006 136.6615017  29.8329987  14.1605006 136.6615017
  32.7969987  11.6705006 151.6475017  33.7539987  11.6705006 151.6475017
  32.5569987  12.5975006 151.6475017  21.2659987   9.0365006 154.2195017
  22.2229987   9.0365006 154.2195017  21.0259987   9.9635006 154.2195017
  25.9199987  10.1625006 139.2655017  26.8769987  10.1625006 139.2655017
  25.6799987  11.0895006 139.2655017  25.1839987   7.9925006 151.5955017
  26.1409987   7.9925006 151.5955017  24.9439987   8.9195006 151.5955017
  27.0329987   8.0755006 137.7885017  27.9899987   8.0755006 137.7885017
  26.7929987   9.0025006 137.7885017  30.2509987  10.5435006 154.9195017
  31.2079987  10.5435006 154.9195017  30.0109987  11.4705006 154.9195017
  36.4239987  10.9295006 137.2885017  37.3809987  10.9295006 137.2885017
  36.1839987  11.8565006 137.2885017  25.5789987   5.3675006 152.6675017
  26.5359987   5.3675006 152.6675017  25.3389987   6.2945006 152.6675017
  25.9959987   3.7415006 150.2065017  26.9529987   3.7415006 150.2065017
  25.7559987   4.6685006 150.2065017  27.5449987   9.2205006 150.4595017
  28.5019987   9.2205006 150.4595017  27.3049987  10.1475006 150.4595017
  31.9359987   6.9975006 155.4295017  32.8929987   6.9975006 155.4295017
  31.6959987   7.9245006 155.4295017  33.2619987   9.7865006 153.5695017
  34.2189987   9.7865006 153.5695017  33.0219987  10.7135006 153.5695017
  24.0459987   6.6195006 154.5865017  25.0029987   6.6195006 154.5865017
  23.8059987   7.5465006 154.5865017  26.8589987   1.2295006 150.4815017
  27.8159987   1.2295006 150.4815017  26.6189987   2.1565006 150.4815017
  28.0449987   5.5145006 154.2055017  29.0019987   5.5145006 154.2055017
  27.8049987   6.4415006 154.2055017  30.7659987   4.6865006 153.2995017
  31.7229987   4.6865006 153.2995017  30.5259987   5.6135006 153.2995017
  32.3949987   3.3055006 155.2355017  33.3519987   3.3055006 155.2355017
  32.1549987   4.2325006 155.2355017  22.1399987   4.5265006 154.3285017
  23.0969987   4.5265006 154.3285017  21.8999987   5.4535006 154.3285017
  27.5709987 108.5285006 153.3535017  28.5279987 108.5285006 153.3535017
  27.3309987 109.4555006 153.3535017  27.3419987   2.2535006 155.4425017
  28.2989987   2.2535006 155.4425017  27.1019987   3.1805006 155.4425017
  26.8419987  19.1085006 138.5745017  27.7989987  19.1085006 138.5745017
  26.6019987  20.0355006 138.5745017  20.3949987  13.6305006 138.1265017
  21.3519987  13.6305006 138.1265017  20.1549987  14.5575006 138.1265017
  19.1649987  19.0775006 143.0415017  20.1219987  19.0775006 143.0415017
  18.9249987  20.0045006 143.0415017  19.9839987  17.1915006 144.8865017
  20.9409987  17.1915006 144.8865017  19.7439987  18.1185006 144.8865017
  37.5139987  17.9945006 147.8425017  38.4709987  17.9945006 147.8425017
  37.2739987  18.9215006 147.8425017  37.0709987  17.5785006 150.8195017
  38.0279987  17.5785006 150.8195017  36.8309987  18.5055006 150.8195017
  35.5379987  13.3265006 155.4195017  36.4949987  13.3265006 155.4195017
  35.2979987  14.2535006 155.4195017  36.8519987  11.6365006 140.8935017
  37.8089987  11.6365006 140.8935017  36.6119987  12.5635006 140.8935017
  37.2179987   9.7095006 142.7595017  38.1749987   9.7095006 142.7595017
  36.9779987  10.6365006 142.7595017  36.9769987  12.4245006 147.7485017
  37.9339987  12.4245006 147.7485017  36.7369987  13.3515006 147.7485017
  35.5239987  15.3245006 150.0305017  36.4809987  15.3245006 150.0305017
  35.2839987  16.2515006 150.0305017  37.5309987   9.5205006 139.1835017
  38.4879987   9.5205006 139.1835017  37.2909987  10.4475006 139.1835017
  35.9829987   6.7085006 137.9065017  36.9399987   6.7085006 137.9065017
  35.7429987   7.6355006 137.9065017  35.0319987   8.1895006 143.3235017
  35.9889987   8.1895006 143.3235017  34.7919987   9.1165006 143.3235017
  20.1699987  10.5375006 147.0365017  21.1269987  10.5375006 147.0365017
  19.9299987  11.4645006 147.0365017  35.8809987  10.1595006 153.0015017
  36.8379987  10.1595006 153.0015017  35.6409987  11.0865006 153.0015017
  37.3929987   8.0495006 153.6665017  38.3499987   8.0495006 153.6665017
  37.1529987   8.9765006 153.6665017  35.0429987   4.3115006 136.9965017
  35.9999987   4.3115006 136.9965017  34.8029987   5.2385006 136.9965017
  34.6979987   5.7855006 141.7875017  35.6549987   5.7855006 141.7875017
  34.4579987   6.7125006 141.7875017  35.3349987   6.3265006 147.2185017
  36.2919987   6.3265006 147.2185017  35.0949987   7.2535006 147.2185017
  35.3989987   7.0545006 150.0015017  36.3559987   7.0545006 150.0015017
  35.1589987   7.9815006 150.0015017  19.6569987   5.5775006 153.5225017
  20.6139987   5.5775006 153.5225017  19.4169987   6.5045006 153.5225017
  37.6089987   1.1865006 155.3035017  38.5659987   1.1865006 155.3035017
  37.3689987   2.1135006 155.3035017  35.3489987   3.0705006 141.8235017
  36.3059987   3.0705006 141.8235017  35.1089987   3.9975006 141.8235017
  20.8279987   3.8945006 146.3835017  21.7849987   3.8945006 146.3835017
  20.5879987   4.8215006 146.3835017  19.1469987   6.8665006 147.4415017
  20.1039987   6.8665006 147.4415017  18.9069987   7.7935006 147.4415017
  37.1939987   3.2095006 153.7015017  38.1509987   3.2095006 153.7015017
  36.9539987   4.1365006 153.7015017  37.2879987   3.0675006 138.5925017
  38.2449987   3.0675006 138.5925017  37.0479987   3.9945006 138.5925017
  19.4939987   3.1005006 141.5295017  20.4509987   3.1005006 141.5295017
  19.2539987   4.0275006 141.5295017  34.2429987  18.0715006 143.4485017
  35.1999987  18.0715006 143.4485017  34.0029987  18.9985006 143.4485017
  19.4689987   1.8125006 149.8095017  20.4259987   1.8125006 149.8095017
  19.2289987   2.7395006 149.8095017  21.6819987  14.9825006 153.9665017
  22.6389987  14.9825006 153.9665017  21.4419987  15.9095006 153.9665017
  24.5919987  15.9795006 150.2415017  25.5489987  15.9795006 150.2415017
  24.3519987  16.9065006 150.2415017  28.9119987  17.4035006 153.1555017
  29.8689987  17.4035006 153.1555017  28.6719987  18.3305006 153.1555017
  31.2139987  18.6705006 152.4495017  32.1709987  18.6705006 152.4495017
  30.9739987  19.5975006 152.4495017  36.2969987   1.4255006 151.5015017
  37.2539987   1.4255006 151.5015017  36.0569987   2.3525006 151.5015017
  22.0189987  19.2185006 150.2475017  22.9759987  19.2185006 150.2475017
  21.7789987  20.1455006 150.2475017  24.4899987  18.8085006 149.3115017
  25.4469987  18.8085006 149.3115017  24.2499987  19.7355006 149.3115017
  29.1919987  18.7155006 148.4805017  30.1489987  18.7155006 148.4805017
  28.9519987  19.6425006 148.4805017  31.4979987  17.5465006 149.4785017
  32.4549987  17.5465006 149.4785017  31.2579987  18.4735006 149.4785017
  34.0979987  19.1135006 149.7535017  35.0549987  19.1135006 149.7535017
  33.8579987  20.0405006 149.7535017  21.4609987  17.8865006 147.1755017
  22.4179987  17.8865006 147.1755017  21.2209987  18.8135006 147.1755017
  23.5479987  16.5805006 145.8335017  24.5049987  16.5805006 145.8335017
  23.3079987  17.5075006 145.8335017  26.1389987  17.0655006 146.6955017
  27.0959987  17.0655006 146.6955017  25.8989987  17.9925006 146.6955017
  29.5999987   2.7455006 145.8435017  30.5569987   2.7455006 145.8435017
  29.3599987   3.6725006 145.8435017  34.8199987   1.0805006 146.1005017
  35.7769987   1.0805006 146.1005017  34.5799987   2.0075006 146.1005017
  36.4579987   1.9915006 144.2375017  37.4149987   1.9915006 144.2375017
  36.2179987   2.9185006 144.2375017  21.9249987   1.3245006 143.6815017
  22.8819987   1.3245006 143.6815017  21.6849987   2.2515006 143.6815017
  21.0189987   1.5005006 139.8055017  21.9759987   1.5005006 139.8055017
  20.7789987   2.4275006 139.8055017  26.4879987   1.3035006 143.4665017
  27.4449987   1.3035006 143.4665017  26.2479987   2.2305006 143.4665017
  32.0769987   1.3265006 145.1155017  33.0339987   1.3265006 145.1155017
  31.8369987   2.2535006 145.1155017  33.4309987   1.3575006 140.8465017
  34.3879987   1.3575006 140.8465017  33.1909987   2.2845006 140.8465017
  20.7039987  17.0705006 140.3715017  21.6609987  17.0705006 140.3715017
  20.4639987  17.9975006 140.3715017  22.5869987   3.0575006 137.9305017
  23.5439987   3.0575006 137.9305017  22.3469987   3.9845006 137.9305017
  27.6019987   3.3075006 140.3395017  28.5589987   3.3075006 140.3395017
  27.3619987   4.2345006 140.3395017  29.5149987  18.4095006 138.7485017
  30.4719987  18.4095006 138.7485017  29.2749987  19.3365006 138.7485017
  36.2529987  17.8745006 141.4825017  37.2099987  17.8745006 141.4825017
  36.0129987  18.8015006 141.4825017  21.8459987   1.9115006 153.2035017
  22.8029987   1.9115006 153.2035017  21.6059987   2.8385006 153.2035017
  23.8689987   1.2435006 154.7495017  24.8259987   1.2435006 154.7495017
  23.6289987   2.1705006 154.7495017  22.6169987  18.0995006 137.4755017
  23.5739987  18.0995006 137.4755017  22.3769987  19.0265006 137.4755017
  32.3499987 108.3825006 154.7865017  33.3069987 108.3825006 154.7865017
  32.1099987 109.3095006 154.7865017  35.4029987  16.2965006 153.3745017
  36.3599987  16.2965006 153.3745017  35.1629987  17.2235006 153.3745017
  49.9029987  10.4905006 143.5905017  50.8599987  10.4905006 143.5905017
  49.6629987  11.4175006 143.5905017  48.7749987   9.7485006 147.0615017
  49.7319987   9.7485006 147.0615017  48.5349987  10.6755006 147.0615017
  41.1439987   9.4015006 148.6025017  42.1009987   9.4015006 148.6025017
  40.9039987  10.3285006 148.6025017  52.4829987  12.6885006 145.3315017
  53.4399987  12.6885006 145.3315017  52.2429987  13.6155006 145.3315017
  42.0679987  13.8525006 147.1305017  43.0249987  13.8525006 147.1305017
  41.8279987  14.7795006 147.1305017  38.7149987   7.4345006 142.5925017
  39.6719987   7.4345006 142.5925017  38.4749987   8.3615006 142.5925017
  39.4069987   9.6515006 144.7225017  40.3639987   9.6515006 144.7225017
  39.1669987  10.5785006 144.7225017  49.5949987  17.8375006 145.5685017
  50.5519987  17.8375006 145.5685017  49.3549987  18.7645006 145.5685017
  47.1589987  12.1545006 147.4985017  48.1159987  12.1545006 147.4985017
  46.9189987  13.0815006 147.4985017  55.7919987   3.7595006 148.2585017
  56.7489987   3.7595006 148.2585017  55.5519987   4.6865006 148.2585017
  50.3529987   6.6065006 147.8165017  51.3099987   6.6065006 147.8165017
  50.1129987   7.5335006 147.8165017  43.4679987   4.6895006 145.0625017
  44.4249987   4.6895006 145.0625017  43.2279987   5.6165006 145.0625017
  51.1849987   4.7815006 143.4295017  52.1419987   4.7815006 143.4295017
  50.9449987   5.7085006 143.4295017  40.0739987   7.1035006 145.7975017
  41.0309987   7.1035006 145.7975017  39.8339987   8.0305006 145.7975017
  45.2329987   8.6595006 145.0815017  46.1899987   8.6595006 145.0815017
  44.9929987   9.5865006 145.0815017  56.2219987   5.2195006 150.5205017
  57.1789987   5.2195006 150.5205017  55.9819987   6.1465006 150.5205017
  42.2559987   3.5585006 149.0565017  43.2129987   3.5585006 149.0565017
  42.0159987   4.4855006 149.0565017  49.6089987  13.0835006 142.6425017
  50.5659987  13.0835006 142.6425017  49.3689987  14.0105006 142.6425017
  44.8619987  11.2395006 149.3555017  45.8189987  11.2395006 149.3555017
  44.6219987  12.1665006 149.3555017  52.9789987   4.1035006 145.4085017
  53.9359987   4.1035006 145.4085017  52.7389987   5.0305006 145.4085017
  41.8959987   5.4825006 147.1025017  42.8529987   5.4825006 147.1025017
  41.6559987   6.4095006 147.1025017  43.3009987  13.2345006 150.1625017
  44.2579987  13.2345006 150.1625017  43.0609987  14.1615006 150.1625017
  39.3899987  12.8615006 140.9915017  40.3469987  12.8615006 140.9915017
  39.1499987  13.7885006 140.9915017  53.0059987  14.5215006 147.7015017
  53.9629987  14.5215006 147.7015017  52.7659987  15.4485006 147.7015017
  53.3499987   2.8075006 149.1615017  54.3069987   2.8075006 149.1615017
  53.1099987   3.7345006 149.1615017  46.2839987   0.9865006 146.2765017
  47.2409987   0.9865006 146.2765017  46.0439987   1.9135006 146.2765017
  51.2559987  16.3075006 144.3025017  52.2129987  16.3075006 144.3025017
  51.0159987  17.2345006 144.3025017  52.4559987  14.2305006 142.8245017
  53.4129987  14.2305006 142.8245017  52.2159987  15.1575006 142.8245017
  54.0959987  12.8155006 151.3075017  55.0529987  12.8155006 151.3075017
  53.8559987  13.7425006 151.3075017  48.5949987   9.7545006 141.0885017
  49.5519987   9.7545006 141.0885017  48.3549987  10.6815006 141.0885017
  48.6469987   8.2845006 138.3355017  49.6039987   8.2845006 138.3355017
  48.4069987   9.2115006 138.3355017  55.9719987   9.1305006 149.3605017
  56.9289987   9.1305006 149.3605017  55.7319987  10.0575006 149.3605017
  52.0169987   9.9455006 142.0145017  52.9739987   9.9455006 142.0145017
  51.7769987  10.8725006 142.0145017  51.9499987   8.0975006 151.1055017
  52.9069987   8.0975006 151.1055017  51.7099987   9.0245006 151.1055017
  43.6639987  10.6125006 143.8905017  44.6209987  10.6125006 143.8905017
  43.4239987  11.5395006 143.8905017  44.9799987  14.0085006 146.5725017
  45.9369987  14.0085006 146.5725017  44.7399987  14.9355006 146.5725017
  43.9869987   9.3285006 147.5675017  44.9439987   9.3285006 147.5675017
  43.7469987  10.2555006 147.5675017  50.3629987  14.8995006 148.2655017
  51.3199987  14.8995006 148.2655017  50.1229987  15.8265006 148.2655017
  44.9169987  13.7605006 152.2605017  45.8739987  13.7605006 152.2605017
  44.6769987  14.6875006 152.2605017  50.8769987   9.1085006 139.6735017
  51.8339987   9.1085006 139.6735017  50.6369987  10.0355006 139.6735017
  41.8529987   9.9285006 151.4375017  42.8099987   9.9285006 151.4375017
  41.6129987  10.8555006 151.4375017  48.5629987  15.8325006 143.1385017
  49.5199987  15.8325006 143.1385017  48.3229987  16.7595006 143.1385017
  43.1569987  15.8085006 153.0315017  44.1139987  15.8085006 153.0315017
  42.9169987  16.7355006 153.0315017  54.6579987   0.9055006 139.5485017
  55.6149987   0.9055006 139.5485017  54.4179987   1.8325006 139.5485017
  42.6119987   9.6255006 141.5255017  43.5689987   9.6255006 141.5255017
  42.3719987  10.5525006 141.5255017  55.7459987  15.1875006 137.9555017
  56.7029987  15.1875006 137.9555017  55.5059987  16.1145006 137.9555017
  38.7089987  12.0425006 150.3895017  39.6659987  12.0425006 150.3895017
  38.4689987  12.9695006 150.3895017  38.4649987  14.7785006 147.1935017
  39.4219987  14.7785006 147.1935017  38.2249987  15.7055006 147.1935017
  56.7009987  15.4795006 152.8805017  57.6579987  15.4795006 152.8805017
  56.4609987  16.4065006 152.8805017  47.6579987  15.0235006 151.7445017
  48.6149987  15.0235006 151.7445017  47.4179987  15.9505006 151.7445017
  48.0689987  18.7705006 141.5195017  49.0259987  18.7705006 141.5195017
  47.8289987  19.6975006 141.5195017  41.7339987  17.6375006 143.3605017
  42.6909987  17.6375006 143.3605017  41.4939987  18.5645006 143.3605017
  51.0949987  17.9975006 138.5205017  52.0519987  17.9975006 138.5205017
  50.8549987  18.9245006 138.5205017  50.8379987  17.9025006 141.3035017
  51.7949987  17.9025006 141.3035017  50.5979987  18.8295006 141.3035017
  53.8459987   6.9605006 153.3635017  54.8029987   6.9605006 153.3635017
  53.6059987   7.8875006 153.3635017  40.9809987  13.3595006 151.3585017
  41.9379987  13.3595006 151.3585017  40.7409987  14.2865006 151.3585017
  43.7579987   1.8985006 147.2775017  44.7149987   1.8985006 147.2775017
  43.5179987   2.8255006 147.2775017  48.3269987   1.4205006 150.6585017
  49.2839987   1.4205006 150.6585017  48.0869987   2.3475006 150.6585017
  51.6229987   5.3145006 151.5915017  52.5799987   5.3145006 151.5915017
  51.3829987   6.2415006 151.5915017  52.4949987  10.2225006 137.8345017
  53.4519987  10.2225006 137.8345017  52.2549987  11.1495006 137.8345017
  47.9439987   4.0355006 137.9985017  48.9009987   4.0355006 137.9985017
  47.7039987   4.9625006 137.9985017  43.7199987   6.7895006 148.5145017
  44.6769987   6.7895006 148.5145017  43.4799987   7.7165006 148.5145017
  43.7089987   6.9675006 143.3915017  44.6659987   6.9675006 143.3915017
  43.4689987   7.8945006 143.3915017  49.2319987   7.4145006 142.1605017
  50.1889987   7.4145006 142.1605017  48.9919987   8.3415006 142.1605017
  48.2979987   7.6585006 153.6995017  49.2549987   7.6585006 153.6995017
  48.0579987   8.5855006 153.6995017  50.2639987   6.9005006 145.0325017
  51.2209987   6.9005006 145.0325017  50.0239987   7.8275006 145.0325017
  41.3989987   7.0725006 150.2635017  42.3559987   7.0725006 150.2635017
  41.1589987   7.9995006 150.2635017  44.8259987   4.4205006 137.2605017
  45.7829987   4.4205006 137.2605017  44.5859987   5.3475006 137.2605017
  38.0309987   4.2085006 144.2005017  38.9879987   4.2085006 144.2005017
  37.7909987   5.1355006 144.2005017  39.3169987   4.9175006 139.5805017
  40.2739987   4.9175006 139.5805017  39.0769987   5.8445006 139.5805017
  49.5299987   8.5375006 149.6065017  50.4869987   8.5375006 149.6065017
  49.2899987   9.4645006 149.6065017  46.2849987   4.4495006 144.4365017
  47.2419987   4.4495006 144.4365017  46.0449987   5.3765006 144.4365017
  41.0959987   6.0425006 143.2995017  42.0529987   6.0425006 143.2995017
  40.8559987   6.9695006 143.2995017  44.7359987   6.0855006 140.9485017
  45.6929987   6.0855006 140.9485017  44.4959987   7.0125006 140.9485017
  50.7159987   3.6775006 147.6435017  51.6729987   3.6775006 147.6435017
  50.4759987   4.6045006 147.6435017  43.3929987   7.2805006 138.4975017
  44.3499987   7.2805006 138.4975017  43.1529987   8.2075006 138.4975017
  53.8989987  19.3475006 153.9965017  54.8559987  19.3475006 153.9965017
  53.6589987  20.2745006 153.9965017  41.5609987  11.8155006 153.5615017
  42.5179987  11.8155006 153.5615017  41.3209987  12.7425006 153.5615017
  47.5619987   7.2225006 146.3255017  48.5189987   7.2225006 146.3255017
  47.3219987   8.1495006 146.3255017  42.5629987   3.3705006 142.7505017
  43.5199987   3.3705006 142.7505017  42.3229987   4.2975006 142.7505017
  46.2099987   5.7305006 148.5435017  47.1669987   5.7305006 148.5435017
  45.9699987   6.6575006 148.5435017  46.7499987  11.8545006 140.4395017
  47.7069987  11.8545006 140.4395017  46.5099987  12.7815006 140.4395017
  53.9549987  10.9665006 149.2385017  54.9119987  10.9665006 149.2385017
  53.7149987  11.8935006 149.2385017  50.6519987   4.6245006 138.5655017
  51.6089987   4.6245006 138.5655017  50.4119987   5.5515006 138.5655017
  48.2779987  12.0315006 151.6735017  49.2349987  12.0315006 151.6735017
  48.0379987  12.9585006 151.6735017  51.3579987   6.4915006 140.2845017
  52.3149987   6.4915006 140.2845017  51.1179987   7.4185006 140.2845017
  41.8949987  11.1585006 146.2315017  42.8519987  11.1585006 146.2315017
  41.6549987  12.0855006 146.2315017  48.8829987  13.2375006 139.4655017
  49.8399987  13.2375006 139.4655017  48.6429987  14.1645006 139.4655017
  38.8889987   9.5775006 151.5095017  39.8459987   9.5775006 151.5095017
  38.6489987  10.5045006 151.5095017  45.9029987   9.1475006 153.7005017
  46.8599987   9.1475006 153.7005017  45.6629987  10.0745006 153.7005017
  50.5719987  14.4655006 151.6165017  51.5289987  14.4655006 151.6165017
  50.3319987  15.3925006 151.6165017  56.2689987   6.6775006 140.0515017
  57.2259987   6.6775006 140.0515017  56.0289987   7.6045006 140.0515017
  56.2399987  12.5175006 152.8365017  57.1969987  12.5175006 152.8365017
  55.9999987  13.4445006 152.8365017  54.5759987  15.4735006 140.4285017
  55.5329987  15.4735006 140.4285017  54.3359987  16.4005006 140.4285017
  51.7459987  10.3025006 147.5105017  52.7029987  10.3025006 147.5105017
  51.5059987  11.2295006 147.5105017  44.2919987  14.6055006 143.5475017
  45.2489987  14.6055006 143.5475017  44.0519987  15.5325006 143.5475017
  40.0399987   9.4705006 138.1515017  40.9969987   9.4705006 138.1515017
  39.7999987  10.3975006 138.1515017  45.6849987  12.3215006 143.0985017
  46.6419987  12.3215006 143.0985017  45.4449987  13.2485006 143.0985017
  46.1469987  16.4675006 149.5315017  47.1039987  16.4675006 149.5315017
  45.9069987  17.3945006 149.5315017  44.3719987  17.2815006 142.6885017
  45.3289987  17.2815006 142.6885017  44.1319987  18.2085006 142.6885017
  49.6899987  12.4935006 149.1795017  50.6469987  12.4935006 149.1795017
  49.4499987  13.4205006 149.1795017  51.9529987  13.5245006 138.2615017
  52.9099987  13.5245006 138.2615017  51.7129987  14.4515006 138.2615017
  52.4569987  17.0675006 151.6685017  53.4139987  17.0675006 151.6685017
  52.2169987  17.9945006 151.6685017  56.4699987  17.9175006 138.5385017
  57.4269987  17.9175006 138.5385017  56.2299987  18.8445006 138.5385017
  40.5419987   4.3095006 151.0825017  41.4989987   4.3095006 151.0825017
  40.3019987   5.2365006 151.0825017  52.7869987  12.1775006 140.5055017
  53.7439987  12.1775006 140.5055017  52.5469987  13.1045006 140.5055017
  40.1679987  16.1105006 149.4775017  41.1249987  16.1105006 149.4775017
  39.9279987  17.0375006 149.4775017  46.2159987  14.5905006 136.8035017
  47.1729987  14.5905006 136.8035017  45.9759987  15.5175006 136.8035017
  44.9359987  14.1635006 139.1505017  45.8929987  14.1635006 139.1505017
  44.6959987  15.0905006 139.1505017  41.4139987  11.4045006 139.6435017
  42.3709987  11.4045006 139.6435017  41.1739987  12.3315006 139.6435017
  49.4769987   3.9755006 149.8525017  50.4339987   3.9755006 149.8525017
  49.2369987   4.9025006 149.8525017  50.0199987   3.6815006 141.0815017
  50.9769987   3.6815006 141.0815017  49.7799987   4.6085006 141.0815017
  47.7809987  15.9445006 139.9295017  48.7379987  15.9445006 139.9295017
  47.5409987  16.8715006 139.9295017  47.2539987   5.4015006 141.8995017
  48.2109987   5.4015006 141.8995017  47.0139987   6.3285006 141.8995017
  48.2349987   6.8305006 151.0755017  49.1919987   6.8305006 151.0755017
  47.9949987   7.7575006 151.0755017  48.1149987   2.4805006 142.8235017
  49.0719987   2.4805006 142.8235017  47.8749987   3.4075006 142.8235017
  45.1159987  16.8345006 139.9525017  46.0729987  16.8345006 139.9525017
  44.8759987  17.7615006 139.9525017  43.7339987   3.5685006 139.5365017
  44.6909987   3.5685006 139.5365017  43.4939987   4.4955006 139.5365017
  53.9909987   4.3315006 151.9345017  54.9479987   4.3315006 151.9345017
  53.7509987   5.2585006 151.9345017  52.5879987   8.0925006 145.9725017
  53.5449987   8.0925006 145.9725017  52.3479987   9.0195006 145.9725017
  42.0499987  13.9565006 138.6155017  43.0069987  13.9565006 138.6155017
  41.8099987  14.8835006 138.6155017  40.3549987   6.6735006 137.7135017
  41.3119987   6.6735006 137.7135017  40.1149987   7.6005006 137.7135017
  53.6539987  17.3405006 147.6355017  54.6109987  17.3405006 147.6355017
  53.4139987  18.2675006 147.6355017  40.9639987   1.6685006 146.2955017
  41.9209987   1.6685006 146.2955017  40.7239987   2.5955006 146.2955017
  40.1019987  15.3845006 142.5485017  41.0589987  15.3845006 142.5485017
  39.8619987  16.3115006 142.5485017  39.2819987  18.0275006 153.8955017
  40.2389987  18.0275006 153.8955017  39.0419987  18.9545006 153.8955017
  43.9669987  16.9185006 155.5155017  44.9239987  16.9185006 155.5155017
  43.7269987  17.8455006 155.5155017  48.2919987  16.0745006 137.3725017
  49.2489987  16.0745006 137.3725017  48.0519987  17.0015006 137.3725017
  50.5129987  15.3395006 154.2135017  51.4699987  15.3395006 154.2135017
  50.2729987  16.2665006 154.2135017  52.4819987  16.1775006 137.2605017
  53.4389987  16.1775006 137.2605017  52.2419987  17.1045006 137.2605017
  39.2459987  11.8245006 154.8525017  40.2029987  11.8245006 154.8525017
  39.0059987  12.7515006 154.8525017  43.7429987  12.1865006 137.0595017
  44.6999987  12.1865006 137.0595017  43.5029987  13.1135006 137.0595017
  45.9429987  11.8005006 154.2475017  46.8999987  11.8005006 154.2475017
  45.7029987  12.7275006 154.2475017  48.9109987  13.2285006 136.6595017
  49.8679987  13.2285006 136.6595017  48.6709987  14.1555006 136.6595017
  51.6479987  11.6745006 151.6365017  52.6049987  11.6745006 151.6365017
  51.4079987  12.6015006 151.6365017  40.1419987   9.0435006 154.2345017
  41.0989987   9.0435006 154.2345017  39.9019987   9.9705006 154.2345017
  44.7949987  10.1765006 139.2875017  45.7519987  10.1765006 139.2875017
  44.5549987  11.1035006 139.2875017  44.0419987   8.0055006 151.6065017
  44.9989987   8.0055006 151.6065017  43.8019987   8.9325006 151.6065017
  45.8919987   8.0785006 137.7995017  46.8489987   8.0785006 137.7995017
  45.6519987   9.0055006 137.7995017  49.1069987  10.5415006 154.9185017
  50.0639987  10.5415006 154.9185017  48.8669987  11.4685006 154.9185017
  55.2809987  10.9305006 137.2885017  56.2379987  10.9305006 137.2885017
  55.0409987  11.8575006 137.2885017  44.3549987   5.3815006 152.6705017
  45.3119987   5.3815006 152.6705017  44.1149987   6.3085006 152.6705017
  44.5959987   3.4935006 149.9815017  45.5529987   3.4935006 149.9815017
  44.3559987   4.4205006 149.9815017  46.3879987   9.2195006 150.4485017
  47.3449987   9.2195006 150.4485017  46.1479987  10.1465006 150.4485017
  50.7949987   6.9965006 155.4395017  51.7519987   6.9965006 155.4395017
  50.5549987   7.9235006 155.4395017  52.1359987   9.7975006 153.5815017
  53.0929987   9.7975006 153.5815017  51.8959987  10.7245006 153.5815017
  42.8899987   6.6265006 154.5985017  43.8469987   6.6265006 154.5985017
  42.6499987   7.5535006 154.5985017  45.7039987   1.2835006 150.6485017
  46.6609987   1.2835006 150.6485017  45.4639987   2.2105006 150.6485017
  46.8929987   5.5495006 154.2315017  47.8499987   5.5495006 154.2315017
  46.6529987   6.4765006 154.2315017  49.6289987   4.7045006 153.3205017
  50.5859987   4.7045006 153.3205017  49.3889987   5.6315006 153.3205017
  51.2509987   3.3065006 155.2345017  52.2079987   3.3065006 155.2345017
  51.0109987   4.2335006 155.2345017  40.9969987   4.5245006 154.3265017
  41.9539987   4.5245006 154.3265017  40.7569987   5.4515006 154.3265017
  46.4119987 108.5135006 153.3685017  47.3689987 108.5135006 153.3685017
  46.1719987 109.4405006 153.3685017  46.1809987   2.2365006 155.4615017
  47.1379987   2.2365006 155.4615017  45.9409987   3.1635006 155.4615017
  45.7029987  19.0855006 138.5775017  46.6599987  19.0855006 138.5775017
  45.4629987  20.0125006 138.5775017  39.2529987  13.6325006 138.1265017
  40.2099987  13.6325006 138.1265017  39.0129987  14.5595006 138.1265017
  38.0119987  19.0755006 143.0325017  38.9689987  19.0755006 143.0325017
  37.7719987  20.0025006 143.0325017  38.8399987  17.1935006 144.8835017
  39.7969987  17.1935006 144.8835017  38.5999987  18.1205006 144.8835017
  56.3739987  17.9905006 147.8355017  57.3309987  17.9905006 147.8355017
  56.1339987  18.9175006 147.8355017  55.9499987  17.5885006 150.7785017
  56.9069987  17.5885006 150.7785017  55.7099987  18.5155006 150.7785017
  54.3949987  13.3195006 155.4345017  55.3519987  13.3195006 155.4345017
  54.1549987  14.2465006 155.4345017  55.7079987  11.6365006 140.8935017
  56.6649987  11.6365006 140.8935017  55.4679987  12.5635006 140.8935017
  56.0729987   9.7095006 142.7585017  57.0299987   9.7095006 142.7585017
  55.8329987  10.6365006 142.7585017  55.8309987  12.4175006 147.7405017
  56.7879987  12.4175006 147.7405017  55.5909987  13.3445006 147.7405017
  54.3779987  15.3145006 150.0215017  55.3349987  15.3145006 150.0215017
  54.1379987  16.2415006 150.0215017  56.3869987   9.5205006 139.1835017
  57.3439987   9.5205006 139.1835017  56.1469987  10.4475006 139.1835017
  54.8399987   6.7085006 137.9065017  55.7969987   6.7085006 137.9065017
  54.5999987   7.6355006 137.9065017  53.8879987   8.1895006 143.3225017
  54.8449987   8.1895006 143.3225017  53.6479987   9.1165006 143.3225017
  38.8939987  10.2705006 147.3765017  39.8509987  10.2705006 147.3765017
  38.6539987  11.1975006 147.3765017  54.7399987  10.1585006 152.9995017
  55.6969987  10.1585006 152.9995017  54.4999987  11.0855006 152.9995017
  56.2489987   8.0495006 153.6655017  57.2059987   8.0495006 153.6655017
  56.0089987   8.9765006 153.6655017  53.8989987   4.3135006 136.9975017
  54.8559987   4.3135006 136.9975017  53.6589987   5.2405006 136.9975017
  53.5539987   5.7855006 141.7875017  54.5109987   5.7855006 141.7875017
  53.3139987   6.7125006 141.7875017  54.2019987   6.3295006 147.2135017
  55.1589987   6.3295006 147.2135017  53.9619987   7.2565006 147.2135017
  54.2559987   7.0545006 150.0065017  55.2129987   7.0545006 150.0065017
  54.0159987   7.9815006 150.0065017  38.5129987   5.5765006 153.5205017
  39.4699987   5.5765006 153.5205017  38.2729987   6.5035006 153.5205017
  56.4639987   1.1855006 155.3025017  57.4209987   1.1855006 155.3025017
  56.2239987   2.1125006 155.3025017  54.2029987   3.0715006 141.8235017
  55.1599987   3.0715006 141.8235017  53.9629987   3.9985006 141.8235017
  39.6869987   3.8945006 146.3815017  40.6439987   3.8945006 146.3815017
  39.4469987   4.8215006 146.3815017  37.9999987   6.8525006 147.4325017
  38.9569987   6.8525006 147.4325017  37.7599987   7.7795006 147.4325017
  56.0499987   3.2095006 153.7015017  57.0069987   3.2095006 153.7015017
  55.8099987   4.1365006 153.7015017  56.1439987   3.0675006 138.5925017
  57.1009987   3.0675006 138.5925017  55.9039987   3.9945006 138.5925017
  38.3499987   3.1005006 141.5285017  39.3069987   3.1005006 141.5285017
  38.1099987   4.0275006 141.5285017  53.1009987  18.0705006 143.4475017
  54.0579987  18.0705006 143.4475017  52.8609987  18.9975006 143.4475017
  38.3229987   1.8215006 149.8095017  39.2799987   1.8215006 149.8095017
  38.0829987   2.7485006 149.8095017  40.5449987  15.0075006 153.9835017
  41.5019987  15.0075006 153.9835017  40.3049987  15.9345006 153.9835017
  43.4489987  15.9785006 150.2435017  44.4059987  15.9785006 150.2435017
  43.2089987  16.9055006 150.2435017  47.7689987  17.4035006 153.1565017
  48.7259987  17.4035006 153.1565017  47.5289987  18.3305006 153.1565017
  50.0669987  18.6725006 152.4455017  51.0239987  18.6725006 152.4455017
  49.8269987  19.5995006 152.4455017  55.1529987   1.4255006 151.5015017
  56.1099987   1.4255006 151.5015017  54.9129987   2.3525006 151.5015017
  40.8749987  19.2255006 150.2495017  41.8319987  19.2255006 150.2495017
  40.6349987  20.1525006 150.2495017  43.3449987  18.8065006 149.3125017
  44.3019987  18.8065006 149.3125017  43.1049987  19.7335006 149.3125017
  48.0479987  18.7155006 148.4805017  49.0049987  18.7155006 148.4805017
  47.8079987  19.6425006 148.4805017  50.3539987  17.5465006 149.4785017
  51.3109987  17.5465006 149.4785017  50.1139987  18.4735006 149.4785017
  52.9329987  19.1125006 149.7365017  53.8899987  19.1125006 149.7365017
  52.6929987  20.0395006 149.7365017  40.3089987  17.8725006 147.1795017
  41.2659987  17.8725006 147.1795017  40.0689987  18.7995006 147.1795017
  42.4059987  16.5845006 145.8315017  43.3629987  16.5845006 145.8315017
  42.1659987  17.5115006 145.8315017  44.9939987  17.0655006 146.7035017
  45.9509987  17.0655006 146.7035017  44.7539987  17.9925006 146.7035017
  48.4599987   2.7385006 145.8385017  49.4169987   2.7385006 145.8385017
  48.2199987   3.6655006 145.8385017  53.6759987   1.0805006 146.1005017
  54.6329987   1.0805006 146.1005017  53.4359987   2.0075006 146.1005017
  55.3209987   1.9905006 144.2325017  56.2779987   1.9905006 144.2325017
  55.0809987   2.9175006 144.2325017  40.7789987   1.3255006 143.6835017
  41.7359987   1.3255006 143.6835017  40.5389987   2.2525006 143.6835017
  39.8749987   1.5005006 139.8055017  40.8319987   1.5005006 139.8055017
  39.6349987   2.4275006 139.8055017  45.3419987   1.3045006 143.4695017
  46.2989987   1.3045006 143.4695017  45.1019987   2.2315006 143.4695017
  50.9349987   1.3275006 145.1135017  51.8919987   1.3275006 145.1135017
  50.6949987   2.2545006 145.1135017  52.2869987   1.3575006 140.8465017
  53.2439987   1.3575006 140.8465017  52.0469987   2.2845006 140.8465017
  39.5609987  17.0685006 140.3705017  40.5179987  17.0685006 140.3705017
  39.3209987  17.9955006 140.3705017  41.4429987   3.0575006 137.9315017
  42.3999987   3.0575006 137.9315017  41.2029987   3.9845006 137.9315017
  46.4579987   3.3075006 140.3395017  47.4149987   3.3075006 140.3395017
  46.2179987   4.2345006 140.3395017  48.3739987  18.3995006 138.7505017
  49.3309987  18.3995006 138.7505017  48.1339987  19.3265006 138.7505017
  55.1079987  17.8745006 141.4825017  56.0649987  17.8745006 141.4825017
  54.8679987  18.8015006 141.4825017  40.6989987   1.9035006 153.2085017
  41.6559987   1.9035006 153.2085017  40.4589987   2.8305006 153.2085017
  42.7279987   1.2475006 154.7495017  43.6849987   1.2475006 154.7495017
  42.4879987   2.1745006 154.7495017  41.4719987  18.0985006 137.4755017
  42.4289987  18.0985006 137.4755017  41.2319987  19.0255006 137.4755017
  51.2039987 108.3815006 154.7835017  52.1609987 108.3815006 154.7835017
  50.9639987 109.3085006 154.7835017  54.3369987  16.6005006 153.5805017
  55.2939987  16.6005006 153.5805017  54.0969987  17.5275006 153.5805017
  68.7649987  10.4865006 143.5895017  69.7219987  10.4865006 143.5895017
  68.5249987  11.4135006 143.5895017  67.6329987   9.7485006 147.0615017
  68.5899987   9.7485006 147.0615017  67.3929987  10.6755006 147.0615017
  59.9959987   9.4025006 148.6095017  60.9529987   9.4025006 148.6095017
  59.7559987  10.3295006 148.6095017  71.3399987  12.6885006 145.3325017
  72.2969987  12.6885006 145.3325017  71.0999987  13.6155006 145.3325017
  60.9239987  13.8525006 147.1315017  61.8809987  13.8525006 147.1315017
  60.6839987  14.7795006 147.1315017  57.5689987   7.4335006 142.5925017
  58.5259987   7.4335006 142.5925017  57.3289987   8.3605006 142.5925017
  58.2629987   9.6535006 144.7225017  59.2199987   9.6535006 144.7225017
  58.0229987  10.5805006 144.7225017  68.4529987  17.8405006 145.5695017
  69.4099987  17.8405006 145.5695017  68.2129987  18.7675006 145.5695017
  66.0159987  12.1555006 147.4975017  66.9729987  12.1555006 147.4975017
  65.7759987  13.0825006 147.4975017  74.6479987   3.7595006 148.2585017
  75.6049987   3.7595006 148.2585017  74.4079987   4.6865006 148.2585017
  69.1829987   6.5985006 147.8255017  70.1399987   6.5985006 147.8255017
  68.9429987   7.5255006 147.8255017  62.3119987   4.7015006 145.0495017
  63.2689987   4.7015006 145.0495017  62.0719987   5.6285006 145.0495017
  70.0409987   4.7765006 143.4275017  70.9979987   4.7765006 143.4275017
  69.8009987   5.7035006 143.4275017  58.9269987   7.1055006 145.7955017
  59.8839987   7.1055006 145.7955017  58.6869987   8.0325006 145.7955017
  64.0899987   8.6595006 145.0805017  65.0469987   8.6595006 145.0805017
  63.8499987   9.5865006 145.0805017  75.0789987   5.2215006 150.5215017
  76.0359987   5.2215006 150.5215017  74.8389987   6.1485006 150.5215017
  61.2049987   3.6045006 149.1085017  62.1619987   3.6045006 149.1085017
  60.9649987   4.5315006 149.1085017  68.5009987  13.0875006 142.6355017
  69.4579987  13.0875006 142.6355017  68.2609987  14.0145006 142.6355017
  63.7219987  11.2415006 149.3555017  64.6789987  11.2415006 149.3555017
  63.4819987  12.1685006 149.3555017  71.8329987   4.1035006 145.4095017
  72.7899987   4.1035006 145.4095017  71.5929987   5.0305006 145.4095017
  60.7519987   5.4805006 147.1025017  61.7089987   5.4805006 147.1025017
  60.5119987   6.4075006 147.1025017  62.1589987  13.2315006 150.1655017
  63.1159987  13.2315006 150.1655017  61.9189987  14.1585006 150.1655017
  58.2469987  12.8615006 140.9905017  59.2039987  12.8615006 140.9905017
  58.0069987  13.7885006 140.9905017  71.8619987  14.5225006 147.7015017
  72.8189987  14.5225006 147.7015017  71.6219987  15.4495006 147.7015017
  72.2069987   2.8045006 149.1615017  73.1639987   2.8045006 149.1615017
  71.9669987   3.7315006 149.1615017  65.1219987   0.9635006 146.4075017
  66.0789987   0.9635006 146.4075017  64.8819987   1.8905006 146.4075017
  70.1149987  16.3075006 144.3045017  71.0719987  16.3075006 144.3045017
  69.8749987  17.2345006 144.3045017  71.3129987  14.2305006 142.8225017
  72.2699987  14.2305006 142.8225017  71.0729987  15.1575006 142.8225017
  72.9519987  12.8155006 151.3075017  73.9089987  12.8155006 151.3075017
  72.7119987  13.7425006 151.3075017  67.4499987   9.7295006 141.0805017
  68.4069987   9.7295006 141.0805017  67.2099987  10.6565006 141.0805017
  67.5019987   8.2835006 138.3375017  68.4589987   8.2835006 138.3375017
  67.2619987   9.2105006 138.3375017  74.8279987   9.1295006 149.3605017
  75.7849987   9.1295006 149.3605017  74.5879987  10.0565006 149.3605017
  70.8739987   9.9455006 142.0145017  71.8309987   9.9455006 142.0145017
  70.6339987  10.8725006 142.0145017  70.8029987   8.0965006 151.1075017
  71.7599987   8.0965006 151.1075017  70.5629987   9.0235006 151.1075017
  62.4969987  10.5965006 143.9065017  63.4539987  10.5965006 143.9065017
  62.2569987  11.5235006 143.9065017  63.8259987  13.9935006 146.5895017
  64.7829987  13.9935006 146.5895017  63.5859987  14.9205006 146.5895017
  62.8349987   9.3385006 147.5585017  63.7919987   9.3385006 147.5585017
  62.5949987  10.2655006 147.5585017  69.2209987  14.8995006 148.2665017
  70.1779987  14.8995006 148.2665017  68.9809987  15.8265006 148.2665017
  63.7739987  13.7605006 152.2625017  64.7309987  13.7605006 152.2625017
  63.5339987  14.6875006 152.2625017  69.7349987   9.1075006 139.6725017
  70.6919987   9.1075006 139.6725017  69.4949987  10.0345006 139.6725017
  60.7079987   9.9275006 151.4385017  61.6649987   9.9275006 151.4385017
  60.4679987  10.8545006 151.4385017  67.4609987  15.8455006 143.1495017
  68.4179987  15.8455006 143.1495017  67.2209987  16.7725006 143.1495017
  62.0149987  15.8115006 153.0155017  62.9719987  15.8115006 153.0155017
  61.7749987  16.7385006 153.0155017  73.5069987   0.9035006 139.5555017
  74.4639987   0.9035006 139.5555017  73.2669987   1.8305006 139.5555017
  61.4679987   9.6285006 141.5235017  62.4249987   9.6285006 141.5235017
  61.2279987  10.5555006 141.5235017  74.5989987  15.1905006 137.9565017
  75.5559987  15.1905006 137.9565017  74.3589987  16.1175006 137.9565017
  57.5659987  12.0435006 150.3895017  58.5229987  12.0435006 150.3895017
  57.3259987  12.9705006 150.3895017  57.3209987  14.7795006 147.1945017
  58.2779987  14.7795006 147.1945017  57.0809987  15.7065006 147.1945017
  75.5569987  15.4795006 152.8805017  76.5139987  15.4795006 152.8805017
  75.3169987  16.4065006 152.8805017  66.5139987  15.0235006 151.7445017
  67.4709987  15.0235006 151.7445017  66.2739987  15.9505006 151.7445017
  66.9269987  18.7735006 141.5245017  67.8839987  18.7735006 141.5245017
  66.6869987  19.7005006 141.5245017  60.5889987  17.6375006 143.3605017
  61.5459987  17.6375006 143.3605017  60.3489987  18.5645006 143.3605017
  69.9499987  17.9965006 138.5265017  70.9069987  17.9965006 138.5265017
  69.7099987  18.9235006 138.5265017  69.6929987  17.9135006 141.3105017
  70.6499987  17.9135006 141.3105017  69.4529987  18.8405006 141.3105017
  72.6949987   6.9585006 153.3635017  73.6519987   6.9585006 153.3635017
  72.4549987   7.8855006 153.3635017  59.8369987  13.3585006 151.3555017
  60.7939987  13.3585006 151.3555017  59.5969987  14.2855006 151.3555017
  62.5989987   1.9225006 147.2545017  63.5559987   1.9225006 147.2545017
  62.3589987   2.8495006 147.2545017  67.1759987   1.5585006 150.7325017
  68.1329987   1.5585006 150.7325017  66.9359987   2.4855006 150.7325017
  70.4479987   5.2995006 151.5695017  71.4049987   5.2995006 151.5695017
  70.2079987   6.2265006 151.5695017  71.3559987  10.2205006 137.8465017
  72.3129987  10.2205006 137.8465017  71.1159987  11.1475006 137.8465017
  66.7959987   4.0355006 138.0005017  67.7529987   4.0355006 138.0005017
  66.5559987   4.9625006 138.0005017  62.6059987   6.7895006 148.5315017
  63.5629987   6.7895006 148.5315017  62.3659987   7.7165006 148.5315017
  62.5709987   6.9495006 143.4105017  63.5279987   6.9495006 143.4105017
  62.3309987   7.8765006 143.4105017  68.0889987   7.4125006 142.1625017
  69.0459987   7.4125006 142.1625017  67.8489987   8.3395006 142.1625017
  67.1659987   7.6255006 153.6415017  68.1229987   7.6255006 153.6415017
  66.9259987   8.5525006 153.6415017  69.1209987   6.9015006 145.0315017
  70.0779987   6.9015006 145.0315017  68.8809987   7.8285006 145.0315017
  60.2529987   7.0735006 150.2615017  61.2099987   7.0735006 150.2615017
  60.0129987   8.0005006 150.2615017  63.6829987   4.4215006 137.2605017
  64.6399987   4.4215006 137.2605017  63.4429987   5.3485006 137.2605017
  56.8869987   4.2085006 144.2005017  57.8439987   4.2085006 144.2005017
  56.6469987   5.1355006 144.2005017  58.1729987   4.9175006 139.5805017
  59.1299987   4.9175006 139.5805017  57.9329987   5.8445006 139.5805017
  68.3369987   8.5035006 149.6165017  69.2939987   8.5035006 149.6165017
  68.0969987   9.4305006 149.6165017  65.1409987   4.4735006 144.4265017
  66.0979987   4.4735006 144.4265017  64.9009987   5.4005006 144.4265017
  59.9519987   6.0425006 143.2985017  60.9089987   6.0425006 143.2985017
  59.7119987   6.9695006 143.2985017  63.5919987   6.0865006 140.9495017
  64.5489987   6.0865006 140.9495017  63.3519987   7.0135006 140.9495017
  69.5499987   3.6755006 147.6765017  70.5069987   3.6755006 147.6765017
  69.3099987   4.6025006 147.6765017  62.2499987   7.2805006 138.4985017
  63.2069987   7.2805006 138.4985017  62.0099987   8.2075006 138.4985017
  72.7549987  19.3475006 153.9965017  73.7119987  19.3475006 153.9965017
  72.5149987  20.2745006 153.9965017  60.4239987  11.8115006 153.5675017
  61.3809987  11.8115006 153.5675017  60.1839987  12.7385006 153.5675017
  66.4239987   7.2265006 146.3265017  67.3809987   7.2265006 146.3265017
  66.1839987   8.1535006 146.3265017  61.4199987   3.3695006 142.7505017
  62.3769987   3.3695006 142.7505017  61.1799987   4.2965006 142.7505017
  65.0589987   5.5765006 148.7355017  66.0159987   5.5765006 148.7355017
  64.8189987   6.5035006 148.7355017  65.6469987  11.7885006 140.4265017
  66.6039987  11.7885006 140.4265017  65.4069987  12.7155006 140.4265017
  72.8109987  10.9665006 149.2385017  73.7679987  10.9665006 149.2385017
  72.5709987  11.8935006 149.2385017  69.5069987   4.6255006 138.5685017
  70.4639987   4.6255006 138.5685017  69.2669987   5.5525006 138.5685017
  67.1349987  12.0295006 151.6735017  68.0919987  12.0295006 151.6735017
  66.8949987  12.9565006 151.6735017  70.2129987   6.4945006 140.2925017
  71.1699987   6.4945006 140.2925017  69.9729987   7.4215006 140.2925017
  60.7509987  11.1595006 146.2325017  61.7079987  11.1595006 146.2325017
  60.5109987  12.0865006 146.2325017  67.7469987  13.2395006 139.4565017
  68.7039987  13.2395006 139.4565017  67.5069987  14.1665006 139.4565017
  57.7449987   9.5815006 151.5015017  58.7019987   9.5815006 151.5015017
  57.5049987  10.5085006 151.5015017  64.7569987   9.1345006 153.6945017
  65.7139987   9.1345006 153.6945017  64.5169987  10.0615006 153.6945017
  69.4279987  14.4655006 151.6165017  70.3849987  14.4655006 151.6165017
  69.1879987  15.3925006 151.6165017  75.1429987   6.6815006 140.0505017
  76.0999987   6.6815006 140.0505017  74.9029987   7.6085006 140.0505017
  75.0959987  12.5185006 152.8345017  76.0529987  12.5185006 152.8345017
  74.8559987  13.4455006 152.8345017  73.4349987  15.4745006 140.4285017
  74.3919987  15.4745006 140.4285017  73.1949987  16.4015006 140.4285017
  70.6019987  10.3015006 147.5115017  71.5589987  10.3015006 147.5115017
  70.3619987  11.2285006 147.5115017  63.1259987  14.6255006 143.6165017
  64.0829987  14.6255006 143.6165017  62.8859987  15.5525006 143.6165017
  58.8959987   9.4705006 138.1525017  59.8529987   9.4705006 138.1525017
  58.6559987  10.3975006 138.1525017  64.5489987  12.2895006 143.1425017
  65.5059987  12.2895006 143.1425017  64.3089987  13.2165006 143.1425017
  65.0039987  16.4665006 149.5325017  65.9609987  16.4665006 149.5325017
  64.7639987  17.3935006 149.5325017  63.2209987  17.2925006 142.6955017
  64.1779987  17.2925006 142.6955017  62.9809987  18.2195006 142.6955017
  68.5449987  12.4975006 149.1755017  69.5019987  12.4975006 149.1755017
  68.3049987  13.4245006 149.1755017  70.8019987  13.5245006 138.2625017
  71.7589987  13.5245006 138.2625017  70.5619987  14.4515006 138.2625017
  71.3129987  17.0675006 151.6695017  72.2699987  17.0675006 151.6695017
  71.0729987  17.9945006 151.6695017  75.3259987  17.9175006 138.5385017
  76.2829987  17.9175006 138.5385017  75.0859987  18.8445006 138.5385017
  59.3999987   4.3045006 151.0785017  60.3569987   4.3045006 151.0785017
  59.1599987   5.2315006 151.0785017  71.6429987  12.1775006 140.5055017
  72.5999987  12.1775006 140.5055017  71.4029987  13.1045006 140.5055017
  59.0179987  16.1115006 149.4815017  59.9749987  16.1115006 149.4815017
  58.7779987  17.0385006 149.4815017  65.0599987  14.5985006 136.7905017
  66.0169987  14.5985006 136.7905017  64.8199987  15.5255006 136.7905017
  63.7829987  14.1565006 139.1825017  64.7399987  14.1565006 139.1825017
  63.5429987  15.0835006 139.1825017  60.2739987  11.4105006 139.6415017
  61.2309987  11.4105006 139.6415017  60.0339987  12.3375006 139.6415017
  68.1219987   4.0815006 149.9865017  69.0789987   4.0815006 149.9865017
  67.8819987   5.0085006 149.9865017  68.8749987   3.6805006 141.0815017
  69.8319987   3.6805006 141.0815017  68.6349987   4.6075006 141.0815017
  66.5629987  15.8275006 139.9515017  67.5199987  15.8275006 139.9515017
  66.3229987  16.7545006 139.9515017  66.1109987   5.4015006 141.8995017
  67.0679987   5.4015006 141.8995017  65.8709987   6.3285006 141.8995017
  66.6519987   6.4285006 151.0935017  67.6089987   6.4285006 151.0935017
  66.4119987   7.3555006 151.0935017  66.9729987   2.4615006 142.8245017
  67.9299987   2.4615006 142.8245017  66.7329987   3.3885006 142.8245017
  63.9349987  16.8595006 139.9265017  64.8919987  16.8595006 139.9265017
  63.6949987  17.7865006 139.9265017  62.5899987   3.5695006 139.5375017
  63.5469987   3.5695006 139.5375017  62.3499987   4.4965006 139.5375017
  72.8429987   4.3255006 151.9315017  73.7999987   4.3255006 151.9315017
  72.6029987   5.2525006 151.9315017  71.4429987   8.0935006 145.9735017
  72.3999987   8.0935006 145.9735017  71.2029987   9.0205006 145.9735017
  60.8869987  13.9695006 138.5995017  61.8439987  13.9695006 138.5995017
  60.6469987  14.8965006 138.5995017  59.2109987   6.6735006 137.7135017
  60.1679987   6.6735006 137.7135017  58.9709987   7.6005006 137.7135017
  72.5049987  17.3525006 147.6395017  73.4619987  17.3525006 147.6395017
  72.2649987  18.2795006 147.6395017  59.7809987   1.6735006 146.2905017
  60.7379987   1.6735006 146.2905017  59.5409987   2.6005006 146.2905017
  58.9579987  15.3845006 142.5475017  59.9149987  15.3845006 142.5475017
  58.7179987  16.3115006 142.5475017  58.1829987  18.0405006 153.8665017
  59.1399987  18.0405006 153.8665017  57.9429987  18.9675006 153.8665017
  62.8389987  16.9575006 155.4815017  63.7959987  16.9575006 155.4815017
  62.5989987  17.8845006 155.4815017  67.1489987  16.0805006 137.3665017
  68.1059987  16.0805006 137.3665017  66.9089987  17.0075006 137.3665017
  69.3699987  15.3385006 154.2135017  70.3269987  15.3385006 154.2135017
  69.1299987  16.2655006 154.2135017  71.3369987  16.1785006 137.2555017
  72.2939987  16.1785006 137.2555017  71.0969987  17.1055006 137.2555017
  58.1029987  11.8235006 154.8515017  59.0599987  11.8235006 154.8515017
  57.8629987  12.7505006 154.8515017  62.5929987  12.1885006 137.0485017
  63.5499987  12.1885006 137.0485017  62.3529987  13.1155006 137.0485017
  64.7989987  11.8025006 154.2495017  65.7559987  11.8025006 154.2495017
  64.5589987  12.7295006 154.2495017  67.7779987  13.2265006 136.6555017
  68.7349987  13.2265006 136.6555017  67.5379987  14.1535006 136.6555017
  70.5029987  11.6725006 151.6345017  71.4599987  11.6725006 151.6345017
  70.2629987  12.5995006 151.6345017  58.9849987   9.0425006 154.2375017
  59.9419987   9.0425006 154.2375017  58.7449987   9.9695006 154.2375017
  63.6329987  10.1655006 139.2725017  64.5899987  10.1655006 139.2725017
  63.3929987  11.0925006 139.2725017  62.9059987   7.9985006 151.6045017
  63.8629987   7.9985006 151.6045017  62.6659987   8.9255006 151.6045017
  64.7469987   8.0765006 137.7985017  65.7039987   8.0765006 137.7985017
  64.5069987   9.0035006 137.7985017  67.9619987  10.5435006 154.9195017
  68.9189987  10.5435006 154.9195017  67.7219987  11.4705006 154.9195017
  74.1409987  10.9385006 137.3015017  75.0979987  10.9385006 137.3015017
  73.9009987  11.8655006 137.3015017  63.2919987   5.3675006 152.6685017
  64.2489987   5.3675006 152.6685017  63.0519987   6.2945006 152.6685017
  63.7079987   3.7415006 150.2075017  64.6649987   3.7415006 150.2075017
  63.4679987   4.6685006 150.2075017  65.2489987   9.2185006 150.4495017
  66.2059987   9.2185006 150.4495017  65.0089987  10.1455006 150.4495017
  69.6479987   6.9975006 155.4265017  70.6049987   6.9975006 155.4265017
  69.4079987   7.9245006 155.4265017  70.9729987   9.7885006 153.5675017
  71.9299987   9.7885006 153.5675017  70.7329987  10.7155006 153.5675017
  61.7579987   6.6195006 154.5875017  62.7149987   6.6195006 154.5875017
  61.5179987   7.5465006 154.5875017  64.5719987   1.2295006 150.4805017
  65.5289987   1.2295006 150.4805017  64.3319987   2.1565006 150.4805017
  65.7569987   5.5145006 154.2055017  66.7139987   5.5145006 154.2055017
  65.5169987   6.4415006 154.2055017  68.4779987   4.6865006 153.2995017
  69.4349987   4.6865006 153.2995017  68.2379987   5.6135006 153.2995017
  70.1069987   3.3055006 155.2355017  71.0639987   3.3055006 155.2355017
  69.8669987   4.2325006 155.2355017  59.8519987   4.5265006 154.3285017
  60.8089987   4.5265006 154.3285017  59.6119987   5.4535006 154.3285017
  65.2829987 108.5295006 153.3535017  66.2399987 108.5295006 153.3535017
  65.0429987 109.4565006 153.3535017  65.0539987   2.2535006 155.4425017
  66.0109987   2.2535006 155.4425017  64.8139987   3.1805006 155.4425017
  64.5539987  19.1095006 138.5765017  65.5109987  19.1095006 138.5765017
  64.3139987  20.0365006 138.5765017  58.1069987  13.6315006 138.1265017
  59.0639987  13.6315006 138.1265017  57.8669987  14.5585006 138.1265017
  56.8679987  19.0765006 143.0325017  57.8249987  19.0765006 143.0325017
  56.6279987  20.0035006 143.0325017  57.6959987  17.1935006 144.8835017
  58.6529987  17.1935006 144.8835017  57.4559987  18.1205006 144.8835017
  75.2299987  17.9905006 147.8355017  76.1869987  17.9905006 147.8355017
  74.9899987  18.9175006 147.8355017  74.8109987  17.5855006 150.7825017
  75.7679987  17.5855006 150.7825017  74.5709987  18.5125006 150.7825017
  73.2509987  13.3195006 155.4345017  74.2079987  13.3195006 155.4345017
  73.0109987  14.2465006 155.4345017  74.5619987  11.6385006 140.8935017
  75.5189987  11.6385006 140.8935017  74.3219987  12.5655006 140.8935017
  74.9469987   9.6835006 142.7525017  75.9039987   9.6835006 142.7525017
  74.7069987  10.6105006 142.7525017  74.6869987  12.4175006 147.7395017
  75.6439987  12.4175006 147.7395017  74.4469987  13.3445006 147.7395017
  73.2339987  15.3165006 150.0205017  74.1909987  15.3165006 150.0205017
  72.9939987  16.2435006 150.0205017  75.2569987   9.5215006 139.1915017
  76.2139987   9.5215006 139.1915017  75.0169987  10.4485006 139.1915017
  73.6909987   6.7025006 137.9065017  74.6479987   6.7025006 137.9065017
  73.4509987   7.6295006 137.9065017  72.7449987   8.1895006 143.3225017
  73.7019987   8.1895006 143.3225017  72.5049987   9.1165006 143.3225017
  57.7509987  10.2705006 147.3765017  58.7079987  10.2705006 147.3765017
  57.5109987  11.1975006 147.3765017  73.5939987  10.1585006 153.0005017
  74.5509987  10.1585006 153.0005017  73.3539987  11.0855006 153.0005017
  75.1049987   8.0485006 153.6655017  76.0619987   8.0485006 153.6655017
  74.8649987   8.9755006 153.6655017  72.7619987   4.3085006 137.0185017
  73.7189987   4.3085006 137.0185017  72.5219987   5.2355006 137.0185017
  72.4099987   5.7855006 141.7885017  73.3669987   5.7855006 141.7885017
  72.1699987   6.7125006 141.7885017  73.0459987   6.3265006 147.2195017
  74.0029987   6.3265006 147.2195017  72.8059987   7.2535006 147.2195017
  73.1119987   7.0555006 150.0065017  74.0689987   7.0555006 150.0065017
  72.8719987   7.9825006 150.0065017  57.3689987   5.5765006 153.5195017
  58.3259987   5.5765006 153.5195017  57.1289987   6.5035006 153.5195017
  75.3189987   1.1855006 155.3025017  76.2759987   1.1855006 155.3025017
  75.0789987   2.1125006 155.3025017  73.0619987   3.0715006 141.8235017
  74.0189987   3.0715006 141.8235017  72.8219987   3.9985006 141.8235017
  58.5409987   3.8995006 146.3825017  59.4979987   3.8995006 146.3825017
  58.3009987   4.8265006 146.3825017  56.8569987   6.8515006 147.4335017
  57.8139987   6.8515006 147.4335017  56.6169987   7.7785006 147.4335017
  74.9059987   3.2095006 153.7015017  75.8629987   3.2095006 153.7015017
  74.6659987   4.1365006 153.7015017  75.0019987   3.0665006 138.5945017
  75.9589987   3.0665006 138.5945017  74.7619987   3.9935006 138.5945017
  57.2059987   3.1005006 141.5285017  58.1629987   3.1005006 141.5285017
  56.9659987   4.0275006 141.5285017  71.9569987  18.0715006 143.4485017
  72.9139987  18.0715006 143.4485017  71.7169987  18.9985006 143.4485017
  57.1799987   1.8215006 149.8125017  58.1369987   1.8215006 149.8125017
  56.9399987   2.7485006 149.8125017  59.3939987  14.9835006 153.9665017
  60.3509987  14.9835006 153.9665017  59.1539987  15.9105006 153.9665017
  62.3049987  15.9785006 150.2415017  63.2619987  15.9785006 150.2415017
  62.0649987  16.9055006 150.2415017  66.6239987  17.4035006 153.1565017
  67.5809987  17.4035006 153.1565017  66.3839987  18.3305006 153.1565017
  68.9239987  18.6725006 152.4455017  69.8809987  18.6725006 152.4455017
  68.6839987  19.5995006 152.4455017  74.0089987   1.4255006 151.5015017
  74.9659987   1.4255006 151.5015017  73.7689987   2.3525006 151.5015017
  59.7299987  19.2255006 150.2495017  60.6869987  19.2255006 150.2495017
  59.4899987  20.1525006 150.2495017  62.2009987  18.8065006 149.3125017
  63.1579987  18.8065006 149.3125017  61.9609987  19.7335006 149.3125017
  66.9029987  18.7185006 148.4805017  67.8599987  18.7185006 148.4805017
  66.6629987  19.6455006 148.4805017  69.2099987  17.5465006 149.4785017
  70.1669987  17.5465006 149.4785017  68.9699987  18.4735006 149.4785017
  71.7899987  19.1065006 149.7375017  72.7469987  19.1065006 149.7375017
  71.5499987  20.0335006 149.7375017  59.1659987  17.8735006 147.1795017
  60.1229987  17.8735006 147.1795017  58.9259987  18.8005006 147.1795017
  61.2609987  16.5855006 145.8325017  62.2179987  16.5855006 145.8325017
  61.0209987  17.5125006 145.8325017  63.8499987  17.0665006 146.7055017
  64.8069987  17.0665006 146.7055017  63.6099987  17.9935006 146.7055017
  67.3129987   2.7535006 145.8465017  68.2699987   2.7535006 145.8465017
  67.0729987   3.6805006 145.8465017  72.5319987   1.0805006 146.1005017
  73.4889987   1.0805006 146.1005017  72.2919987   2.0075006 146.1005017
  74.1759987   1.9945006 144.2365017  75.1329987   1.9945006 144.2365017
  73.9359987   2.9215006 144.2365017  59.6379987   1.3255006 143.6815017
  60.5949987   1.3255006 143.6815017  59.3979987   2.2525006 143.6815017
  58.7309987   1.5005006 139.8055017  59.6879987   1.5005006 139.8055017
  58.4909987   2.4275006 139.8055017  64.2069987   1.3095006 143.4665017
  65.1639987   1.3095006 143.4665017  63.9669987   2.2365006 143.4665017
  69.7879987   1.3325006 145.1175017  70.7449987   1.3325006 145.1175017
  69.5479987   2.2595006 145.1175017  71.1449987   1.3655006 140.8495017
  72.1019987   1.3655006 140.8495017  70.9049987   2.2925006 140.8495017
  58.4169987  17.0685006 140.3705017  59.3739987  17.0685006 140.3705017
  58.1769987  17.9955006 140.3705017  60.2989987   3.0575006 137.9315017
  61.2559987   3.0575006 137.9315017  60.0589987   3.9845006 137.9315017
  65.3129987   3.3115006 140.3375017  66.2699987   3.3115006 140.3375017
  65.0729987   4.2385006 140.3375017  67.2279987  18.4065006 138.7435017
  68.1849987  18.4065006 138.7435017  66.9879987  19.3335006 138.7435017
  73.9649987  17.8735006 141.4825017  74.9219987  17.8735006 141.4825017
  73.7249987  18.8005006 141.4825017  59.5559987   1.9025006 153.2065017
  60.5129987   1.9025006 153.2065017  59.3159987   2.8295006 153.2065017
  61.5819987   1.2435006 154.7505017  62.5389987   1.2435006 154.7505017
  61.3419987   2.1705006 154.7505017  60.3279987  18.0985006 137.4755017
  61.2849987  18.0985006 137.4755017  60.0879987  19.0255006 137.4755017
  70.0619987 108.3825006 154.7865017  71.0189987 108.3825006 154.7865017
  69.8219987 109.3095006 154.7865017  73.1929987  16.6005006 153.5805017
  74.1499987  16.6005006 153.5805017  72.9529987  17.5275006 153.5805017
  87.6209987  10.4865006 143.5905017  88.5779987  10.4865006 143.5905017
  87.3809987  11.4135006 143.5905017  86.4869987   9.7465006 147.0575017
  87.4439987   9.7465006 147.0575017  86.2469987  10.6735006 147.0575017
  78.8509987   9.4035006 148.6105017  79.8079987   9.4035006 148.6105017
  78.6109987  10.3305006 148.6105017  90.1959987  12.6885006 145.3325017
  91.1529987  12.6885006 145.3325017  89.9559987  13.6155006 145.3325017
  79.7799987  13.8515006 147.1325017  80.7369987  13.8515006 147.1325017
  79.5399987  14.7785006 147.1325017  76.4729987   7.4475006 142.5435017
  77.4299987   7.4475006 142.5435017  76.2329987   8.3745006 142.5435017
  77.1089987   9.6405006 144.7065017  78.0659987   9.6405006 144.7065017
  76.8689987  10.5675006 144.7065017  87.3069987  17.8375006 145.5685017
  88.2639987  17.8375006 145.5685017  87.0669987  18.7645006 145.5685017
  84.8719987  12.1555006 147.4985017  85.8289987  12.1555006 147.4985017
  84.6319987  13.0825006 147.4985017  93.5039987   3.7595006 148.2585017
  94.4609987   3.7595006 148.2585017  93.2639987   4.6865006 148.2585017
  88.0389987   6.5985006 147.8255017  88.9959987   6.5985006 147.8255017
  87.7989987   7.5255006 147.8255017  81.1629987   4.6895006 145.0575017
  82.1199987   4.6895006 145.0575017  80.9229987   5.6165006 145.0575017
  88.8969987   4.7805006 143.4295017  89.8539987   4.7805006 143.4295017
  88.6569987   5.7075006 143.4295017  77.8099987   7.1255006 145.7875017
  78.7669987   7.1255006 145.7875017  77.5699987   8.0525006 145.7875017
  82.9379987   8.6585006 145.0745017  83.8949987   8.6585006 145.0745017
  82.6979987   9.5855006 145.0745017  93.9349987   5.2215006 150.5215017
  94.8919987   5.2215006 150.5215017  93.6949987   6.1485006 150.5215017
  80.0609987   3.6055006 149.1075017  81.0179987   3.6055006 149.1075017
  79.8209987   4.5325006 149.1075017  87.3569987  13.0875006 142.6355017
  88.3139987  13.0875006 142.6355017  87.1169987  14.0145006 142.6355017
  82.5769987  11.2415006 149.3545017  83.5339987  11.2415006 149.3545017
  82.3369987  12.1685006 149.3545017  90.6889987   4.1035006 145.4095017
  91.6459987   4.1035006 145.4095017  90.4489987   5.0305006 145.4095017
  79.6019987   5.4995006 147.0815017  80.5589987   5.4995006 147.0815017
  79.3619987   6.4265006 147.0815017  81.0149987  13.2315006 150.1655017
  81.9719987  13.2315006 150.1655017  80.7749987  14.1585006 150.1655017
  77.1149987  12.8475006 140.9935017  78.0719987  12.8475006 140.9935017
  76.8749987  13.7745006 140.9935017  90.7179987  14.5225006 147.7025017
  91.6749987  14.5225006 147.7025017  90.4779987  15.4495006 147.7025017
  91.0629987   2.8045006 149.1615017  92.0199987   2.8045006 149.1615017
  90.8229987   3.7315006 149.1615017  83.9859987   0.9635006 146.4215017
  84.9429987   0.9635006 146.4215017  83.7459987   1.8905006 146.4215017
  88.9699987  16.3075006 144.3045017  89.9269987  16.3075006 144.3045017
  88.7299987  17.2345006 144.3045017  90.1689987  14.2305006 142.8225017
  91.1259987  14.2305006 142.8225017  89.9289987  15.1575006 142.8225017
  91.8079987  12.8155006 151.3075017  92.7649987  12.8155006 151.3075017
  91.5679987  13.7425006 151.3075017  86.3059987   9.7285006 141.0805017
  87.2629987   9.7285006 141.0805017  86.0659987  10.6555006 141.0805017
  86.3579987   8.2835006 138.3335017  87.3149987   8.2835006 138.3335017
  86.1179987   9.2105006 138.3335017  93.6839987   9.1305006 149.3605017
  94.6409987   9.1305006 149.3605017  93.4439987  10.0575006 149.3605017
  89.7289987   9.9455006 142.0145017  90.6859987   9.9455006 142.0145017
  89.4889987  10.8725006 142.0145017  89.6589987   8.0965006 151.1075017
  90.6159987   8.0965006 151.1075017  89.4189987   9.0235006 151.1075017
  81.3269987  10.5765006 143.9175017  82.2839987  10.5765006 143.9175017
  81.0869987  11.5035006 143.9175017  82.6829987  13.9925006 146.5895017
  83.6399987  13.9925006 146.5895017  82.4429987  14.9195006 146.5895017
  81.6829987   9.3405006 147.5425017  82.6399987   9.3405006 147.5425017
  81.4429987  10.2675006 147.5425017  88.0779987  14.8995006 148.2665017
  89.0349987  14.8995006 148.2665017  87.8379987  15.8265006 148.2665017
  82.6299987  13.7605006 152.2625017  83.5869987  13.7605006 152.2625017
  82.3899987  14.6875006 152.2625017  88.5909987   9.1075006 139.6725017
  89.5479987   9.1075006 139.6725017  88.3509987  10.0345006 139.6725017
  79.5639987   9.9285006 151.4385017  80.5209987   9.9285006 151.4385017
  79.3239987  10.8555006 151.4385017  86.3169987  15.8455006 143.1495017
  87.2739987  15.8455006 143.1495017  86.0769987  16.7725006 143.1495017
  80.8699987  15.8105006 153.0165017  81.8269987  15.8105006 153.0165017
  80.6299987  16.7375006 153.0165017  92.3699987   0.9055006 139.5485017
  93.3269987   0.9055006 139.5485017  92.1299987   1.8325006 139.5485017
  80.4039987   9.8045006 141.4155017  81.3609987   9.8045006 141.4155017
  80.1639987  10.7315006 141.4155017  93.4579987  15.1875006 137.9545017
  94.4149987  15.1875006 137.9545017  93.2179987  16.1145006 137.9545017
  76.4219987  12.0435006 150.3895017  77.3789987  12.0435006 150.3895017
  76.1819987  12.9705006 150.3895017  76.1759987  14.7795006 147.1945017
  77.1329987  14.7795006 147.1945017  75.9359987  15.7065006 147.1945017
  94.4129987  15.4795006 152.8805017  95.3699987  15.4795006 152.8805017
  94.1729987  16.4065006 152.8805017  85.3699987  15.0235006 151.7445017
  86.3269987  15.0235006 151.7445017  85.1299987  15.9505006 151.7445017
  85.7829987  18.7735006 141.5255017  86.7399987  18.7735006 141.5255017
  85.5429987  19.7005006 141.5255017  79.4449987  17.6375006 143.3605017
  80.4019987  17.6375006 143.3605017  79.2049987  18.5645006 143.3605017
  88.8039987  17.9945006 138.5235017  89.7609987  17.9945006 138.5235017
  88.5639987  18.9215006 138.5235017  88.5489987  17.9135006 141.3105017
  89.5059987  17.9135006 141.3105017  88.3089987  18.8405006 141.3105017
  91.5509987   6.9585006 153.3635017  92.5079987   6.9585006 153.3635017
  91.3109987   7.8855006 153.3635017  78.6929987  13.3585006 151.3555017
  79.6499987  13.3585006 151.3555017  78.4529987  14.2855006 151.3555017
  81.4539987   1.9225006 147.2535017  82.4109987   1.9225006 147.2535017
  81.2139987   2.8495006 147.2535017  86.0319987   1.5595006 150.7325017
  86.9889987   1.5595006 150.7325017  85.7919987   2.4865006 150.7325017
  89.3039987   5.2995006 151.5695017  90.2609987   5.2995006 151.5695017
  89.0639987   6.2265006 151.5695017  90.2069987  10.2225006 137.8345017
  91.1639987  10.2225006 137.8345017  89.9669987  11.1495006 137.8345017
  85.6549987   4.0365006 137.9985017  86.6119987   4.0365006 137.9985017
  85.4149987   4.9635006 137.9985017  81.4619987   6.7895006 148.5315017
  82.4189987   6.7895006 148.5315017  81.2219987   7.7165006 148.5315017
  81.5189987   6.8875006 143.4515017  82.4759987   6.8875006 143.4515017
  81.2789987   7.8145006 143.4515017  86.9459987   7.4125006 142.1615017
  87.9029987   7.4125006 142.1615017  86.7059987   8.3395006 142.1615017
  86.0219987   7.6255006 153.6415017  86.9789987   7.6255006 153.6415017
  85.7819987   8.5525006 153.6415017  87.9759987   6.9015006 145.0315017
  88.9329987   6.9015006 145.0315017  87.7359987   7.8285006 145.0315017
  79.1099987   7.0735006 150.2615017  80.0669987   7.0735006 150.2615017
  78.8699987   8.0005006 150.2615017  82.5439987   4.4195006 137.2595017
  83.5009987   4.4195006 137.2595017  82.3039987   5.3465006 137.2595017
  75.7579987   4.2345006 144.1905017  76.7149987   4.2345006 144.1905017
  75.5179987   5.1615006 144.1905017  77.0499987   4.9345006 139.6165017
  78.0069987   4.9345006 139.6165017  76.8099987   5.8615006 139.6165017
  87.1929987   8.5035006 149.6165017  88.1499987   8.5035006 149.6165017
  86.9529987   9.4305006 149.6165017  83.9869987   4.4895006 144.4235017
  84.9439987   4.4895006 144.4235017  83.7469987   5.4165006 144.4235017
  78.7049987   5.8895006 143.4035017  79.6619987   5.8895006 143.4035017
  78.4649987   6.8165006 143.4035017  82.4189987   6.1415006 140.9895017
  83.3759987   6.1415006 140.9895017  82.1789987   7.0685006 140.9895017
  88.4059987   3.6755006 147.6755017  89.3629987   3.6755006 147.6755017
  88.1659987   4.6025006 147.6755017  81.0989987   7.2795006 138.5165017
  82.0559987   7.2795006 138.5165017  80.8589987   8.2065006 138.5165017
  91.6109987  19.3475006 153.9965017  92.5679987  19.3475006 153.9965017
  91.3709987  20.2745006 153.9965017  79.2799987  11.8115006 153.5675017
  80.2369987  11.8115006 153.5675017  79.0399987  12.7385006 153.5675017
  85.2819987   7.2275006 146.3285017  86.2389987   7.2275006 146.3285017
  85.0419987   8.1545006 146.3285017  80.2689987   3.3865006 142.7355017
  81.2259987   3.3865006 142.7355017  80.0289987   4.3135006 142.7355017
  83.9179987   5.5715006 148.7505017  84.8749987   5.5715006 148.7505017
  83.6779987   6.4985006 148.7505017  84.5079987  11.7915006 140.4265017
  85.4649987  11.7915006 140.4265017  84.2679987  12.7185006 140.4265017
  91.6669987  10.9665006 149.2385017  92.6239987  10.9665006 149.2385017
  91.4269987  11.8935006 149.2385017  88.3629987   4.6255006 138.5655017
  89.3199987   4.6255006 138.5655017  88.1229987   5.5525006 138.5655017
  85.9909987  12.0295006 151.6735017  86.9479987  12.0295006 151.6735017
  85.7509987  12.9565006 151.6735017  89.0699987   6.4915006 140.2835017
  90.0269987   6.4915006 140.2835017  88.8299987   7.4185006 140.2835017
  79.5879987  11.1335006 146.2055017  80.5449987  11.1335006 146.2055017
  79.3479987  12.0605006 146.2055017  86.6019987  13.2405006 139.4555017
  87.5589987  13.2405006 139.4555017  86.3619987  14.1675006 139.4555017
  76.5999987   9.5805006 151.5035017  77.5569987   9.5805006 151.5035017
  76.3599987  10.5075006 151.5035017  83.6129987   9.1345006 153.6945017
  84.5699987   9.1345006 153.6945017  83.3729987  10.0615006 153.6945017
  88.2839987  14.4655006 151.6165017  89.2409987  14.4655006 151.6165017
  88.0439987  15.3925006 151.6165017  93.9809987   6.6775006 140.0515017
  94.9379987   6.6775006 140.0515017  93.7409987   7.6045006 140.0515017
  93.9519987  12.5185006 152.8345017  94.9089987  12.5185006 152.8345017
  93.7119987  13.4455006 152.8345017  92.2909987  15.4745006 140.4285017
  93.2479987  15.4745006 140.4285017  92.0509987  16.4015006 140.4285017
  89.4579987  10.3015006 147.5115017  90.4149987  10.3015006 147.5115017
  89.2179987  11.2285006 147.5115017  81.9819987  14.6255006 143.6175017
  82.9389987  14.6255006 143.6175017  81.7419987  15.5525006 143.6175017
  77.7599987   9.4535006 138.1815017  78.7169987   9.4535006 138.1815017
  77.5199987  10.3805006 138.1815017  83.3929987  12.2835006 143.1375017
  84.3499987  12.2835006 143.1375017  83.1529987  13.2105006 143.1375017
  83.8599987  16.4665006 149.5325017  84.8169987  16.4665006 149.5325017
  83.6199987  17.3935006 149.5325017  82.0769987  17.2925006 142.6955017
  83.0339987  17.2925006 142.6955017  81.8369987  18.2195006 142.6955017
  87.4029987  12.4985006 149.1765017  88.3599987  12.4985006 149.1765017
  87.1629987  13.4255006 149.1765017  89.6579987  13.5245006 138.2625017
  90.6149987  13.5245006 138.2625017  89.4179987  14.4515006 138.2625017
  90.1689987  17.0675006 151.6685017  91.1259987  17.0675006 151.6685017
  89.9289987  17.9945006 151.6685017  94.1829987  17.9155006 138.5395017
  95.1399987  17.9155006 138.5395017  93.9429987  18.8425006 138.5395017
  78.2549987   4.3065006 151.0695017  79.2119987   4.3065006 151.0695017
  78.0149987   5.2335006 151.0695017  90.4989987  12.1775006 140.5045017
  91.4559987  12.1775006 140.5045017  90.2589987  13.1045006 140.5045017
  77.8729987  16.1115006 149.4815017  78.8299987  16.1115006 149.4815017
  77.6329987  17.0385006 149.4815017  83.9169987  14.5985006 136.7905017
  84.8739987  14.5985006 136.7905017  83.6769987  15.5255006 136.7905017
  82.6399987  14.1565006 139.1825017  83.5969987  14.1565006 139.1825017
  82.3999987  15.0835006 139.1825017  79.1279987  11.4055006 139.6525017
  80.0849987  11.4055006 139.6525017  78.8879987  12.3325006 139.6525017
  86.9779987   4.0815006 149.9865017  87.9349987   4.0815006 149.9865017
  86.7379987   5.0085006 149.9865017  87.7309987   3.6815006 141.0815017
  88.6879987   3.6815006 141.0815017  87.4909987   4.6085006 141.0815017
  85.4189987  15.8275006 139.9515017  86.3759987  15.8275006 139.9515017
  85.1789987  16.7545006 139.9515017  84.9419987   5.4205006 141.8965017
  85.8989987   5.4205006 141.8965017  84.7019987   6.3475006 141.8965017
  85.5079987   6.4285006 151.0935017  86.4649987   6.4285006 151.0935017
  85.2679987   7.3555006 151.0935017  85.8289987   2.4775006 142.8225017
  86.7859987   2.4775006 142.8225017  85.5889987   3.4045006 142.8225017
  82.7909987  16.8595006 139.9265017  83.7479987  16.8595006 139.9265017
  82.5509987  17.7865006 139.9265017  81.4449987   3.5665006 139.5435017
  82.4019987   3.5665006 139.5435017  81.2049987   4.4935006 139.5435017
  91.6989987   4.3255006 151.9315017  92.6559987   4.3255006 151.9315017
  91.4589987   5.2525006 151.9315017  90.2989987   8.0935006 145.9735017
  91.2559987   8.0935006 145.9735017  90.0589987   9.0205006 145.9735017
  79.7439987  13.9665006 138.6015017  80.7009987  13.9665006 138.6015017
  79.5039987  14.8935006 138.6015017  78.0619987   6.6745006 137.7455017
  79.0189987   6.6745006 137.7455017  77.8219987   7.6015006 137.7455017
  91.3659987  17.3405006 147.6355017  92.3229987  17.3405006 147.6355017
  91.1259987  18.2675006 147.6355017  78.6369987   1.6735006 146.2905017
  79.5939987   1.6735006 146.2905017  78.3969987   2.6005006 146.2905017
  77.8139987  15.3835006 142.5475017  78.7709987  15.3835006 142.5475017
  77.5739987  16.3105006 142.5475017  77.0389987  18.0405006 153.8665017
  77.9959987  18.0405006 153.8665017  76.7989987  18.9675006 153.8665017
  81.6929987  16.9585006 155.4825017  82.6499987  16.9585006 155.4825017
  81.4529987  17.8855006 155.4825017  86.0019987  16.0835006 137.3695017
  86.9589987  16.0835006 137.3695017  85.7619987  17.0105006 137.3695017
  88.2259987  15.3385006 154.2135017  89.1829987  15.3385006 154.2135017
  87.9859987  16.2655006 154.2135017  90.1939987  16.1775006 137.2615017
  91.1509987  16.1775006 137.2615017  89.9539987  17.1045006 137.2615017
  76.9589987  11.8235006 154.8515017  77.9159987  11.8235006 154.8515017
  76.7189987  12.7505006 154.8515017  81.4459987  12.1885006 137.0515017
  82.4029987  12.1885006 137.0515017  81.2059987  13.1155006 137.0515017
  83.6549987  11.8025006 154.2495017  84.6119987  11.8025006 154.2495017
  83.4149987  12.7295006 154.2495017  86.6329987  13.2265006 136.6535017
  87.5899987  13.2265006 136.6535017  86.3929987  14.1535006 136.6535017
  89.3589987  11.6725006 151.6345017  90.3159987  11.6725006 151.6345017
  89.1189987  12.5995006 151.6345017  77.8509987   9.0425006 154.2385017
  78.8079987   9.0425006 154.2385017  77.6109987   9.9695006 154.2385017
  82.4829987  10.1665006 139.2655017  83.4399987  10.1665006 139.2655017
  82.2429987  11.0935006 139.2655017  81.7619987   7.9985006 151.6045017
  82.7189987   7.9985006 151.6045017  81.5219987   8.9255006 151.6045017
  83.5989987   8.0795006 137.8025017  84.5559987   8.0795006 137.8025017
  83.3589987   9.0065006 137.8025017  86.8179987  10.5435006 154.9185017
  87.7749987  10.5435006 154.9185017  86.5779987  11.4705006 154.9185017
  92.9929987  10.9305006 137.2885017  93.9499987  10.9305006 137.2885017
  92.7529987  11.8575006 137.2885017  82.1479987   5.3675006 152.6685017
  83.1049987   5.3675006 152.6685017  81.9079987   6.2945006 152.6685017
  82.5639987   3.7405006 150.2055017  83.5209987   3.7405006 150.2055017
  82.3239987   4.6675006 150.2055017  84.1039987   9.2185006 150.4505017
  85.0609987   9.2185006 150.4505017  83.8639987  10.1455006 150.4505017
  88.5039987   6.9975006 155.4265017  89.4609987   6.9975006 155.4265017
  88.2639987   7.9245006 155.4265017  89.8289987   9.7885006 153.5675017
  90.7859987   9.7885006 153.5675017  89.5889987  10.7155006 153.5675017
  80.6139987   6.6195006 154.5875017  81.5709987   6.6195006 154.5875017
  80.3739987   7.5465006 154.5875017  83.4279987   1.2295006 150.4805017
  84.3849987   1.2295006 150.4805017  83.1879987   2.1565006 150.4805017
  84.6129987   5.5155006 154.2055017  85.5699987   5.5155006 154.2055017
  84.3729987   6.4425006 154.2055017  87.3339987   4.6865006 153.2995017
  88.2909987   4.6865006 153.2995017  87.0939987   5.6135006 153.2995017
  88.9629987   3.3055006 155.2355017  89.9199987   3.3055006 155.2355017
  88.7229987   4.2325006 155.2355017  78.7079987   4.5265006 154.3285017
  79.6649987   4.5265006 154.3285017  78.4679987   5.4535006 154.3285017
  84.1389987 108.5285006 153.3535017  85.0959987 108.5285006 153.3535017
  83.8989987 109.4555006 153.3535017  83.9099987   2.2535006 155.4425017
  84.8669987   2.2535006 155.4425017  83.6699987   3.1805006 155.4425017
  83.4099987  19.1085006 138.5745017  84.3669987  19.1085006 138.5745017
  83.1699987  20.0355006 138.5745017  76.9639987  13.6305006 138.1275017
  77.9209987  13.6305006 138.1275017  76.7239987  14.5575006 138.1275017
  75.7149987  19.0815006 143.0385017  76.6719987  19.0815006 143.0385017
  75.4749987  20.0085006 143.0385017  76.5519987  17.1935006 144.8835017
  77.5089987  17.1935006 144.8835017  76.3119987  18.1205006 144.8835017
  94.0859987  17.9905006 147.8355017  95.0429987  17.9905006 147.8355017
  93.8459987  18.9175006 147.8355017  93.6619987  17.5885006 150.7785017
  94.6189987  17.5885006 150.7785017  93.4219987  18.5155006 150.7785017
  92.1069987  13.3195006 155.4345017  93.0639987  13.3195006 155.4345017
  91.8669987  14.2465006 155.4345017  93.4199987  11.6365006 140.8935017
  94.3769987  11.6365006 140.8935017  93.1799987  12.5635006 140.8935017
  93.7849987   9.7095006 142.7585017  94.7419987   9.7095006 142.7585017
  93.5449987  10.6365006 142.7585017  93.5439987  12.4175006 147.7395017
  94.5009987  12.4175006 147.7395017  93.3039987  13.3445006 147.7395017
  92.0899987  15.3145006 150.0215017  93.0469987  15.3145006 150.0215017
  91.8499987  16.2415006 150.0215017  94.0989987   9.5205006 139.1835017
  95.0559987   9.5205006 139.1835017  93.8589987  10.4475006 139.1835017
  92.5519987   6.7085006 137.9065017  93.5089987   6.7085006 137.9065017
  92.3119987   7.6355006 137.9065017  91.5999987   8.1885006 143.3225017
  92.5569987   8.1885006 143.3225017  91.3599987   9.1155006 143.3225017
  76.6049987  10.2715006 147.3795017  77.5619987  10.2715006 147.3795017
  76.3649987  11.1985006 147.3795017  92.4499987  10.1585006 153.0005017
  93.4069987  10.1585006 153.0005017  92.2099987  11.0855006 153.0005017
  93.9609987   8.0485006 153.6655017  94.9179987   8.0485006 153.6655017
  93.7209987   8.9755006 153.6655017  91.6109987   4.3135006 136.9975017
  92.5679987   4.3135006 136.9975017  91.3709987   5.2405006 136.9975017
  91.2659987   5.7855006 141.7875017  92.2229987   5.7855006 141.7875017
  91.0259987   6.7125006 141.7875017  91.9029987   6.3245006 147.2195017
  92.8599987   6.3245006 147.2195017  91.6629987   7.2515006 147.2195017
  91.9689987   7.0535006 150.0065017  92.9259987   7.0535006 150.0065017
  91.7289987   7.9805006 150.0065017  76.2249987   5.5755006 153.5195017
  77.1819987   5.5755006 153.5195017  75.9849987   6.5025006 153.5195017
  94.1749987   1.1855006 155.3025017  95.1319987   1.1855006 155.3025017
  93.9349987   2.1125006 155.3025017  91.9149987   3.0715006 141.8235017
  92.8719987   3.0715006 141.8235017  91.6749987   3.9985006 141.8235017
  77.3939987   3.8955006 146.3875017  78.3509987   3.8955006 146.3875017
  77.1539987   4.8225006 146.3875017  75.7119987   6.8525006 147.4375017
  76.6689987   6.8525006 147.4375017  75.4719987   7.7795006 147.4375017
  93.7619987   3.2095006 153.7015017  94.7189987   3.2095006 153.7015017
  93.5219987   4.1365006 153.7015017  93.8559987   3.0675006 138.5925017
  94.8129987   3.0675006 138.5925017  93.6159987   3.9945006 138.5925017
  76.0649987   3.1095006 141.5365017  77.0219987   3.1095006 141.5365017
  75.8249987   4.0365006 141.5365017  90.8109987  18.0715006 143.4485017
  91.7679987  18.0715006 143.4485017  90.5709987  18.9985006 143.4485017
  76.0389987   1.8185006 149.8145017  76.9959987   1.8185006 149.8145017
  75.7989987   2.7455006 149.8145017  78.2499987  14.9835006 153.9665017
  79.2069987  14.9835006 153.9665017  78.0099987  15.9105006 153.9665017
  81.1609987  15.9785006 150.2415017  82.1179987  15.9785006 150.2415017
  80.9209987  16.9055006 150.2415017  85.4809987  17.4035006 153.1565017
  86.4379987  17.4035006 153.1565017  85.2409987  18.3305006 153.1565017
  87.7789987  18.6735006 152.4455017  88.7359987  18.6735006 152.4455017
  87.5389987  19.6005006 152.4455017  92.8649987   1.4255006 151.5015017
  93.8219987   1.4255006 151.5015017  92.6249987   2.3525006 151.5015017
  78.5859987  19.2285006 150.2505017  79.5429987  19.2285006 150.2505017
  78.3459987  20.1555006 150.2505017  81.0569987  18.8065006 149.3125017
  82.0139987  18.8065006 149.3125017  80.8169987  19.7335006 149.3125017
  85.7589987  18.7155006 148.4805017  86.7159987  18.7155006 148.4805017
  85.5189987  19.6425006 148.4805017  88.0659987  17.5465006 149.4785017
  89.0229987  17.5465006 149.4785017  87.8259987  18.4735006 149.4785017
  90.6459987  19.1125006 149.7365017  91.6029987  19.1125006 149.7365017
  90.4059987  20.0395006 149.7365017  78.0219987  17.8735006 147.1795017
  78.9789987  17.8735006 147.1795017  77.7819987  18.8005006 147.1795017
  80.1169987  16.5855006 145.8325017  81.0739987  16.5855006 145.8325017
  79.8769987  17.5125006 145.8325017  82.7049987  17.0645006 146.6995017
  83.6619987  17.0645006 146.6995017  82.4649987  17.9915006 146.6995017
  86.1679987   2.7455006 145.8415017  87.1249987   2.7455006 145.8415017
  85.9279987   3.6725006 145.8415017  91.3879987   1.0805006 146.1005017
  92.3449987   1.0805006 146.1005017  91.1479987   2.0075006 146.1005017
  93.0259987   1.9935006 144.2385017  93.9829987   1.9935006 144.2385017
  92.7859987   2.9205006 144.2385017  78.4929987   1.3255006 143.6805017
  79.4499987   1.3255006 143.6805017  78.2529987   2.2525006 143.6805017
  77.5859987   1.4985006 139.8045017  78.5429987   1.4985006 139.8045017
  77.3459987   2.4255006 139.8045017  83.0559987   1.3035006 143.4665017
  84.0129987   1.3035006 143.4665017  82.8159987   2.2305006 143.4665017
  88.6449987   1.3265006 145.1155017  89.6019987   1.3265006 145.1155017
  88.4049987   2.2535006 145.1155017  89.9999987   1.3585006 140.8465017
  90.9569987   1.3585006 140.8465017  89.7599987   2.2855006 140.8465017
  77.2729987  17.0685006 140.3715017  78.2299987  17.0685006 140.3715017
  77.0329987  17.9955006 140.3715017  79.1539987   3.0565006 137.9295017
  80.1109987   3.0565006 137.9295017  78.9139987   3.9835006 137.9295017
  84.1729987   3.3055006 140.3385017  85.1299987   3.3055006 140.3385017
  83.9329987   4.2325006 140.3385017  86.0829987  18.4105006 138.7475017
  87.0399987  18.4105006 138.7475017  85.8429987  19.3375006 138.7475017
  92.8209987  17.8745006 141.4825017  93.7779987  17.8745006 141.4825017
  92.5809987  18.8015006 141.4825017  78.4119987   1.9025006 153.2065017
  79.3689987   1.9025006 153.2065017  78.1719987   2.8295006 153.2065017
  80.4379987   1.2435006 154.7505017  81.3949987   1.2435006 154.7505017
  80.1979987   2.1705006 154.7505017  79.1849987  18.0985006 137.4755017
  80.1419987  18.0985006 137.4755017  78.9449987  19.0255006 137.4755017
  88.9169987 108.3815006 154.7845017  89.8739987 108.3815006 154.7845017
  88.6769987 109.3085006 154.7845017  92.0489987  16.6005006 153.5805017
  93.0059987  16.6005006 153.5805017  91.8089987  17.5275006 153.5805017
 106.4739987  10.4595006 143.5665017 107.4309987  10.4595006 143.5665017
 106.2339987  11.3865006 143.5665017 105.3119987   9.7555006 147.0625017
 106.2689987   9.7555006 147.0625017 105.0719987  10.6825006 147.0625017
  97.7079987   9.4025006 148.6095017  98.6649987   9.4025006 148.6095017
  97.4679987  10.3295006 148.6095017  98.6349987  13.8525006 147.1315017
  99.5919987  13.8525006 147.1315017  98.3949987  14.7795006 147.1315017
  95.2809987   7.4335006 142.5925017  96.2379987   7.4335006 142.5925017
  95.0409987   8.3605006 142.5925017  95.9749987   9.6535006 144.7225017
  96.9319987   9.6535006 144.7225017  95.7349987  10.5805006 144.7225017
 106.1859987  17.8045006 145.5475017 107.1429987  17.8045006 145.5475017
 105.9459987  18.7315006 145.5475017 103.7039987  12.1385006 147.4875017
 104.6609987  12.1385006 147.4875017 103.4639987  13.0655006 147.4875017
 106.2339987   6.3705006 147.7865017 107.1909987   6.3705006 147.7865017
 105.9939987   7.2975006 147.7865017 100.0239987   4.7025006 145.0495017
 100.9809987   4.7025006 145.0495017  99.7839987   5.6295006 145.0495017
 107.7239987   5.2955006 143.0415017 108.6809987   5.2955006 143.0415017
 107.4839987   6.2225006 143.0415017  96.6389987   7.1055006 145.7955017
  97.5959987   7.1055006 145.7955017  96.3989987   8.0325006 145.7955017
 101.7929987   8.6635006 145.0765017 102.7499987   8.6635006 145.0765017
 101.5529987   9.5905006 145.0765017  98.9169987   3.6045006 149.1085017
  99.8739987   3.6045006 149.1085017  98.6769987   4.5315006 149.1085017
 106.2359987  13.0885006 142.6385017 107.1929987  13.0885006 142.6385017
 105.9959987  14.0155006 142.6385017 101.4369987  11.2425006 149.3565017
 102.3939987  11.2425006 149.3565017 101.1969987  12.1695006 149.3565017
  98.4629987   5.4795006 147.1025017  99.4199987   5.4795006 147.1025017
  98.2229987   6.4065006 147.1025017  99.8709987  13.2315006 150.1665017
 100.8279987  13.2315006 150.1665017  99.6309987  14.1585006 150.1665017
  95.9589987  12.8615006 140.9905017  96.9159987  12.8615006 140.9905017
  95.7189987  13.7885006 140.9905017 102.8459987   0.9665006 146.4285017
 103.8029987   0.9665006 146.4285017 102.6059987   1.8935006 146.4285017
 107.5029987  16.1295006 143.9005017 108.4599987  16.1295006 143.9005017
 107.2629987  17.0565006 143.9005017 105.1369987   9.7225006 141.0665017
 106.0939987   9.7225006 141.0665017 104.8969987  10.6495006 141.0665017
 105.2169987   8.2715006 138.3285017 106.1739987   8.2715006 138.3285017
 104.9769987   9.1985006 138.3285017 100.2089987  10.5975006 143.9065017
 101.1659987  10.5975006 143.9065017  99.9689987  11.5245006 143.9065017
 101.5379987  13.9915006 146.5905017 102.4949987  13.9915006 146.5905017
 101.2979987  14.9185006 146.5905017 100.5469987   9.3385006 147.5585017
 101.5039987   9.3385006 147.5585017 100.3069987  10.2655006 147.5585017
 106.5349987  14.9255006 148.3115017 107.4919987  14.9255006 148.3115017
 106.2949987  15.8525006 148.3115017 101.4859987  13.7605006 152.2615017
 102.4429987  13.7605006 152.2615017 101.2459987  14.6875006 152.2615017
 107.4609987   9.1115006 139.6825017 108.4179987   9.1115006 139.6825017
 107.2209987  10.0385006 139.6825017  98.4199987   9.9275006 151.4385017
  99.3769987   9.9275006 151.4385017  98.1799987  10.8545006 151.4385017
 105.0769987  15.8415006 143.1435017 106.0339987  15.8415006 143.1435017
 104.8369987  16.7685006 143.1435017  99.7269987  15.8115006 153.0155017
 100.6839987  15.8115006 153.0155017  99.4869987  16.7385006 153.0155017
  99.1799987   9.6285006 141.5235017 100.1369987   9.6285006 141.5235017
  98.9399987  10.5555006 141.5235017  95.2779987  12.0435006 150.3895017
  96.2349987  12.0435006 150.3895017  95.0379987  12.9705006 150.3895017
  95.0329987  14.7785006 147.1945017  95.9899987  14.7785006 147.1945017
  94.7929987  15.7055006 147.1945017 104.2419987  15.0225006 151.7655017
 105.1989987  15.0225006 151.7655017 104.0019987  15.9495006 151.7655017
 104.6469987  18.7735006 141.5285017 105.6039987  18.7735006 141.5285017
 104.4069987  19.7005006 141.5285017  98.3009987  17.6375006 143.3605017
  99.2579987  17.6375006 143.3605017  98.0609987  18.5645006 143.3605017
 107.6599987  17.9485006 138.5165017 108.6169987  17.9485006 138.5165017
 107.4199987  18.8755006 138.5165017 107.2499987  17.7285006 141.1485017
 108.2069987  17.7285006 141.1485017 107.0099987  18.6555006 141.1485017
  97.5489987  13.3585006 151.3555017  98.5059987  13.3585006 151.3555017
  97.3089987  14.2855006 151.3555017 100.3109987   1.9235006 147.2535017
 101.2679987   1.9235006 147.2535017 100.0709987   2.8505006 147.2535017
 104.9209987   1.5645006 150.7535017 105.8779987   1.5645006 150.7535017
 104.6809987   2.4915006 150.7535017 104.5449987   4.0195006 138.0095017
 105.5019987   4.0195006 138.0095017 104.3049987   4.9465006 138.0095017
 100.3109987   6.7895006 148.5315017 101.2679987   6.7895006 148.5315017
 100.0709987   7.7165006 148.5315017 100.2819987   6.9495006 143.4095017
 101.2389987   6.9495006 143.4095017 100.0419987   7.8765006 143.4095017
 105.7799987   7.4175006 142.1635017 106.7369987   7.4175006 142.1635017
 105.5399987   8.3445006 142.1635017 104.9019987   7.6435006 153.6695017
 105.8589987   7.6435006 153.6695017 104.6619987   8.5705006 153.6695017
 106.8219987   6.8985006 145.0245017 107.7789987   6.8985006 145.0245017
 106.5819987   7.8255006 145.0245017  97.9659987   7.0735006 150.2625017
  98.9229987   7.0735006 150.2625017  97.7259987   8.0005006 150.2625017
 101.3949987   4.4195006 137.2595017 102.3519987   4.4195006 137.2595017
 101.1549987   5.3465006 137.2595017  94.5989987   4.2085006 144.2005017
  95.5559987   4.2085006 144.2005017  94.3589987   5.1355006 144.2005017
  95.8849987   4.9175006 139.5805017  96.8419987   4.9175006 139.5805017
  95.6449987   5.8445006 139.5805017 106.0409987   8.5005006 149.6385017
 106.9979987   8.5005006 149.6385017 105.8009987   9.4275006 149.6385017
 102.8539987   4.4665006 144.4255017 103.8109987   4.4665006 144.4255017
 102.6139987   5.3935006 144.4255017  97.6649987   6.0415006 143.2985017
  98.6219987   6.0415006 143.2985017  97.4249987   6.9685006 143.2985017
 101.3059987   6.0875006 140.9505017 102.2629987   6.0875006 140.9505017
 101.0659987   7.0145006 140.9505017 107.2329987   3.6515006 147.7125017
 108.1899987   3.6515006 147.7125017 106.9929987   4.5785006 147.7125017
  99.9609987   7.2795006 138.4985017 100.9179987   7.2795006 138.4985017
  99.7209987   8.2065006 138.4985017  98.1359987  11.8145006 153.5675017
  99.0929987  11.8145006 153.5675017  97.8959987  12.7415006 153.5675017
 104.0779987   7.2095006 146.2845017 105.0349987   7.2095006 146.2845017
 103.8379987   8.1365006 146.2845017  99.1319987   3.3695006 142.7505017
 100.0889987   3.3695006 142.7505017  98.8919987   4.2965006 142.7505017
 102.7559987   5.5695006 148.7365017 103.7129987   5.5695006 148.7365017
 102.5159987   6.4965006 148.7365017 103.3609987  11.7895006 140.4225017
 104.3179987  11.7895006 140.4225017 103.1209987  12.7165006 140.4225017
 107.1809987   4.6135006 138.5765017 108.1379987   4.6135006 138.5765017
 106.9409987   5.5405006 138.5765017 104.8409987  12.0105006 151.6675017
 105.7979987  12.0105006 151.6675017 104.6009987  12.9375006 151.6675017
   0.1149987   6.6145006 140.3405017   1.0719987   6.6145006 140.3405017
  -0.1250013   7.5415006 140.3405017  98.4619987  11.1585006 146.2315017
  99.4189987  11.1585006 146.2315017  98.2219987  12.0855006 146.2315017
 105.4599987  13.2375006 139.4515017 106.4169987  13.2375006 139.4515017
 105.2199987  14.1645006 139.4515017  95.4549987   9.5815006 151.5025017
  96.4119987   9.5815006 151.5025017  95.2149987  10.5085006 151.5025017
 102.4759987   9.1275006 153.6955017 103.4329987   9.1275006 153.6955017
 102.2359987  10.0545006 153.6955017 107.1539987  14.5055006 151.6025017
 108.1109987  14.5055006 151.6025017 106.9139987  15.4325006 151.6025017
 100.8369987  14.6245006 143.6175017 101.7939987  14.6245006 143.6175017
 100.5969987  15.5515006 143.6175017  96.6079987   9.4705006 138.1525017
  97.5649987   9.4705006 138.1525017  96.3679987  10.3975006 138.1525017
 102.2539987  12.2935006 143.1425017 103.2109987  12.2935006 143.1425017
 102.0139987  13.2205006 143.1425017 102.7059987  16.4645006 149.5325017
 103.6629987  16.4645006 149.5325017 102.4659987  17.3915006 149.5325017
 100.9329987  17.2925006 142.6955017 101.8899987  17.2925006 142.6955017
 100.6929987  18.2195006 142.6955017 106.2679987  12.4795006 149.1945017
 107.2249987  12.4795006 149.1945017 106.0279987  13.4065006 149.1945017
  97.1119987   4.3045006 151.0785017  98.0689987   4.3045006 151.0785017
  96.8719987   5.2315006 151.0785017  96.7279987  16.1115006 149.4815017
  97.6849987  16.1115006 149.4815017  96.4879987  17.0385006 149.4815017
 102.7559987  14.6075006 136.7875017 103.7129987  14.6075006 136.7875017
 102.5159987  15.5345006 136.7875017 101.4969987  14.1555006 139.1815017
 102.4539987  14.1555006 139.1815017 101.2569987  15.0825006 139.1815017
  97.9859987  11.4105006 139.6415017  98.9429987  11.4105006 139.6415017
  97.7459987  12.3375006 139.6415017 105.8339987   4.0805006 149.9945017
 106.7909987   4.0805006 149.9945017 105.5939987   5.0075006 149.9945017
 106.3179987   3.9165006 141.0465017 107.2749987   3.9165006 141.0465017
 106.0779987   4.8435006 141.0465017 104.2839987  15.8235006 139.9545017
 105.2409987  15.8235006 139.9545017 104.0439987  16.7505006 139.9545017
 103.8049987   5.4185006 141.8965017 104.7619987   5.4185006 141.8965017
 103.5649987   6.3455006 141.8965017 104.3329987   6.3915006 151.1065017
 105.2899987   6.3915006 151.1065017 104.0929987   7.3185006 151.1065017
 104.7059987   2.4805006 142.8305017 105.6629987   2.4805006 142.8305017
 104.4659987   3.4075006 142.8305017 101.6209987  16.8585006 139.9195017
 102.5779987  16.8585006 139.9195017 101.3809987  17.7855006 139.9195017
 100.3019987   3.5685006 139.5365017 101.2589987   3.5685006 139.5365017
 100.0619987   4.4955006 139.5365017  98.5999987  13.9695006 138.5995017
  99.5569987  13.9695006 138.5995017  98.3599987  14.8965006 138.5995017
  96.9229987   6.6735006 137.7135017  97.8799987   6.6735006 137.7135017
  96.6829987   7.6005006 137.7135017  97.4919987   1.6745006 146.2905017
  98.4489987   1.6745006 146.2905017  97.2519987   2.6015006 146.2905017
  96.6709987  15.3835006 142.5475017  97.6279987  15.3835006 142.5475017
  96.4309987  16.3105006 142.5475017  95.8959987  18.0405006 153.8665017
  96.8529987  18.0405006 153.8665017  95.6559987  18.9675006 153.8665017
 100.5529987  16.9605006 155.4785017 101.5099987  16.9605006 155.4785017
 100.3129987  17.8875006 155.4785017 104.8609987  16.0825006 137.3635017
 105.8179987  16.0825006 137.3635017 104.6209987  17.0095006 137.3635017
 107.1369987  15.3415006 154.2115017 108.0939987  15.3415006 154.2115017
 106.8969987  16.2685006 154.2115017  95.8149987  11.8235006 154.8515017
  96.7719987  11.8235006 154.8515017  95.5749987  12.7505006 154.8515017
 100.3039987  12.1875006 137.0485017 101.2609987  12.1875006 137.0485017
 100.0639987  13.1145006 137.0485017 102.4989987  11.8005006 154.2545017
 103.4559987  11.8005006 154.2545017 102.2589987  12.7275006 154.2545017
 105.5679987  13.2225006 136.6625017 106.5249987  13.2225006 136.6625017
 105.3279987  14.1495006 136.6625017  96.7069987   9.0425006 154.2385017
  97.6639987   9.0425006 154.2385017  96.4669987   9.9695006 154.2385017
 101.3449987  10.1655006 139.2715017 102.3019987  10.1655006 139.2715017
 101.1049987  11.0925006 139.2715017 100.6189987   7.9985006 151.6045017
 101.5759987   7.9985006 151.6045017 100.3789987   8.9255006 151.6045017
 102.4549987   8.0745006 137.7985017 103.4119987   8.0745006 137.7985017
 102.2149987   9.0015006 137.7985017 105.6719987  10.5455006 154.9465017
 106.6289987  10.5455006 154.9465017 105.4319987  11.4725006 154.9465017
 101.0039987   5.3685006 152.6685017 101.9609987   5.3685006 152.6685017
 100.7639987   6.2955006 152.6685017 101.4169987   3.7425006 150.2055017
 102.3739987   3.7425006 150.2055017 101.1769987   4.6695006 150.2055017
 102.9779987   9.2185006 150.4525017 103.9349987   9.2185006 150.4525017
 102.7379987  10.1455006 150.4525017 107.3279987   7.1865006 155.4605017
 108.2849987   7.1865006 155.4605017 107.0879987   8.1135006 155.4605017
  99.4639987   6.6195006 154.5915017 100.4209987   6.6195006 154.5915017
  99.2239987   7.5465006 154.5915017 102.3009987   1.2485006 150.4605017
 103.2579987   1.2485006 150.4605017 102.0609987   2.1755006 150.4605017
 103.4809987   5.5115006 154.2135017 104.4379987   5.5115006 154.2135017
 103.2409987   6.4385006 154.2135017 106.1509987   4.6745006 153.3225017
 107.1079987   4.6745006 153.3225017 105.9109987   5.6015006 153.3225017
 107.7209987   3.1825006 155.1905017 108.6779987   3.1825006 155.1905017
 107.4809987   4.1095006 155.1905017  97.5639987   4.5235006 154.3305017
  98.5209987   4.5235006 154.3305017  97.3239987   5.4505006 154.3305017
 102.9759987 108.5115006 153.3515017 103.9329987 108.5115006 153.3515017
 102.7359987 109.4385006 153.3515017 102.7589987   2.2655006 155.4335017
 103.7159987   2.2655006 155.4335017 102.5189987   3.1925006 155.4335017
 102.2689987  19.1135006 138.5755017 103.2259987  19.1135006 138.5755017
 102.0289987  20.0405006 138.5755017  95.8189987  13.6315006 138.1265017
  96.7759987  13.6315006 138.1265017  95.5789987  14.5585006 138.1265017
  94.5799987  19.0765006 143.0325017  95.5369987  19.0765006 143.0325017
  94.3399987  20.0035006 143.0325017  95.4089987  17.1935006 144.8845017
  96.3659987  17.1935006 144.8845017  95.1689987  18.1205006 144.8845017
  95.4619987  10.2705006 147.3765017  96.4189987  10.2705006 147.3765017
  95.2219987  11.1975006 147.3765017  95.0809987   5.5755006 153.5195017
  96.0379987   5.5755006 153.5195017  94.8409987   6.5025006 153.5195017
  96.2529987   3.8995006 146.3835017  97.2099987   3.8995006 146.3835017
  96.0129987   4.8265006 146.3835017  94.5679987   6.8515006 147.4335017
  95.5249987   6.8515006 147.4335017  94.3279987   7.7785006 147.4335017
  94.9179987   3.1005006 141.5285017  95.8749987   3.1005006 141.5285017
  94.6779987   4.0275006 141.5285017  94.8919987   1.8185006 149.8115017
  95.8489987   1.8185006 149.8115017  94.6519987   2.7455006 149.8115017
  97.1059987  14.9835006 153.9665017  98.0629987  14.9835006 153.9665017
  96.8659987  15.9105006 153.9665017 100.0169987  15.9775006 150.2385017
 100.9739987  15.9775006 150.2385017  99.7769987  16.9045006 150.2385017
 104.3339987  17.4125006 153.1805017 105.2909987  17.4125006 153.1805017
 104.0939987  18.3395006 153.1805017 106.6779987  18.6905006 152.4115017
 107.6349987  18.6905006 152.4115017 106.4379987  19.6175006 152.4115017
  97.4419987  19.2255006 150.2495017  98.3989987  19.2255006 150.2495017
  97.2019987  20.1525006 150.2495017  99.9129987  18.8075006 149.3135017
 100.8699987  18.8075006 149.3135017  99.6729987  19.7345006 149.3135017
 104.5969987  18.7155006 148.4845017 105.5539987  18.7155006 148.4845017
 104.3569987  19.6425006 148.4845017 106.9389987  17.5835006 149.4965017
 107.8959987  17.5835006 149.4965017 106.6989987  18.5105006 149.4965017
  96.8769987  17.8725006 147.1795017  97.8339987  17.8725006 147.1795017
  96.6369987  18.7995006 147.1795017  98.9709987  16.5855006 145.8325017
  99.9279987  16.5855006 145.8325017  98.7309987  17.5125006 145.8325017
 101.5379987  17.0675006 146.7005017 102.4949987  17.0675006 146.7005017
 101.2979987  17.9945006 146.7005017 105.0119987   2.7375006 145.8385017
 105.9689987   2.7375006 145.8385017 104.7719987   3.6645006 145.8385017
  97.3499987   1.3255006 143.6815017  98.3069987   1.3255006 143.6815017
  97.1099987   2.2525006 143.6815017  96.4429987   1.5005006 139.8055017
  97.3999987   1.5005006 139.8055017  96.2029987   2.4275006 139.8055017
 101.9069987   1.3015006 143.4685017 102.8639987   1.3015006 143.4685017
 101.6669987   2.2285006 143.4685017 107.4099987   1.1825006 145.1525017
 108.3669987   1.1825006 145.1525017 107.1699987   2.1095006 145.1525017
  96.1289987  17.0685006 140.3715017  97.0859987  17.0685006 140.3715017
  95.8889987  17.9955006 140.3715017  98.0109987   3.0575006 137.9315017
  98.9679987   3.0575006 137.9315017  97.7709987   3.9845006 137.9315017
 102.9979987   3.3105006 140.3415017 103.9549987   3.3105006 140.3415017
 102.7579987   4.2375006 140.3415017 104.9159987  18.4095006 138.7435017
 105.8729987  18.4095006 138.7435017 104.6759987  19.3365006 138.7435017
  97.2669987   1.9045006 153.2085017  98.2239987   1.9045006 153.2085017
  97.0269987   2.8315006 153.2085017  99.2839987   1.2575006 154.7735017
 100.2409987   1.2575006 154.7735017  99.0439987   2.1845006 154.7735017
  98.0399987  18.0985006 137.4755017  98.9969987  18.0985006 137.4755017
  97.7999987  19.0255006 137.4755017   0.0119987 108.3925006 154.7905017
   0.9689987 108.3925006 154.7905017  -0.2280013 109.3195006 154.7905017
  12.1989987  29.3455006 143.5895017  13.1559987  29.3455006 143.5895017
  11.9589987  30.2725006 143.5895017  11.0759987  28.6015006 147.0665017
  12.0329987  28.6015006 147.0665017  10.8359987  29.5285006 147.0665017
   3.4759987  28.2325006 148.5895017   4.4329987  28.2325006 148.5895017
   3.2359987  29.1595006 148.5895017  14.7709987  31.5445006 145.3315017
  15.7279987  31.5445006 145.3315017  14.5309987  32.4715006 145.3315017
   4.3399987  32.7055006 147.1365017   5.2969987  32.7055006 147.1365017
   4.0999987  33.6325006 147.1365017   1.0639987  26.3835006 142.5375017
   2.0209987  26.3835006 142.5375017   0.8239987  27.3105006 142.5375017
   1.6879987  28.4735006 144.7185017   2.6449987  28.4735006 144.7185017
   1.4479987  29.4005006 144.7185017  11.8829987  36.6935006 145.5685017
  12.8399987  36.6935006 145.5685017  11.6429987  37.6205006 145.5685017
   9.4479987  31.0105006 147.4975017  10.4049987  31.0105006 147.4975017
   9.2079987  31.9375006 147.4975017  18.1419987  22.5375006 148.2555017
  19.0989987  22.5375006 148.2555017  17.9019987  23.4645006 148.2555017
  12.5809987  25.4625006 147.8195017  13.5379987  25.4625006 147.8195017
  12.3409987  26.3895006 147.8195017   5.7359987  23.5415006 145.0475017
   6.6929987  23.5415006 145.0475017   5.4959987  24.4685006 145.0475017
  13.4659987  23.6395006 143.4245017  14.4229987  23.6395006 143.4245017
  13.2259987  24.5665006 143.4245017   2.5429987  26.0045006 145.6945017
   3.4999987  26.0045006 145.6945017   2.3029987  26.9315006 145.6945017
   7.5189987  27.5135006 145.0795017   8.4759987  27.5135006 145.0795017
   7.2789987  28.4405006 145.0795017  18.8299987  23.7165006 151.0025017
  19.7869987  23.7165006 151.0025017  18.5899987  24.6435006 151.0025017
   4.6389987  22.4625006 149.1095017   5.5959987  22.4625006 149.1095017
   4.3989987  23.3895006 149.1095017  11.9329987  31.9435006 142.6355017
  12.8899987  31.9435006 142.6355017  11.6929987  32.8705006 142.6355017
   7.1539987  30.0975006 149.3565017   8.1109987  30.0975006 149.3565017
   6.9139987  31.0245006 149.3565017  15.2539987  22.9675006 145.4135017
  16.2109987  22.9675006 145.4135017  15.0139987  23.8945006 145.4135017
   4.2049987  24.2895006 147.1285017   5.1619987  24.2895006 147.1285017
   3.9649987  25.2165006 147.1285017   5.5919987  32.0855006 150.1595017
   6.5489987  32.0855006 150.1595017   5.3519987  33.0125006 150.1595017
   1.7069987  31.7345006 140.9605017   2.6639987  31.7345006 140.9605017
   1.4669987  32.6615006 140.9605017  15.2929987  33.3785006 147.7015017
  16.2499987  33.3785006 147.7015017  15.0529987  34.3055006 147.7015017
  15.6039987  21.6615006 149.0875017  16.5609987  21.6615006 149.0875017
  15.3639987  22.5885006 149.0875017   8.5909987  19.7795006 146.5965017
   9.5479987  19.7795006 146.5965017   8.3509987  20.7065006 146.5965017
  13.5459987  35.1635006 144.3045017  14.5029987  35.1635006 144.3045017
  13.3059987  36.0905006 144.3045017  14.7449987  33.0865006 142.8225017
  15.7019987  33.0865006 142.8225017  14.5049987  34.0135006 142.8225017
  16.3849987  31.6735006 151.3045017  17.3419987  31.6735006 151.3045017
  16.1449987  32.6005006 151.3045017  10.8809987  28.5835006 141.0805017
  11.8379987  28.5835006 141.0805017  10.6409987  29.5105006 141.0805017
  10.9349987  27.1405006 138.3345017  11.8919987  27.1405006 138.3345017
  10.6949987  28.0675006 138.3345017  18.3359987  28.1195006 149.4035017
  19.2929987  28.1195006 149.4035017  18.0959987  29.0465006 149.4035017
  14.3039987  28.8025006 142.0135017  15.2609987  28.8025006 142.0135017
  14.0639987  29.7295006 142.0135017  13.7909987  26.9755006 151.2735017
  14.7479987  26.9755006 151.2735017  13.5509987  27.9025006 151.2735017
   5.9509987  29.4615006 143.9115017   6.9079987  29.4615006 143.9115017
   5.7109987  30.3885006 143.9115017   7.2599987  32.8495006 146.5865017
   8.2169987  32.8495006 146.5865017   7.0199987  33.7765006 146.5865017
   6.2849987  28.1965006 147.5605017   7.2419987  28.1965006 147.5605017
   6.0449987  29.1235006 147.5605017  12.6449987  33.7595006 148.2625017
  13.6019987  33.7595006 148.2625017  12.4049987  34.6865006 148.2625017
   7.2059987  32.6165006 152.2615017   8.1629987  32.6165006 152.2615017
   6.9659987  33.5435006 152.2615017  13.1669987  27.9635006 139.6725017
  14.1239987  27.9635006 139.6725017  12.9269987  28.8905006 139.6725017
   4.1289987  28.7975006 151.4355017   5.0859987  28.7975006 151.4355017
   3.8889987  29.7245006 151.4355017  10.8929987  34.7015006 143.1495017
  11.8499987  34.7015006 143.1495017  10.6529987  35.6285006 143.1495017
   5.4409987  34.6655006 153.0175017   6.3979987  34.6655006 153.0175017
   5.2009987  35.5925006 153.0175017  16.9079987  19.7065006 139.4915017
  17.8649987  19.7065006 139.4915017  16.6679987  20.6335006 139.4915017
   4.9219987  28.4955006 141.5275017   5.8789987  28.4955006 141.5275017
   4.6819987  29.4225006 141.5275017  18.0349987  34.0425006 137.9545017
  18.9919987  34.0425006 137.9545017  17.7949987  34.9695006 137.9545017
   1.1249987  30.8675006 150.3425017   2.0819987  30.8675006 150.3425017
   0.8849987  31.7945006 150.3425017   1.0109987  33.7695006 146.9175017
   1.9679987  33.7695006 146.9175017   0.7709987  34.6965006 146.9175017
  18.9829987  34.3405006 152.8955017  19.9399987  34.3405006 152.8955017
  18.7429987  35.2675006 152.8955017   9.9459987  33.8795006 151.7445017
  10.9029987  33.8795006 151.7445017   9.7059987  34.8065006 151.7445017
  10.3589987  37.6295006 141.5255017  11.3159987  37.6295006 141.5255017
  10.1189987  38.5565006 141.5255017   4.0219987  36.4845006 143.3395017
   4.9789987  36.4845006 143.3395017   3.7819987  37.4115006 143.3395017
  13.3799987  36.8505006 138.5235017  14.3369987  36.8505006 138.5235017
  13.1399987  37.7775006 138.5235017  13.1249987  36.7685006 141.3105017
  14.0819987  36.7685006 141.3105017  12.8849987  37.6955006 141.3105017
  16.0869987  25.7985006 153.4045017  17.0439987  25.7985006 153.4045017
  15.8469987  26.7255006 153.4045017   3.2599987  32.2475006 151.3665017
   4.2169987  32.2475006 151.3665017   3.0199987  33.1745006 151.3665017
   5.9439987  20.6875006 147.3335017   6.9009987  20.6875006 147.3335017
   5.7039987  21.6145006 147.3335017  10.8939987  20.1575006 150.6775017
  11.8509987  20.1575006 150.6775017  10.6539987  21.0845006 150.6775017
  13.8409987  24.1605006 151.5435017  14.7979987  24.1605006 151.5435017
  13.6009987  25.0875006 151.5435017  14.7829987  29.0785006 137.8345017
  15.7399987  29.0785006 137.8345017  14.5429987  30.0055006 137.8345017
  10.2389987  22.9205006 138.0105017  11.1959987  22.9205006 138.0105017
   9.9989987  23.8475006 138.0105017   6.0509987  25.6415006 148.5465017
   7.0079987  25.6415006 148.5465017   5.8109987  26.5685006 148.5465017
   5.9849987  25.8045006 143.4125017   6.9419987  25.8045006 143.4125017
   5.7449987  26.7315006 143.4125017  11.5189987  26.2595006 142.1695017
  12.4759987  26.2595006 142.1695017  11.2789987  27.1865006 142.1695017
  10.6049987  26.4665006 153.6275017  11.5619987  26.4665006 153.6275017
  10.3649987  27.3935006 153.6275017  12.5509987  25.7535006 145.0325017
  13.5079987  25.7535006 145.0325017  12.3109987  26.6805006 145.0325017
   3.7119987  25.9225006 150.2625017   4.6689987  25.9225006 150.2625017
   3.4719987  26.8495006 150.2625017   7.1199987  23.2675006 137.2575017
   8.0769987  23.2675006 137.2575017   6.8799987  24.1945006 137.2575017
   0.4279987  22.3465006 144.5395017   1.3849987  22.3465006 144.5395017
   0.1879987  23.2735006 144.5395017   1.8029987  23.7605006 139.6785017
   2.7599987  23.7605006 139.6785017   1.5629987  24.6875006 139.6785017
  11.7389987  27.3645006 149.5815017  12.6959987  27.3645006 149.5815017
  11.4989987  28.2915006 149.5815017   8.5649987  23.3155006 144.4265017
   9.5219987  23.3155006 144.4265017   8.3249987  24.2425006 144.4265017
   3.3919987  24.8695006 143.2835017   4.3489987  24.8695006 143.2835017
   3.1519987  25.7965006 143.2835017   7.0169987  24.9455006 140.9495017
   7.9739987  24.9455006 140.9495017   6.7769987  25.8725006 140.9495017
  12.9619987  22.5395006 147.6845017  13.9189987  22.5395006 147.6845017
  12.7219987  23.4665006 147.6845017   5.6889987  26.1365006 138.4995017
   6.6459987  26.1365006 138.4995017   5.4489987  27.0635006 138.4995017
  16.1869987  38.2035006 153.9965017  17.1439987  38.2035006 153.9965017
  15.9469987  39.1305006 153.9965017   3.8659987  30.7395006 153.5475017
   4.8229987  30.7395006 153.5475017   3.6259987  31.6665006 153.5475017
   9.8569987  26.0845006 146.3225017  10.8139987  26.0845006 146.3225017
   9.6169987  27.0115006 146.3225017   4.8559987  22.2345006 142.7445017
   5.8129987  22.2345006 142.7445017   4.6159987  23.1615006 142.7445017
   8.4799987  24.3905006 148.7825017   9.4369987  24.3905006 148.7825017
   8.2399987  25.3175006 148.7825017   9.0789987  30.6445006 140.4265017
  10.0359987  30.6445006 140.4265017   8.8389987  31.5715006 140.4265017
  16.2239987  29.8525006 149.2465017  17.1809987  29.8525006 149.2465017
  15.9839987  30.7795006 149.2465017  12.9379987  23.4745006 138.5645017
  13.8949987  23.4745006 138.5645017  12.6979987  24.4015006 138.5645017
  10.5679987  30.8855006 151.6735017  11.5249987  30.8855006 151.6735017
  10.3279987  31.8125006 151.6735017  13.6469987  25.3445006 140.2805017
  14.6039987  25.3445006 140.2805017  13.4069987  26.2715006 140.2805017
   4.1839987  30.0195006 146.2305017   5.1409987  30.0195006 146.2305017
   3.9439987  30.9465006 146.2305017  11.1779987  32.0965006 139.4555017
  12.1349987  32.0965006 139.4555017  10.9379987  33.0235006 139.4555017
   1.1499987  28.4465006 151.5195017   2.1069987  28.4465006 151.5195017
   0.9099987  29.3735006 151.5195017   8.1899987  27.9885006 153.6945017
   9.1469987  27.9885006 153.6945017   7.9499987  28.9155006 153.6945017
  12.8599987  33.3215006 151.6165017  13.8169987  33.3215006 151.6165017
  12.6199987  34.2485006 151.6165017  18.5919987  25.5215006 140.0445017
  19.5489987  25.5215006 140.0445017  18.3519987  26.4485006 140.0445017
  18.5329987  31.3925006 152.8495017  19.4899987  31.3925006 152.8495017
  18.2929987  32.3195006 152.8495017  16.8669987  34.3305006 140.4285017
  17.8239987  34.3305006 140.4285017  16.6269987  35.2575006 140.4285017
  14.0269987  29.1685006 147.4975017  14.9839987  29.1685006 147.4975017
  13.7869987  30.0955006 147.4975017   6.5689987  33.4735006 143.6155017
   7.5259987  33.4735006 143.6155017   6.3289987  34.4005006 143.6155017
   2.3069987  28.3105006 138.2075017   3.2639987  28.3105006 138.2075017
   2.0669987  29.2375006 138.2075017   7.9829987  31.1455006 143.1415017
   8.9399987  31.1455006 143.1415017   7.7429987  32.0725006 143.1415017
   8.4319987  35.3255006 149.5335017   9.3889987  35.3255006 149.5335017
   8.1919987  36.2525006 149.5335017   6.6609987  36.1465006 142.6945017
   7.6179987  36.1465006 142.6945017   6.4209987  37.0735006 142.6945017
  11.9819987  31.3495006 149.1755017  12.9389987  31.3495006 149.1755017
  11.7419987  32.2765006 149.1755017  14.2339987  32.3795006 138.2625017
  15.1909987  32.3795006 138.2625017  13.9939987  33.3065006 138.2625017
  14.7449987  35.9235006 151.6685017  15.7019987  35.9235006 151.6685017
  14.5049987  36.8505006 151.6685017  18.7589987  36.7715006 138.5395017
  19.7159987  36.7715006 138.5395017  18.5189987  37.6985006 138.5395017
   2.7999987  23.1725006 151.0235017   3.7569987  23.1725006 151.0235017
   2.5599987  24.0995006 151.0235017  15.0749987  31.0325006 140.5055017
  16.0319987  31.0325006 140.5055017  14.8349987  31.9595006 140.5055017
   2.4749987  34.9725006 149.4635017   3.4319987  34.9725006 149.4635017
   2.2349987  35.8995006 149.4635017   8.4929987  33.4545006 136.7905017
   9.4499987  33.4545006 136.7905017   8.2529987  34.3815006 136.7905017
   7.2259987  33.0135006 139.1805017   8.1829987  33.0135006 139.1805017
   6.9859987  33.9405006 139.1805017   3.6739987  30.2465006 139.6325017
   4.6309987  30.2465006 139.6325017   3.4339987  31.1735006 139.6325017
  11.5079987  22.9385006 150.0295017  12.4649987  22.9385006 150.0295017
  11.2679987  23.8655006 150.0295017  12.2959987  22.5495006 141.0835017
  13.2529987  22.5495006 141.0835017  12.0559987  23.4765006 141.0835017
   9.9949987  34.6835006 139.9515017  10.9519987  34.6835006 139.9515017
   9.7549987  35.6105006 139.9515017   9.5279987  24.2805006 141.8955017
  10.4849987  24.2805006 141.8955017   9.2879987  25.2075006 141.8955017
  10.0519987  25.2215006 151.1135017  11.0089987  25.2215006 151.1135017
   9.8119987  26.1485006 151.1135017  10.3969987  21.3355006 142.8155017
  11.3539987  21.3355006 142.8155017  10.1569987  22.2625006 142.8155017
   7.3679987  35.7155006 139.9265017   8.3249987  35.7155006 139.9265017
   7.1279987  36.6425006 139.9265017   6.0319987  22.4265006 139.5355017
   6.9889987  22.4265006 139.5355017   5.7919987  23.3535006 139.5355017
  16.2709987  23.1665006 151.9385017  17.2279987  23.1665006 151.9385017
  16.0309987  24.0935006 151.9385017  14.8299987  26.9985006 145.9505017
  15.7869987  26.9985006 145.9505017  14.5899987  27.9255006 145.9505017
   4.3119987  32.8455006 138.5735017   5.2689987  32.8455006 138.5735017
   4.0719987  33.7725006 138.5735017   2.6029987  25.5265006 137.7905017
   3.5599987  25.5265006 137.7905017   2.3629987  26.4535006 137.7905017
  15.9419987  36.1975006 147.6355017  16.8989987  36.1975006 147.6355017
  15.7019987  37.1245006 147.6355017   3.4609987  20.3295006 146.3965017
   4.4179987  20.3295006 146.3965017   3.2209987  21.2565006 146.3965017
   2.3849987  34.2525006 142.5605017   3.3419987  34.2525006 142.5605017
   2.1449987  35.1795006 142.5605017   1.7129987  36.8395006 153.8005017
   2.6699987  36.8395006 153.8005017   1.4729987  37.7665006 153.8005017
   6.2759987  35.8125006 155.4825017   7.2329987  35.8125006 155.4825017
   6.0359987  36.7395006 155.4825017  10.5759987  34.9405006 137.3695017
  11.5329987  34.9405006 137.3695017  10.3359987  35.8675006 137.3695017
  12.8019987  34.1945006 154.2135017  13.7589987  34.1945006 154.2135017
  12.5619987  35.1215006 154.2135017  14.7699987  35.0335006 137.2615017
  15.7269987  35.0335006 137.2615017  14.5299987  35.9605006 137.2615017
   1.4929987  30.7445006 154.8565017   2.4499987  30.7445006 154.8565017
   1.2529987  31.6715006 154.8565017   6.0249987  31.0445006 137.0485017
   6.9819987  31.0445006 137.0485017   5.7849987  31.9715006 137.0485017
   8.2369987  30.6595006 154.2475017   9.1939987  30.6595006 154.2475017
   7.9969987  31.5865006 154.2475017  11.2099987  32.0835006 136.6555017
  12.1669987  32.0835006 136.6555017  10.9699987  33.0105006 136.6555017
  13.9249987  30.5265006 151.6355017  14.8819987  30.5265006 151.6355017
  13.6849987  31.4535006 151.6355017   2.6669987  28.4805006 154.4085017
   3.6239987  28.4805006 154.4085017   2.4269987  29.4075006 154.4085017
   7.0639987  29.0215006 139.2715017   8.0209987  29.0215006 139.2715017
   6.8239987  29.9485006 139.2715017   6.3599987  26.8525006 151.6035017
   7.3169987  26.8525006 151.6035017   6.1199987  27.7795006 151.6035017
   8.1819987  26.9305006 137.7975017   9.1389987  26.9305006 137.7975017
   7.9419987  27.8575006 137.7975017  11.3959987  29.4005006 154.9195017
  12.3529987  29.4005006 154.9195017  11.1559987  30.3275006 154.9195017
  17.5659987  29.7855006 137.2885017  18.5229987  29.7855006 137.2885017
  17.3259987  30.7125006 137.2885017   6.7659987  24.2235006 152.6735017
   7.7229987  24.2235006 152.6735017   6.5259987  25.1505006 152.6735017
   7.0639987  22.6435006 150.1635017   8.0209987  22.6435006 150.1635017
   6.8239987  23.5705006 150.1635017   8.6819987  28.0745006 150.4495017
   9.6389987  28.0745006 150.4495017   8.4419987  29.0015006 150.4495017
  13.0759987  25.8495006 155.4625017  14.0329987  25.8495006 155.4625017
  12.8359987  26.7765006 155.4625017  14.4149987  28.6435006 153.5745017
  15.3719987  28.6435006 153.5745017  14.1749987  29.5705006 153.5745017
   5.2209987  25.4485006 154.6345017   6.1779987  25.4485006 154.6345017
   4.9809987  26.3755006 154.6345017   7.3259987  19.8405006 150.7345017
   8.2829987  19.8405006 150.7345017   7.0859987  20.7675006 150.7345017
   9.2069987  24.3275006 154.1845017  10.1639987  24.3275006 154.1845017
   8.9669987  25.2545006 154.1845017  11.8729987  23.4385006 153.2445017
  12.8299987  23.4385006 153.2445017  11.6329987  24.3655006 153.2445017
  13.5069987  22.1425006 155.2305017  14.4639987  22.1425006 155.2305017
  13.2669987  23.0695006 155.2305017   3.4529987  23.3275006 154.3495017
   4.4099987  23.3275006 154.3495017   3.2129987  24.2545006 154.3495017
   8.2019987  19.4685006 153.2825017   9.1589987  19.4685006 153.2825017
   7.9619987  20.3955006 153.2825017   8.5219987  21.0615006 155.3735017
   9.4789987  21.0615006 155.3735017   8.2819987  21.9885006 155.3735017
   7.9859987  37.9645006 138.5745017   8.9429987  37.9645006 138.5745017
   7.7459987  38.8915006 138.5745017   1.5679987  32.4555006 138.1165017
   2.5249987  32.4555006 138.1165017   1.3279987  33.3825006 138.1165017
 108.0929987  37.9815006 143.0435017 109.0499987  37.9815006 143.0435017
 107.8529987  38.9085006 143.0435017   1.5119987  36.1995006 144.9965017
   2.4689987  36.1995006 144.9965017   1.2719987  37.1265006 144.9965017
  18.6619987  36.8475006 147.8355017  19.6189987  36.8475006 147.8355017
  18.4219987  37.7745006 147.8355017  18.2419987  36.4395006 150.7725017
  19.1989987  36.4395006 150.7725017  18.0019987  37.3665006 150.7725017
  16.6809987  32.1735006 155.4425017  17.6379987  32.1735006 155.4425017
  16.4409987  33.1005006 155.4425017  17.9959987  30.4915006 140.8925017
  18.9529987  30.4915006 140.8925017  17.7559987  31.4185006 140.8925017
  18.3569987  28.5655006 142.7545017  19.3139987  28.5655006 142.7545017
  18.1169987  29.4925006 142.7545017  18.0999987  31.2875006 147.7035017
  19.0569987  31.2875006 147.7035017  17.8599987  32.2145006 147.7035017
  16.6669987  34.1715006 150.0195017  17.6239987  34.1715006 150.0195017
  16.4269987  35.0985006 150.0195017  18.6999987  28.3805006 139.1675017
  19.6569987  28.3805006 139.1675017  18.4599987  29.3075006 139.1675017
  17.1239987  25.5555006 137.9075017  18.0809987  25.5555006 137.9075017
  16.8839987  26.4825006 137.9075017  16.1729987  27.0455006 143.3255017
  17.1299987  27.0455006 143.3255017  15.9329987  27.9725006 143.3255017
   1.1829987  29.1135006 147.3845017   2.1399987  29.1135006 147.3845017
   0.9429987  30.0405006 147.3845017  17.0179987  29.0195006 153.0405017
  17.9749987  29.0195006 153.0405017  16.7779987  29.9465006 153.0405017
  18.5349987  26.9005006 153.7005017  19.4919987  26.9005006 153.7005017
  18.2949987  27.8275006 153.7005017  16.2049987  23.1175006 136.9715017
  17.1619987  23.1175006 136.9715017  15.9649987  24.0445006 136.9715017
  15.8439987  24.6325006 141.7855017  16.8009987  24.6325006 141.7855017
  15.6039987  25.5595006 141.7855017  16.2869987  25.1595006 146.8835017
  17.2439987  25.1595006 146.8835017  16.0469987  26.0865006 146.8835017
  16.1609987  26.6765006 150.7675017  17.1179987  26.6765006 150.7675017
  15.9209987  27.6035006 150.7675017   0.7819987  23.7385006 153.1475017
   1.7389987  23.7385006 153.1475017   0.5419987  24.6655006 153.1475017
  18.8179987  19.9295006 155.3735017  19.7749987  19.9295006 155.3735017
  18.5779987  20.8565006 155.3735017  16.5159987  21.9075006 141.8375017
  17.4729987  21.9075006 141.8375017  16.2759987  22.8345006 141.8375017
   2.0859987  22.7445006 146.3735017   3.0429987  22.7445006 146.3735017
   1.8459987  23.6715006 146.3735017   0.8879987  25.6795006 147.5775017
   1.8449987  25.6795006 147.5775017   0.6479987  26.6065006 147.5775017
  18.3459987  22.0175006 153.7365017  19.3029987  22.0175006 153.7365017
  18.1059987  22.9445006 153.7365017  18.4059987  21.8775006 138.5895017
  19.3629987  21.8775006 138.5895017  18.1659987  22.8045006 138.5895017
   0.8859987  21.9335006 141.5095017   1.8429987  21.9335006 141.5095017
   0.6459987  22.8605006 141.5095017  15.3869987  36.9275006 143.4485017
  16.3439987  36.9275006 143.4485017  15.1469987  37.8545006 143.4485017
 108.3299987  20.6265006 149.8335017 109.2869987  20.6265006 149.8335017
 108.0899987  21.5535006 149.8335017   2.8199987  33.9025006 153.9855017
   3.7769987  33.9025006 153.9855017   2.5799987  34.8295006 153.9855017
   5.7349987  34.8355006 150.2415017   6.6919987  34.8355006 150.2415017
   5.4949987  35.7625006 150.2415017  10.0569987  36.2595006 153.1565017
  11.0139987  36.2595006 153.1565017   9.8169987  37.1865006 153.1565017
  12.3549987  37.5295006 152.4455017  13.3119987  37.5295006 152.4455017
  12.1149987  38.4565006 152.4455017  17.3419987  20.1195006 151.5695017
  18.2989987  20.1195006 151.5695017  17.1019987  21.0465006 151.5695017
   3.1499987  38.0915006 150.2725017   4.1069987  38.0915006 150.2725017
   2.9099987  39.0185006 150.2725017   5.6469987  37.6735006 149.3165017
   6.6039987  37.6735006 149.3165017   5.4069987  38.6005006 149.3165017
  10.3349987  37.5715006 148.4805017  11.2919987  37.5715006 148.4805017
  10.0949987  38.4985006 148.4805017  12.6419987  36.4025006 149.4785017
  13.5989987  36.4025006 149.4785017  12.4019987  37.3295006 149.4785017
  15.2239987  37.9675006 149.7345017  16.1809987  37.9675006 149.7345017
  14.9839987  38.8945006 149.7345017   2.6369987  36.7495006 147.2375017
   3.5939987  36.7495006 147.2375017   2.3969987  37.6765006 147.2375017
   4.6819987  35.4395006 145.8325017   5.6389987  35.4395006 145.8325017
   4.4419987  36.3665006 145.8325017   7.2689987  35.9195006 146.7045017
   8.2259987  35.9195006 146.7045017   7.0289987  36.8465006 146.7045017
  10.7479987  21.5705006 145.8825017  11.7049987  21.5705006 145.8825017
  10.5079987  22.4975006 145.8825017  15.8889987  19.6415006 145.9365017
  16.8459987  19.6415006 145.9365017  15.6489987  20.5685006 145.9365017
  17.5759987  20.8445006 144.2455017  18.5329987  20.8445006 144.2455017
  17.3359987  21.7715006 144.2455017   3.1279987  20.1975006 143.6575017
   4.0849987  20.1975006 143.6575017   2.8879987  21.1245006 143.6575017
   1.9499987  19.9745006 139.4725017   2.9069987  19.9745006 139.4725017
   1.7099987  20.9015006 139.4725017   7.6149987  20.1245006 143.4765017
   8.5719987  20.1245006 143.4765017   7.3749987  21.0515006 143.4765017
  13.2809987  20.1495006 145.1165017  14.2379987  20.1495006 145.1165017
  13.0409987  21.0765006 145.1165017  14.5849987  20.1805006 140.7505017
  15.5419987  20.1805006 140.7505017  14.3449987  21.1075006 140.7505017
   1.9519987  35.9485006 140.3585017   2.9089987  35.9485006 140.3585017
   1.7119987  36.8755006 140.3585017   3.7459987  21.9065006 137.9505017
   4.7029987  21.9065006 137.9505017   3.5059987  22.8335006 137.9505017
   8.7699987  22.1655006 140.3445017   9.7269987  22.1655006 140.3445017
   8.5299987  23.0925006 140.3445017  10.6589987  37.2655006 138.7485017
  11.6159987  37.2655006 138.7485017  10.4189987  38.1925006 138.7485017
  17.3969987  36.7305006 141.4825017  18.3539987  36.7305006 141.4825017
  17.1569987  37.6575006 141.4825017   2.9939987  20.7225006 153.1385017
   3.9509987  20.7225006 153.1385017   2.7539987  21.6495006 153.1385017
   5.0259987  20.1105006 154.7535017   5.9829987  20.1105006 154.7535017
   4.7859987  21.0375006 154.7535017   3.7539987  36.9405006 137.4645017
   4.7109987  36.9405006 137.4645017   3.5139987  37.8675006 137.4645017
  13.4239987  19.4245006 154.9285017  14.3809987  19.4245006 154.9285017
  13.1839987  20.3515006 154.9285017  16.6239987  35.4565006 153.5805017
  17.5809987  35.4565006 153.5805017  16.3839987  36.3835006 153.5805017
  31.0549987  29.3455006 143.5895017  32.0119987  29.3455006 143.5895017
  30.8149987  30.2725006 143.5895017  29.9209987  28.6055006 147.0605017
  30.8779987  28.6055006 147.0605017  29.6809987  29.5325006 147.0605017
  22.3289987  28.1795006 148.5685017  23.2859987  28.1795006 148.5685017
  22.0889987  29.1065006 148.5685017  33.6279987  31.5445006 145.3325017
  34.5849987  31.5445006 145.3325017  33.3879987  32.4715006 145.3325017
  23.3999987  32.8425006 146.7735017  24.3569987  32.8425006 146.7735017
  23.1599987  33.7695006 146.7735017  19.8429987  26.2705006 142.6065017
  20.7999987  26.2705006 142.6065017  19.6029987  27.1975006 142.6065017
  20.5219987  28.4605006 144.6825017  21.4789987  28.4605006 144.6825017
  20.2819987  29.3875006 144.6825017  30.7389987  36.6935006 145.5695017
  31.6959987  36.6935006 145.5695017  30.4989987  37.6205006 145.5695017
  28.2999987  31.0125006 147.5035017  29.2569987  31.0125006 147.5035017
  28.0599987  31.9395006 147.5035017  36.9239987  22.6445006 148.2675017
  37.8809987  22.6445006 148.2675017  36.6839987  23.5715006 148.2675017
  31.4689987  25.4645006 147.8235017  32.4259987  25.4645006 147.8235017
  31.2289987  26.3915006 147.8235017  24.5319987  23.5555006 145.0585017
  25.4889987  23.5555006 145.0585017  24.2919987  24.4825006 145.0585017
  32.3219987  23.6405006 143.4265017  33.2789987  23.6405006 143.4265017
  32.0819987  24.5675006 143.4265017  21.3399987  25.9755006 145.7395017
  22.2969987  25.9755006 145.7395017  21.0999987  26.9025006 145.7395017
  26.3829987  27.5195006 145.0805017  27.3399987  27.5195006 145.0805017
  26.1429987  28.4465006 145.0805017  37.3689987  24.0875006 150.5175017
  38.3259987  24.0875006 150.5175017  37.1289987  25.0145006 150.5175017
  23.4579987  22.4465006 149.0915017  24.4149987  22.4465006 149.0915017
  23.2179987  23.3735006 149.0915017  30.7889987  31.9435006 142.6355017
  31.7459987  31.9435006 142.6355017  30.5489987  32.8705006 142.6355017
  26.0199987  30.0975006 149.3685017  26.9769987  30.0975006 149.3685017
  25.7799987  31.0245006 149.3685017  34.1169987  22.9755006 145.4185017
  35.0739987  22.9755006 145.4185017  33.8769987  23.9025006 145.4185017
  23.0369987  24.3155006 147.0715017  23.9939987  24.3155006 147.0715017
  22.7969987  25.2425006 147.0715017  24.4909987  32.1195006 150.2375017
  25.4479987  32.1195006 150.2375017  24.2509987  33.0465006 150.2375017
  20.5339987  31.7195006 140.9865017  21.4909987  31.7195006 140.9865017
  20.2939987  32.6465006 140.9865017  34.1499987  33.3785006 147.7025017
  35.1069987  33.3785006 147.7025017  33.9099987  34.3055006 147.7025017
  34.4599987  21.6675006 149.0975017  35.4169987  21.6675006 149.0975017
  34.2199987  22.5945006 149.0975017  27.4479987  19.7795006 146.5605017
  28.4049987  19.7795006 146.5605017  27.2079987  20.7065006 146.5605017
  32.4019987  35.1635006 144.3045017  33.3589987  35.1635006 144.3045017
  32.1619987  36.0905006 144.3045017  33.6009987  33.0865006 142.8225017
  34.5579987  33.0865006 142.8225017  33.3609987  34.0135006 142.8225017
  35.2399987  31.6715006 151.3075017  36.1969987  31.6715006 151.3075017
  34.9999987  32.5985006 151.3075017  29.7389987  28.5845006 141.0805017
  30.6959987  28.5845006 141.0805017  29.4989987  29.5115006 141.0805017
  29.7899987  27.1395006 138.3335017  30.7469987  27.1395006 138.3335017
  29.5499987  28.0665006 138.3335017  37.1149987  27.9855006 149.3605017
  38.0719987  27.9855006 149.3605017  36.8749987  28.9125006 149.3605017
  33.1609987  28.8015006 142.0145017  34.1179987  28.8015006 142.0145017
  32.9209987  29.7285006 142.0145017  33.0909987  26.9535006 151.1055017
  34.0479987  26.9535006 151.1055017  32.8509987  27.8805006 151.1055017
  24.8019987  29.4505006 143.8875017  25.7589987  29.4505006 143.8875017
  24.5619987  30.3775006 143.8875017  26.1589987  32.8825006 146.5775017
  27.1159987  32.8825006 146.5775017  25.9189987  33.8095006 146.5775017
  25.1469987  28.1665006 147.5635017  26.1039987  28.1665006 147.5635017
  24.9069987  29.0935006 147.5635017  31.5099987  33.7555006 148.2665017
  32.4669987  33.7555006 148.2665017  31.2699987  34.6825006 148.2665017
  26.0739987  32.6245006 152.2665017  27.0309987  32.6245006 152.2665017
  25.8339987  33.5515006 152.2665017  32.0229987  27.9635006 139.6725017
  32.9799987  27.9635006 139.6725017  31.7829987  28.8905006 139.6725017
  22.9959987  28.7675006 151.4525017  23.9529987  28.7675006 151.4525017
  22.7559987  29.6945006 151.4525017  29.7489987  34.7015006 143.1495017
  30.7059987  34.7015006 143.1495017  29.5089987  35.6285006 143.1495017
  24.3049987  34.6805006 153.0245017  25.2619987  34.6805006 153.0245017
  24.0649987  35.6075006 153.0245017  35.7639987  19.7055006 139.4905017
  36.7209987  19.7055006 139.4905017  35.5239987  20.6325006 139.4905017
  23.7729987  28.4775006 141.4945017  24.7299987  28.4775006 141.4945017
  23.5329987  29.4045006 141.4945017  36.8899987  34.0435006 137.9555017
  37.8469987  34.0435006 137.9555017  36.6499987  34.9705006 137.9555017
  19.6619987  30.8715006 150.4835017  20.6189987  30.8715006 150.4835017
  19.4219987  31.7985006 150.4835017  19.5999987  33.6715006 147.1595017
  20.5569987  33.6715006 147.1595017  19.3599987  34.5985006 147.1595017
  37.8419987  34.3345006 152.8685017  38.7989987  34.3345006 152.8685017
  37.6019987  35.2615006 152.8685017  28.8019987  33.8795006 151.7445017
  29.7589987  33.8795006 151.7445017  28.5619987  34.8065006 151.7445017
  29.2149987  37.6285006 141.5255017  30.1719987  37.6285006 141.5255017
  28.9749987  38.5555006 141.5255017  22.8769987  36.4945006 143.3605017
  23.8339987  36.4945006 143.3605017  22.6369987  37.4215006 143.3605017
  32.2379987  36.8525006 138.5245017  33.1949987  36.8525006 138.5245017
  31.9979987  37.7795006 138.5245017  31.9809987  36.7695006 141.3105017
  32.9379987  36.7695006 141.3105017  31.7409987  37.6965006 141.3105017
  34.9859987  25.8075006 153.3615017  35.9429987  25.8075006 153.3615017
  34.7459987  26.7345006 153.3615017  22.1009987  32.3105006 151.5045017
  23.0579987  32.3105006 151.5045017  21.8609987  33.2375006 151.5045017
  24.8019987  20.6845006 147.3075017  25.7589987  20.6845006 147.3075017
  24.5619987  21.6115006 147.3075017  29.4399987  20.3665006 150.6855017
  30.3969987  20.3665006 150.6855017  29.1999987  21.2935006 150.6855017
  32.7409987  24.1835006 151.5735017  33.6979987  24.1835006 151.5735017
  32.5009987  25.1105006 151.5735017  33.6389987  29.0785006 137.8345017
  34.5959987  29.0785006 137.8345017  33.3989987  30.0055006 137.8345017
  29.0939987  22.9205006 138.0095017  30.0509987  22.9205006 138.0095017
  28.8539987  23.8475006 138.0095017  24.8759987  25.6405006 148.5125017
  25.8329987  25.6405006 148.5125017  24.6359987  26.5675006 148.5125017
  24.8709987  25.7725006 143.4305017  25.8279987  25.7725006 143.4305017
  24.6309987  26.6995006 143.4305017  30.3739987  26.2625006 142.1675017
  31.3309987  26.2625006 142.1675017  30.1339987  27.1895006 142.1675017
  29.4549987  26.4815006 153.6415017  30.4119987  26.4815006 153.6415017
  29.2149987  27.4085006 153.6415017  31.4089987  25.7545006 145.0305017
  32.3659987  25.7545006 145.0305017  31.1689987  26.6815006 145.0305017
  22.5839987  25.8995006 150.2725017  23.5409987  25.8995006 150.2725017
  22.3439987  26.8265006 150.2725017  25.9619987  23.3085006 137.2715017
  26.9189987  23.3085006 137.2715017  25.7219987  24.2355006 137.2715017
  19.1829987  23.0645006 144.1705017  20.1399987  23.0645006 144.1705017
  18.9429987  23.9915006 144.1705017  20.4619987  23.7435006 139.5875017
  21.4189987  23.7435006 139.5875017  20.2219987  24.6705006 139.5875017
  30.6259987  27.3595006 149.6175017  31.5829987  27.3595006 149.6175017
  30.3859987  28.2865006 149.6175017  27.4119987  23.3115006 144.4275017
  28.3689987  23.3115006 144.4275017  27.1719987  24.2385006 144.4275017
  22.2939987  25.0745006 143.1235017  23.2509987  25.0745006 143.1235017
  22.0539987  26.0015006 143.1235017  25.8599987  24.9375006 140.9575017
  26.8169987  24.9375006 140.9575017  25.6199987  25.8645006 140.9575017
  31.8249987  22.5555006 147.6825017  32.7819987  22.5555006 147.6825017
  31.5849987  23.4825006 147.6825017  24.6109987  26.1165006 138.5715017
  25.5679987  26.1165006 138.5715017  24.3709987  27.0435006 138.5715017
  35.0439987  38.1995006 154.0025017  36.0009987  38.1995006 154.0025017
  34.8039987  39.1265006 154.0025017  22.7249987  30.6315006 153.6015017
  23.6819987  30.6315006 153.6015017  22.4849987  31.5585006 153.6015017
  28.7109987  26.0815006 146.3265017  29.6679987  26.0815006 146.3265017
  28.4709987  27.0085006 146.3265017  23.7199987  22.2195006 142.7485017
  24.6769987  22.2195006 142.7485017  23.4799987  23.1465006 142.7485017
  27.3489987  24.4215006 148.7395017  28.3059987  24.4215006 148.7395017
  27.1089987  25.3485006 148.7395017  27.9349987  30.6435006 140.4265017
  28.8919987  30.6435006 140.4265017  27.6949987  31.5705006 140.4265017
  35.0989987  29.8225006 149.2375017  36.0559987  29.8225006 149.2375017
  34.8589987  30.7495006 149.2375017  31.7939987  23.4745006 138.5645017
  32.7509987  23.4745006 138.5645017  31.5539987  24.4015006 138.5645017
  29.4239987  30.8855006 151.6745017  30.3809987  30.8855006 151.6745017
  29.1839987  31.8125006 151.6745017  32.5029987  25.3445006 140.2805017
  33.4599987  25.3445006 140.2805017  32.2629987  26.2715006 140.2805017
  23.0249987  29.9625006 146.1505017  23.9819987  29.9625006 146.1505017
  22.7849987  30.8895006 146.1505017  30.0339987  32.0955006 139.4555017
  30.9909987  32.0955006 139.4555017  29.7939987  33.0225006 139.4555017
  20.0339987  28.4365006 151.5275017  20.9909987  28.4365006 151.5275017
  19.7939987  29.3635006 151.5275017  27.0429987  27.9705006 153.7145017
  27.9999987  27.9705006 153.7145017  26.8029987  28.8975006 153.7145017
  31.7149987  33.3215006 151.6155017  32.6719987  33.3215006 151.6155017
  31.4749987  34.2485006 151.6155017  37.4229987  25.5225006 140.0475017
  38.3799987  25.5225006 140.0475017  37.1829987  26.4495006 140.0475017
  37.3869987  31.3685006 152.8315017  38.3439987  31.3685006 152.8315017
  37.1469987  32.2955006 152.8315017  35.7239987  34.3305006 140.4285017
  36.6809987  34.3305006 140.4285017  35.4839987  35.2575006 140.4285017
  32.8899987  29.1575006 147.5115017  33.8469987  29.1575006 147.5115017
  32.6499987  30.0845006 147.5115017  25.4169987  33.4805006 143.6095017
  26.3739987  33.4805006 143.6095017  25.1769987  34.4075006 143.6095017
  21.2059987  28.3165006 138.1445017  22.1629987  28.3165006 138.1445017
  20.9659987  29.2435006 138.1445017  26.8389987  31.1465006 143.1425017
  27.7959987  31.1465006 143.1425017  26.5989987  32.0735006 143.1425017
  27.2899987  35.3175006 149.5325017  28.2469987  35.3175006 149.5325017
  27.0499987  36.2445006 149.5325017  25.5129987  36.1635006 142.6725017
  26.4699987  36.1635006 142.6725017  25.2729987  37.0905006 142.6725017
  30.8359987  31.3555006 149.1765017  31.7929987  31.3555006 149.1765017
  30.5959987  32.2825006 149.1765017  33.0899987  32.3805006 138.2625017
  34.0469987  32.3805006 138.2625017  32.8499987  33.3075006 138.2625017
  33.6009987  35.9235006 151.6685017  34.5579987  35.9235006 151.6685017
  33.3609987  36.8505006 151.6685017  37.6139987  36.7735006 138.5385017
  38.5709987  36.7735006 138.5385017  37.3739987  37.7005006 138.5385017
  21.6839987  23.1815006 151.0485017  22.6409987  23.1815006 151.0485017
  21.4439987  24.1085006 151.0485017  33.9309987  31.0335006 140.5045017
  34.8879987  31.0335006 140.5045017  33.6909987  31.9605006 140.5045017
  21.3199987  34.9745006 149.4745017  22.2769987  34.9745006 149.4745017
  21.0799987  35.9015006 149.4745017  27.3479987  33.4545006 136.7905017
  28.3049987  33.4545006 136.7905017  27.1079987  34.3815006 136.7905017
  26.0709987  33.0125006 139.1825017  27.0279987  33.0125006 139.1825017
  25.8309987  33.9395006 139.1825017  22.5629987  30.2635006 139.6275017
  23.5199987  30.2635006 139.6275017  22.3229987  31.1905006 139.6275017
  30.4129987  22.9395006 149.9935017  31.3699987  22.9395006 149.9935017
  30.1729987  23.8665006 149.9935017  31.1519987  22.5505006 141.0845017
  32.1089987  22.5505006 141.0845017  30.9119987  23.4775006 141.0845017
  28.8509987  34.6835006 139.9515017  29.8079987  34.6835006 139.9515017
  28.6109987  35.6105006 139.9515017  28.3789987  24.2835006 141.8945017
  29.3359987  24.2835006 141.8945017  28.1389987  25.2105006 141.8945017
  28.9379987  25.2875006 151.0945017  29.8949987  25.2875006 151.0945017
  28.6979987  26.2145006 151.0945017  29.2509987  21.3335006 142.8095017
  30.2079987  21.3335006 142.8095017  29.0109987  22.2605006 142.8095017
  26.2229987  35.7155006 139.9265017  27.1799987  35.7155006 139.9265017
  25.9829987  36.6425006 139.9265017  24.8729987  22.4355006 139.5415017
  25.8299987  22.4355006 139.5415017  24.6329987  23.3625006 139.5415017
  35.1389987  23.1735006 151.9385017  36.0959987  23.1735006 151.9385017
  34.8989987  24.1005006 151.9385017  33.7319987  26.9485006 145.9735017
  34.6889987  26.9485006 145.9735017  33.4919987  27.8755006 145.9735017
  23.1759987  32.8295006 138.6005017  24.1329987  32.8295006 138.6005017
  22.9359987  33.7565006 138.6005017  21.4349987  25.5035006 137.7545017
  22.3919987  25.5035006 137.7545017  21.1949987  26.4305006 137.7545017
  34.7949987  36.2045006 147.6385017  35.7519987  36.2045006 147.6385017
  34.5549987  37.1315006 147.6385017  22.2809987  20.3495006 146.4045017
  23.2379987  20.3495006 146.4045017  22.0409987  21.2765006 146.4045017
  21.2449987  34.2395006 142.5465017  22.2019987  34.2395006 142.5465017
  21.0049987  35.1665006 142.5465017  20.4739987  36.8925006 153.8705017
  21.4309987  36.8925006 153.8705017  20.2339987  37.8195006 153.8705017
  25.1199987  35.8045006 155.4785017  26.0769987  35.8045006 155.4785017
  24.8799987  36.7315006 155.4785017  29.4299987  34.9365006 137.3695017
  30.3869987  34.9365006 137.3695017  29.1899987  35.8635006 137.3695017
  31.6559987  34.1935006 154.2115017  32.6129987  34.1935006 154.2115017
  31.4159987  35.1205006 154.2115017  33.6259987  35.0335006 137.2615017
  34.5829987  35.0335006 137.2615017  33.3859987  35.9605006 137.2615017
  20.3949987  30.6685006 154.8625017  21.3519987  30.6685006 154.8625017
  20.1549987  31.5955006 154.8625017  24.8679987  31.0325006 137.0355017
  25.8249987  31.0325006 137.0355017  24.6279987  31.9595006 137.0355017
  27.0629987  30.6535006 154.2645017  28.0199987  30.6535006 154.2645017
  26.8229987  31.5805006 154.2645017  30.0649987  32.0825006 136.6535017
  31.0219987  32.0825006 136.6535017  29.8249987  33.0095006 136.6535017
  32.7909987  30.5285006 151.6345017  33.7479987  30.5285006 151.6345017
  32.5509987  31.4555006 151.6345017  21.3239987  27.9115006 154.2625017
  22.2809987  27.9115006 154.2625017  21.0839987  28.8385006 154.2625017
  25.9039987  29.0205006 139.2665017  26.8609987  29.0205006 139.2665017
  25.6639987  29.9475006 139.2665017  25.1939987  26.8615006 151.6005017
  26.1509987  26.8615006 151.6005017  24.9539987  27.7885006 151.6005017
  27.0299987  26.9195006 137.7925017  27.9869987  26.9195006 137.7925017
  26.7899987  27.8465006 137.7925017  30.2479987  29.3965006 154.9155017
  31.2049987  29.3965006 154.9155017  30.0079987  30.3235006 154.9155017
  36.4249987  29.7865006 137.2885017  37.3819987  29.7865006 137.2885017
  36.1849987  30.7135006 137.2885017  25.5829987  24.2325006 152.6725017
  26.5399987  24.2325006 152.6725017  25.3429987  25.1595006 152.6725017
  25.9849987  22.6045006 150.2035017  26.9419987  22.6045006 150.2035017
  25.7449987  23.5315006 150.2035017  27.5349987  28.0785006 150.4525017
  28.4919987  28.0785006 150.4525017  27.2949987  29.0055006 150.4525017
  31.9349987  25.8505006 155.4175017  32.8919987  25.8505006 155.4175017
  31.6949987  26.7775006 155.4175017  33.2619987  28.6385006 153.5635017
  34.2189987  28.6385006 153.5635017  33.0219987  29.5655006 153.5635017
  24.0379987  25.4765006 154.5985017  24.9949987  25.4765006 154.5985017
  23.7979987  26.4035006 154.5985017  26.7789987  20.0445006 150.6135017
  27.7359987  20.0445006 150.6135017  26.5389987  20.9715006 150.6135017
  28.0509987  24.3745006 154.2135017  29.0079987  24.3745006 154.2135017
  27.8109987  25.3015006 154.2135017  30.7589987  23.5245006 153.2905017
  31.7159987  23.5245006 153.2905017  30.5189987  24.4515006 153.2905017
  32.3759987  22.1415006 155.2345017  33.3329987  22.1415006 155.2345017
  32.1359987  23.0685006 155.2345017  22.1449987  23.3965006 154.3195017
  23.1019987  23.3965006 154.3195017  21.9049987  24.3235006 154.3195017
  26.9919987  19.4125006 153.3025017  27.9489987  19.4125006 153.3025017
  26.7519987  20.3395006 153.3025017  27.3579987  21.0485006 155.3915017
  28.3149987  21.0485006 155.3915017  27.1179987  21.9755006 155.3915017
  26.8419987  37.9645006 138.5745017  27.7989987  37.9645006 138.5745017
  26.6019987  38.8915006 138.5745017  20.3949987  32.4915006 138.1295017
  21.3519987  32.4915006 138.1295017  20.1549987  33.4185006 138.1295017
  19.1559987  37.9345006 143.0295017  20.1129987  37.9345006 143.0295017
  18.9159987  38.8615006 143.0295017  19.9809987  36.0445006 144.8865017
  20.9379987  36.0445006 144.8865017  19.7409987  36.9715006 144.8865017
  37.5169987  36.8475006 147.8355017  38.4739987  36.8475006 147.8355017
  37.2769987  37.7745006 147.8355017  37.0949987  36.4435006 150.7775017
  38.0519987  36.4435006 150.7775017  36.8549987  37.3705006 150.7775017
  35.5339987  32.1735006 155.4225017  36.4909987  32.1735006 155.4225017
  35.2939987  33.1005006 155.4225017  36.8519987  30.4925006 140.8935017
  37.8089987  30.4925006 140.8935017  36.6119987  31.4195006 140.8935017
  37.2189987  28.5655006 142.7595017  38.1759987  28.5655006 142.7595017
  36.9789987  29.4925006 142.7595017  36.9759987  31.2745006 147.7405017
  37.9329987  31.2745006 147.7405017  36.7359987  32.2015006 147.7405017
  35.5219987  34.1715006 150.0205017  36.4789987  34.1715006 150.0205017
  35.2819987  35.0985006 150.0205017  37.5309987  28.3765006 139.1835017
  38.4879987  28.3765006 139.1835017  37.2909987  29.3035006 139.1835017
  35.9779987  25.5535006 137.9055017  36.9349987  25.5535006 137.9055017
  35.7379987  26.4805006 137.9055017  35.0319987  27.0445006 143.3225017
  35.9889987  27.0445006 143.3225017  34.7919987  27.9715006 143.3225017
  20.0319987  29.0905006 147.3625017  20.9889987  29.0905006 147.3625017
  19.7919987  30.0175006 147.3625017  35.8829987  29.0125006 153.0005017
  36.8399987  29.0125006 153.0005017  35.6429987  29.9395006 153.0005017
  37.3929987  26.9045006 153.6655017  38.3499987  26.9045006 153.6655017
  37.1529987  27.8315006 153.6655017  35.0609987  23.1185006 136.9705017
  36.0179987  23.1185006 136.9705017  34.8209987  24.0455006 136.9705017
  34.6999987  24.6325006 141.7885017  35.6569987  24.6325006 141.7885017
  34.4599987  25.5595006 141.7885017  35.3359987  25.1735006 147.2245017
  36.2929987  25.1735006 147.2245017  35.0959987  26.1005006 147.2245017
  35.4069987  25.8995006 150.0145017  36.3639987  25.8995006 150.0145017
  35.1669987  26.8265006 150.0145017  19.6539987  24.4375006 153.5765017
  20.6109987  24.4375006 153.5765017  19.4139987  25.3645006 153.5765017
  37.6229987  19.9065006 155.3135017  38.5799987  19.9065006 155.3135017
  37.3829987  20.8335006 155.3135017  35.3659987  21.9055006 141.8365017
  36.3229987  21.9055006 141.8365017  35.1259987  22.8325006 141.8365017
  20.8889987  22.7115006 146.3665017  21.8459987  22.7115006 146.3665017
  20.6489987  23.6385006 146.3665017  19.2699987  25.8555006 147.0715017
  20.2269987  25.8555006 147.0715017  19.0299987  26.7825006 147.0715017
  37.1989987  22.0115006 153.7315017  38.1559987  22.0115006 153.7315017
  36.9589987  22.9385006 153.7315017  37.2599987  21.8785006 138.5885017
  38.2169987  21.8785006 138.5885017  37.0199987  22.8055006 138.5885017
  19.5219987  22.0115006 141.5475017  20.4789987  22.0115006 141.5475017
  19.2819987  22.9385006 141.5475017  34.2449987  36.9265006 143.4485017
  35.2019987  36.9265006 143.4485017  34.0049987  37.8535006 143.4485017
  19.4589987  20.6255006 149.7965017  20.4159987  20.6255006 149.7965017
  19.2189987  21.5525006 149.7965017  21.6859987  33.8605006 153.9875017
  22.6429987  33.8605006 153.9875017  21.4459987  34.7875006 153.9875017
  24.6039987  34.8495006 150.2595017  25.5609987  34.8495006 150.2595017
  24.3639987  35.7765006 150.2595017  28.9109987  36.2525006 153.1545017
  29.8679987  36.2525006 153.1545017  28.6709987  37.1795006 153.1545017
  31.2109987  37.5295006 152.4455017  32.1679987  37.5295006 152.4455017
  30.9709987  38.4565006 152.4455017  36.1989987  20.1065006 151.5745017
  37.1559987  20.1065006 151.5745017  35.9589987  21.0335006 151.5745017
  22.0189987  38.0815006 150.2495017  22.9759987  38.0815006 150.2495017
  21.7789987  39.0085006 150.2495017  24.4889987  37.6625006 149.3125017
  25.4459987  37.6625006 149.3125017  24.2489987  38.5895006 149.3125017
  29.1919987  37.5715006 148.4805017  30.1489987  37.5715006 148.4805017
  28.9519987  38.4985006 148.4805017  31.4979987  36.4025006 149.4785017
  32.4549987  36.4025006 149.4785017  31.2579987  37.3295006 149.4785017
  34.0769987  37.9685006 149.7365017  35.0339987  37.9685006 149.7365017
  33.8369987  38.8955006 149.7365017  21.4609987  36.7465006 147.1845017
  22.4179987  36.7465006 147.1845017  21.2209987  37.6735006 147.1845017
  23.5509987  35.4515006 145.8225017  24.5079987  35.4515006 145.8225017
  23.3109987  36.3785006 145.8225017  26.1399987  35.9255006 146.7045017
  27.0969987  35.9255006 146.7045017  25.8999987  36.8525006 146.7045017
  29.6089987  21.5775006 145.8445017  30.5659987  21.5775006 145.8445017
  29.3689987  22.5045006 145.8445017  34.7439987  19.6335006 145.9325017
  35.7009987  19.6335006 145.9325017  34.5039987  20.5605006 145.9325017
  36.4289987  20.8445006 144.2355017  37.3859987  20.8445006 144.2355017
  36.1889987  21.7715006 144.2355017  21.9729987  20.2345006 143.6785017
  22.9299987  20.2345006 143.6785017  21.7329987  21.1615006 143.6785017
  20.7549987  19.9675006 139.4135017  21.7119987  19.9675006 139.4135017
  20.5149987  20.8945006 139.4135017  26.4499987  20.1495006 143.4855017
  27.4069987  20.1495006 143.4855017  26.2099987  21.0765006 143.4855017
  32.1379987  20.1485006 145.1155017  33.0949987  20.1485006 145.1155017
  31.8979987  21.0755006 145.1155017  33.4409987  20.1815006 140.7485017
  34.3979987  20.1815006 140.7485017  33.2009987  21.1085006 140.7485017
  20.7049987  35.9245006 140.3715017  21.6619987  35.9245006 140.3715017
  20.4649987  36.8515006 140.3715017  22.5979987  21.9445006 137.9275017
  23.5549987  21.9445006 137.9275017  22.3579987  22.8715006 137.9275017
  27.6209987  22.1655006 140.3455017  28.5779987  22.1655006 140.3455017
  27.3809987  23.0925006 140.3455017  29.5149987  37.2645006 138.7475017
  30.4719987  37.2645006 138.7475017  29.2749987  38.1915006 138.7475017
  36.2529987  36.7305006 141.4825017  37.2099987  36.7305006 141.4825017
  36.0129987  37.6575006 141.4825017  21.8619987  20.7385006 153.1485017
  22.8189987  20.7385006 153.1485017  21.6219987  21.6655006 153.1485017
  23.8719987  20.1135006 154.7625017  24.8289987  20.1135006 154.7625017
  23.6319987  21.0405006 154.7625017  22.6169987  36.9545006 137.4755017
  23.5739987  36.9545006 137.4755017  22.3769987  37.8815006 137.4755017
  32.2669987  19.4025006 154.9275017  33.2239987  19.4025006 154.9275017
  32.0269987  20.3295006 154.9275017  35.4839987  35.4605006 153.5865017
  36.4409987  35.4605006 153.5865017  35.2439987  36.3875006 153.5865017
  49.9109987  29.3445006 143.5905017  50.8679987  29.3445006 143.5905017
  49.6709987  30.2715006 143.5905017  48.7759987  28.6055006 147.0615017
  49.7329987  28.6055006 147.0615017  48.5359987  29.5325006 147.0615017
  41.1389987  28.2565006 148.6095017  42.0959987  28.2565006 148.6095017
  40.8989987  29.1835006 148.6095017  52.4829987  31.5435006 145.3295017
  53.4399987  31.5435006 145.3295017  52.2429987  32.4705006 145.3295017
  42.0399987  32.6725006 147.1925017  42.9969987  32.6725006 147.1925017
  41.7999987  33.5995006 147.1925017  38.7159987  26.2905006 142.5925017
  39.6729987  26.2905006 142.5925017  38.4759987  27.2175006 142.5925017
  39.4069987  28.5015006 144.7255017  40.3639987  28.5015006 144.7255017
  39.1669987  29.4285006 144.7255017  49.6689987  36.7245006 145.5775017
  50.6259987  36.7245006 145.5775017  49.4289987  37.6515006 145.5775017
  47.1559987  31.0225006 147.4845017  48.1129987  31.0225006 147.4845017
  46.9159987  31.9495006 147.4845017  55.7799987  22.6445006 148.2655017
  56.7369987  22.6445006 148.2655017  55.5399987  23.5715006 148.2655017
  50.3249987  25.4645006 147.8235017  51.2819987  25.4645006 147.8235017
  50.0849987  26.3915006 147.8235017  43.4489987  23.5505006 145.0575017
  44.4059987  23.5505006 145.0575017  43.2089987  24.4775006 145.0575017
  51.1789987  23.6405006 143.4255017  52.1359987  23.6405006 143.4255017
  50.9389987  24.5675006 143.4255017  40.0709987  25.9585006 145.7955017
  41.0279987  25.9585006 145.7955017  39.8309987  26.8855006 145.7955017
  45.2329987  27.5145006 145.0805017  46.1899987  27.5145006 145.0805017
  44.9929987  28.4415006 145.0805017  56.2109987  24.0725006 150.5225017
  57.1679987  24.0725006 150.5225017  55.9709987  24.9995006 150.5225017
  42.3339987  22.4495006 149.1015017  43.2909987  22.4495006 149.1015017
  42.0939987  23.3765006 149.1015017  49.6289987  31.9305006 142.6375017
  50.5859987  31.9305006 142.6375017  49.3889987  32.8575006 142.6375017
  44.8579987  30.1005006 149.3335017  45.8149987  30.1005006 149.3335017
  44.6179987  31.0275006 149.3335017  52.9739987  22.9755006 145.4185017
  53.9309987  22.9755006 145.4185017  52.7339987  23.9025006 145.4185017
  41.8959987  24.3195006 147.1095017  42.8529987  24.3195006 147.1095017
  41.6559987  25.2465006 147.1095017  43.2969987  32.0875006 150.1425017
  44.2539987  32.0875006 150.1425017  43.0569987  33.0145006 150.1425017
  39.3969987  31.7195006 140.9925017  40.3539987  31.7195006 140.9925017
  39.1569987  32.6465006 140.9925017  53.0019987  33.3735006 147.6945017
  53.9589987  33.3735006 147.6945017  52.7619987  34.3005006 147.6945017
  53.3219987  21.6675006 149.0995017  54.2789987  21.6675006 149.0995017
  53.0819987  22.5945006 149.0995017  46.3029987  19.7795006 146.5595017
  47.2599987  19.7795006 146.5595017  46.0629987  20.7065006 146.5595017
  51.3019987  35.1815006 144.3325017  52.2589987  35.1815006 144.3325017
  51.0619987  36.1085006 144.3325017  52.4429987  33.0965006 142.8315017
  53.3999987  33.0965006 142.8315017  52.2029987  34.0235006 142.8315017
  54.1009987  31.6645006 151.3225017  55.0579987  31.6645006 151.3225017
  53.8609987  32.5915006 151.3225017  48.5939987  28.5845006 141.0815017
  49.5509987  28.5845006 141.0815017  48.3539987  29.5115006 141.0815017
  48.6469987  27.1405006 138.3345017  49.6039987  27.1405006 138.3345017
  48.4069987  28.0675006 138.3345017  55.9699987  27.9825006 149.3575017
  56.9269987  27.9825006 149.3575017  55.7299987  28.9095006 149.3575017
  52.0169987  28.8015006 142.0155017  52.9739987  28.8015006 142.0155017
  51.7769987  29.7285006 142.0155017  51.9459987  26.9575006 151.1075017
  52.9029987  26.9575006 151.1075017  51.7059987  27.8845006 151.1075017
  43.6399987  29.4685006 143.9105017  44.5969987  29.4685006 143.9105017
  43.3999987  30.3955006 143.9105017  45.0439987  32.8145006 146.6295017
  46.0009987  32.8145006 146.6295017  44.8039987  33.7415006 146.6295017
  43.9659987  28.2145006 147.5465017  44.9229987  28.2145006 147.5465017
  43.7259987  29.1415006 147.5465017  50.3609987  33.7685006 148.2565017
  51.3179987  33.7685006 148.2565017  50.1209987  34.6955006 148.2565017
  44.9159987  32.6155006 152.2605017  45.8729987  32.6155006 152.2605017
  44.6759987  33.5425006 152.2605017  50.8789987  27.9635006 139.6725017
  51.8359987  27.9635006 139.6725017  50.6389987  28.8905006 139.6725017
  41.8519987  28.7845006 151.4385017  42.8089987  28.7845006 151.4385017
  41.6119987  29.7115006 151.4385017  48.6029987  34.7075006 143.1575017
  49.5599987  34.7075006 143.1575017  48.3629987  35.6345006 143.1575017
  43.1589987  34.6675006 153.0135017  44.1159987  34.6675006 153.0135017
  42.9189987  35.5945006 153.0135017  54.6199987  19.7055006 139.4905017
  55.5769987  19.7055006 139.4905017  54.3799987  20.6325006 139.4905017
  42.6119987  28.4845006 141.5255017  43.5689987  28.4845006 141.5255017
  42.3719987  29.4115006 141.5255017  55.7449987  34.0445006 137.9565017
  56.7019987  34.0445006 137.9565017  55.5049987  34.9715006 137.9565017
  38.7059987  30.8945006 150.3895017  39.6629987  30.8945006 150.3895017
  38.4659987  31.8215006 150.3895017  38.4759987  33.6355006 147.1855017
  39.4329987  33.6355006 147.1855017  38.2359987  34.5625006 147.1855017
  56.6989987  34.3335006 152.8815017  57.6559987  34.3335006 152.8815017
  56.4589987  35.2605006 152.8815017  47.6579987  33.8805006 151.7435017
  48.6149987  33.8805006 151.7435017  47.4179987  34.8075006 151.7435017
  48.1059987  37.6415006 141.5235017  49.0629987  37.6415006 141.5235017
  47.8659987  38.5685006 141.5235017  41.7479987  36.4665006 143.3575017
  42.7049987  36.4665006 143.3575017  41.5079987  37.3935006 143.3575017
  51.0949987  36.8525006 138.5255017  52.0519987  36.8525006 138.5255017
  50.8549987  37.7795006 138.5255017  50.8489987  36.8045006 141.3735017
  51.8059987  36.8045006 141.3735017  50.6089987  37.7315006 141.3735017
  53.8289987  25.8395006 153.3605017  54.7859987  25.8395006 153.3605017
  53.5889987  26.7665006 153.3605017  40.9819987  32.2145006 151.3565017
  41.9389987  32.2145006 151.3565017  40.7419987  33.1415006 151.3565017
  43.6499987  20.6755006 147.3205017  44.6069987  20.6755006 147.3205017
  43.4099987  21.6025006 147.3205017  48.2949987  20.3665006 150.6855017
  49.2519987  20.3665006 150.6855017  48.0549987  21.2935006 150.6855017
  51.5969987  24.1825006 151.5745017  52.5539987  24.1825006 151.5745017
  51.3569987  25.1095006 151.5745017  52.4949987  29.0785006 137.8345017
  53.4519987  29.0785006 137.8345017  52.2549987  30.0055006 137.8345017
  47.9509987  22.9215006 138.0105017  48.9079987  22.9215006 138.0105017
  47.7109987  23.8485006 138.0105017  43.7499987  25.6465006 148.5305017
  44.7069987  25.6465006 148.5305017  43.5099987  26.5735006 148.5305017
  43.7139987  25.8055006 143.4105017  44.6709987  25.8055006 143.4105017
  43.4739987  26.7325006 143.4105017  49.2319987  26.2625006 142.1685017
  50.1889987  26.2625006 142.1685017  48.9919987  27.1895006 142.1685017
  48.3069987  26.4795006 153.6405017  49.2639987  26.4795006 153.6405017
  48.0669987  27.4065006 153.6405017  50.2649987  25.7545006 145.0315017
  51.2219987  25.7545006 145.0315017  50.0249987  26.6815006 145.0315017
  41.3969987  25.9295006 150.2615017  42.3539987  25.9295006 150.2615017
  41.1569987  26.8565006 150.2615017  44.8249987  23.2735006 137.2615017
  45.7819987  23.2735006 137.2615017  44.5849987  24.2005006 137.2615017
  38.0379987  23.0375006 144.2015017  38.9949987  23.0375006 144.2015017
  37.7979987  23.9645006 144.2015017  39.2999987  23.7415006 139.5495017
  40.2569987  23.7415006 139.5495017  39.0599987  24.6685006 139.5495017
  49.4829987  27.3585006 149.6175017  50.4399987  27.3585006 149.6175017
  49.2429987  28.2855006 149.6175017  46.2779987  23.3155006 144.4305017
  47.2349987  23.3155006 144.4305017  46.0379987  24.2425006 144.4305017
  41.0939987  24.8905006 143.2945017  42.0509987  24.8905006 143.2945017
  40.8539987  25.8175006 143.2945017  44.7339987  24.9435006 140.9485017
  45.6909987  24.9435006 140.9485017  44.4939987  25.8705006 140.9485017
  50.6829987  22.5535006 147.6825017  51.6399987  22.5535006 147.6825017
  50.4429987  23.4805006 147.6825017  43.3929987  26.1365006 138.4985017
  44.3499987  26.1365006 138.4985017  43.1529987  27.0635006 138.4985017
  53.8989987  38.2025006 153.9965017  54.8559987  38.2025006 153.9965017
  53.6589987  39.1295006 153.9965017  41.5679987  30.6685006 153.5665017
  42.5249987  30.6685006 153.5665017  41.3279987  31.5955006 153.5665017
  47.5659987  26.0815006 146.3275017  48.5229987  26.0815006 146.3275017
  47.3259987  27.0085006 146.3275017  42.5769987  22.2285006 142.7605017
  43.5339987  22.2285006 142.7605017  42.3369987  23.1555006 142.7605017
  46.2049987  24.4215006 148.7395017  47.1619987  24.4215006 148.7395017
  45.9649987  25.3485006 148.7395017  46.7929987  30.6415006 140.4215017
  47.7499987  30.6415006 140.4215017  46.5529987  31.5685006 140.4215017
  53.9459987  29.8365006 149.2425017  54.9029987  29.8365006 149.2425017
  53.7059987  30.7635006 149.2425017  50.6499987  23.4745006 138.5645017
  51.6069987  23.4745006 138.5645017  50.4099987  24.4015006 138.5645017
  48.2789987  30.8855006 151.6725017  49.2359987  30.8855006 151.6725017
  48.0389987  31.8125006 151.6725017  51.3589987  25.3445006 140.2815017
  52.3159987  25.3445006 140.2815017  51.1189987  26.2715006 140.2815017
  41.9169987  30.0415006 146.2325017  42.8739987  30.0415006 146.2325017
  41.6769987  30.9685006 146.2325017  48.8899987  32.0965006 139.4565017
  49.8469987  32.0965006 139.4565017  48.6499987  33.0235006 139.4565017
  38.8879987  28.4375006 151.5015017  39.8449987  28.4375006 151.5015017
  38.6479987  29.3645006 151.5015017  45.9009987  27.9905006 153.6945017
  46.8579987  27.9905006 153.6945017  45.6609987  28.9175006 153.6945017
  50.5779987  33.3075006 151.6245017  51.5349987  33.3075006 151.6245017
  50.3379987  34.2345006 151.6245017  56.2789987  25.5225006 140.0475017
  57.2359987  25.5225006 140.0475017  56.0389987  26.4495006 140.0475017
  56.2039987  31.3205006 152.8485017  57.1609987  31.3205006 152.8485017
  55.9639987  32.2475006 152.8485017  54.5749987  34.3435006 140.4345017
  55.5319987  34.3435006 140.4345017  54.3349987  35.2705006 140.4345017
  51.7389987  29.1635006 147.4975017  52.6959987  29.1635006 147.4975017
  51.4989987  30.0905006 147.4975017  44.3969987  33.4625006 143.2175017
  45.3539987  33.4625006 143.2175017  44.1569987  34.3895006 143.2175017
  40.0399987  28.3265006 138.1525017  40.9969987  28.3265006 138.1525017
  39.7999987  29.2535006 138.1525017  45.7069987  31.1335006 143.1745017
  46.6639987  31.1335006 143.1745017  45.4669987  32.0605006 143.1745017
  46.1459987  35.3175006 149.5125017  47.1029987  35.3175006 149.5125017
  45.9059987  36.2445006 149.5125017  44.3669987  36.1305006 142.7685017
  45.3239987  36.1305006 142.7685017  44.1269987  37.0575006 142.7685017
  49.6989987  31.3525006 149.1805017  50.6559987  31.3525006 149.1805017
  49.4589987  32.2795006 149.1805017  51.9459987  32.3805006 138.2635017
  52.9029987  32.3805006 138.2635017  51.7059987  33.3075006 138.2635017
  52.4569987  35.9245006 151.6685017  53.4139987  35.9245006 151.6685017
  52.2169987  36.8515006 151.6685017  56.4709987  36.7745006 138.5375017
  57.4279987  36.7745006 138.5375017  56.2309987  37.7015006 138.5375017
  40.5369987  23.1685006 151.0535017  41.4939987  23.1685006 151.0535017
  40.2969987  24.0955006 151.0535017  52.7869987  31.0375006 140.5095017
  53.7439987  31.0375006 140.5095017  52.5469987  31.9645006 140.5095017
  40.1949987  34.9625006 149.4575017  41.1519987  34.9625006 149.4575017
  39.9549987  35.8895006 149.4575017  46.2039987  33.4535006 136.7925017
  47.1609987  33.4535006 136.7925017  45.9639987  34.3805006 136.7925017
  44.9279987  33.0135006 139.1765017  45.8849987  33.0135006 139.1765017
  44.6879987  33.9405006 139.1765017  41.4179987  30.2665006 139.6415017
  42.3749987  30.2665006 139.6415017  41.1779987  31.1935006 139.6415017
  49.2649987  22.9395006 149.9895017  50.2219987  22.9395006 149.9895017
  49.0249987  23.8665006 149.9895017  50.0089987  22.5495006 141.0835017
  50.9659987  22.5495006 141.0835017  49.7689987  23.4765006 141.0835017
  47.7059987  34.6825006 139.9555017  48.6629987  34.6825006 139.9555017
  47.4659987  35.6095006 139.9555017  47.2399987  24.2805006 141.8975017
  48.1969987  24.2805006 141.8975017  46.9999987  25.2075006 141.8975017
  47.7859987  25.2805006 151.0915017  48.7429987  25.2805006 151.0915017
  47.5459987  26.2075006 151.0915017  48.1059987  21.3345006 142.8095017
  49.0629987  21.3345006 142.8095017  47.8659987  22.2615006 142.8095017
  45.0799987  35.7185006 139.9225017  46.0369987  35.7185006 139.9225017
  44.8399987  36.6455006 139.9225017  43.7399987  22.4225006 139.5375017
  44.6969987  22.4225006 139.5375017  43.4999987  23.3495006 139.5375017
  53.9879987  23.1665006 151.9455017  54.9449987  23.1665006 151.9455017
  53.7479987  24.0935006 151.9455017  52.5889987  26.9485006 145.9745017
  53.5459987  26.9485006 145.9745017  52.3489987  27.8755006 145.9745017
  42.0279987  32.8275006 138.5935017  42.9849987  32.8275006 138.5935017
  41.7879987  33.7545006 138.5935017  40.3539987  25.5285006 137.7145017
  41.3109987  25.5285006 137.7145017  40.1139987  26.4555006 137.7145017
  53.6529987  36.1855006 147.6045017  54.6099987  36.1855006 147.6045017
  53.4129987  37.1125006 147.6045017  41.1549987  20.3285006 146.4175017
  42.1119987  20.3285006 146.4175017  40.9149987  21.2555006 146.4175017
  40.1269987  34.2555006 142.5765017  41.0839987  34.2555006 142.5765017
  39.8869987  35.1825006 142.5765017  39.3339987  36.8815006 153.8545017
  40.2909987  36.8815006 153.8545017  39.0939987  37.8085006 153.8545017
  43.9899987  35.8115006 155.4795017  44.9469987  35.8115006 155.4795017
  43.7499987  36.7385006 155.4795017  48.2899987  34.9405006 137.3695017
  49.2469987  34.9405006 137.3695017  48.0499987  35.8675006 137.3695017
  50.5209987  34.1885006 154.2065017  51.4779987  34.1885006 154.2065017
  50.2809987  35.1155006 154.2065017  52.4849987  35.0355006 137.2615017
  53.4419987  35.0355006 137.2615017  52.2449987  35.9625006 137.2615017
  39.2529987  30.6765006 154.8455017  40.2099987  30.6765006 154.8455017
  39.0129987  31.6035006 154.8455017  43.7369987  31.0445006 137.0485017
  44.6939987  31.0445006 137.0485017  43.4969987  31.9715006 137.0485017
  45.9439987  30.6585006 154.2495017  46.9009987  30.6585006 154.2495017
  45.7039987  31.5855006 154.2495017  48.9219987  32.0835006 136.6555017
  49.8789987  32.0835006 136.6555017  48.6819987  33.0105006 136.6555017
  51.6699987  30.5285006 151.6955017  52.6269987  30.5285006 151.6955017
  51.4299987  31.4555006 151.6955017  40.1399987  27.8995006 154.2395017
  41.0969987  27.8995006 154.2395017  39.8999987  28.8265006 154.2395017
  44.7769987  29.0165006 139.2655017  45.7339987  29.0165006 139.2655017
  44.5369987  29.9435006 139.2655017  44.0489987  26.8555006 151.6045017
  45.0059987  26.8555006 151.6045017  43.8089987  27.7825006 151.6045017
  45.8929987  26.9345006 137.7985017  46.8499987  26.9345006 137.7985017
  45.6529987  27.8615006 137.7985017  49.1119987  29.3895006 154.9035017
  50.0689987  29.3895006 154.9035017  48.8719987  30.3165006 154.9035017
  55.2809987  29.7865006 137.2885017  56.2379987  29.7865006 137.2885017
  55.0409987  30.7135006 137.2885017  44.4449987  24.2285006 152.6715017
  45.4019987  24.2285006 152.6715017  44.2049987  25.1555006 152.6715017
  44.8429987  22.6045006 150.2045017  45.7999987  22.6045006 150.2045017
  44.6029987  23.5315006 150.2045017  46.3919987  28.0755006 150.4505017
  47.3489987  28.0755006 150.4505017  46.1519987  29.0025006 150.4505017
  50.8179987  25.8775006 155.4115017  51.7749987  25.8775006 155.4115017
  50.5779987  26.8045006 155.4115017  52.0839987  28.6395006 153.5515017
  53.0409987  28.6395006 153.5515017  51.8439987  29.5665006 153.5515017
  42.9029987  25.4715006 154.5855017  43.8599987  25.4715006 154.5855017
  42.6629987  26.3985006 154.5855017  45.6329987  20.0405006 150.6205017
  46.5899987  20.0405006 150.6205017  45.3929987  20.9675006 150.6205017
  46.9089987  24.3745006 154.2105017  47.8659987  24.3745006 154.2105017
  46.6689987  25.3015006 154.2105017  49.6259987  23.5095006 153.2865017
  50.5829987  23.5095006 153.2865017  49.3859987  24.4365006 153.2865017
  51.2219987  22.1395006 155.2265017  52.1789987  22.1395006 155.2265017
  50.9819987  23.0665006 155.2265017  40.9979987  23.3965006 154.3195017
  41.9549987  23.3965006 154.3195017  40.7579987  24.3235006 154.3195017
  45.8469987  19.4115006 153.3035017  46.8039987  19.4115006 153.3035017
  45.6069987  20.3385006 153.3035017  46.2169987  21.0435006 155.3915017
  47.1739987  21.0435006 155.3915017  45.9769987  21.9705006 155.3915017
  45.6979987  37.9645006 138.5755017  46.6549987  37.9645006 138.5755017
  45.4579987  38.8915006 138.5755017  39.2499987  32.4875006 138.1265017
  40.2069987  32.4875006 138.1265017  39.0099987  33.4145006 138.1265017
  38.0079987  37.9365006 143.0335017  38.9649987  37.9365006 143.0335017
  37.7679987  38.8635006 143.0335017  38.8769987  36.0325006 144.8845017
  39.8339987  36.0325006 144.8845017  38.6369987  36.9595006 144.8845017
  56.3539987  36.8625006 147.8275017  57.3109987  36.8625006 147.8275017
  56.1139987  37.7895006 147.8275017  55.9539987  36.4405006 150.7815017
  56.9109987  36.4405006 150.7815017  55.7139987  37.3675006 150.7815017
  54.3869987  32.1315006 155.4345017  55.3439987  32.1315006 155.4345017
  54.1469987  33.0585006 155.4345017  55.7069987  30.4925006 140.8935017
  56.6639987  30.4925006 140.8935017  55.4669987  31.4195006 140.8935017
  56.0749987  28.5655006 142.7605017  57.0319987  28.5655006 142.7605017
  55.8349987  29.4925006 142.7605017  55.8269987  31.2715006 147.7405017
  56.7839987  31.2715006 147.7405017  55.5869987  32.1985006 147.7405017
  54.3779987  34.1665006 150.0245017  55.3349987  34.1665006 150.0245017
  54.1379987  35.0935006 150.0245017  56.3869987  28.3765006 139.1835017
  57.3439987  28.3765006 139.1835017  56.1469987  29.3035006 139.1835017
  54.8339987  25.5535006 137.9055017  55.7909987  25.5535006 137.9055017
  54.5939987  26.4805006 137.9055017  53.8879987  27.0445006 143.3215017
  54.8449987  27.0445006 143.3215017  53.6479987  27.9715006 143.3215017
  38.8929987  29.1225006 147.3745017  39.8499987  29.1225006 147.3745017
  38.6529987  30.0495006 147.3745017  54.9939987  28.8555006 152.2815017
  55.9509987  28.8555006 152.2815017  54.7539987  29.7825006 152.2815017
  56.2079987  26.9235006 153.7115017  57.1649987  26.9235006 153.7115017
  55.9679987  27.8505006 153.7115017  53.9169987  23.1185006 136.9705017
  54.8739987  23.1185006 136.9705017  53.6769987  24.0455006 136.9705017
  53.5559987  24.6325006 141.7885017  54.5129987  24.6325006 141.7885017
  53.3159987  25.5595006 141.7885017  54.1919987  25.1755006 147.2305017
  55.1489987  25.1755006 147.2305017  53.9519987  26.1025006 147.2305017
  54.2619987  25.8965006 150.0265017  55.2189987  25.8965006 150.0265017
  54.0219987  26.8235006 150.0265017  38.5119987  24.4335006 153.5235017
  39.4689987  24.4335006 153.5235017  38.2719987  25.3605006 153.5235017
  56.5249987  19.9365006 155.3635017  57.4819987  19.9365006 155.3635017
  56.2849987  20.8635006 155.3635017  54.2219987  21.9055006 141.8365017
  55.1789987  21.9055006 141.8365017  53.9819987  22.8325006 141.8365017
  39.7109987  22.7145006 146.3825017  40.6679987  22.7145006 146.3825017
  39.4709987  23.6415006 146.3825017  37.9999987  25.7085006 147.4335017
  38.9569987  25.7085006 147.4335017  37.7599987  26.6355006 147.4335017
  56.0549987  22.0485006 153.7125017  57.0119987  22.0485006 153.7125017
  55.8149987  22.9755006 153.7125017  56.1159987  21.8785006 138.5885017
  57.0729987  21.8785006 138.5885017  55.8759987  22.8055006 138.5885017
  38.3639987  21.9755006 141.5065017  39.3209987  21.9755006 141.5065017
  38.1239987  22.9025006 141.5065017  53.3099987  36.5735006 143.1195017
  54.2669987  36.5735006 143.1195017  53.0699987  37.5005006 143.1195017
  38.3189987  20.6525006 149.8045017  39.2759987  20.6525006 149.8045017
  38.0789987  21.5795006 149.8045017  40.5369987  33.8385006 153.9695017
  41.4939987  33.8385006 153.9695017  40.2969987  34.7655006 153.9695017
  43.4399987  34.8215006 150.2065017  44.3969987  34.8215006 150.2065017
  43.1999987  35.7485006 150.2065017  47.7689987  36.2595006 153.1565017
  48.7259987  36.2595006 153.1565017  47.5289987  37.1865006 153.1565017
  50.0669987  37.5285006 152.4455017  51.0239987  37.5285006 152.4455017
  49.8269987  38.4555006 152.4455017  55.0679987  20.1425006 151.5495017
  56.0249987  20.1425006 151.5495017  54.8279987  21.0695006 151.5495017
  40.8749987  38.0805006 150.2515017  41.8319987  38.0805006 150.2515017
  40.6349987  39.0075006 150.2515017  43.3379987  37.6425006 149.2915017
  44.2949987  37.6425006 149.2915017  43.0979987  38.5695006 149.2915017
  48.0709987  37.5785006 148.4625017  49.0279987  37.5785006 148.4625017
  47.8309987  38.5055006 148.4625017  50.3649987  36.4005006 149.4455017
  51.3219987  36.4005006 149.4455017  50.1249987  37.3275006 149.4455017
  52.9239987  37.9705006 149.7315017  53.8809987  37.9705006 149.7315017
  52.6839987  38.8975006 149.7315017  40.2969987  36.7185006 147.1785017
  41.2539987  36.7185006 147.1785017  40.0569987  37.6455006 147.1785017
  42.3679987  35.5525006 145.8815017  43.3249987  35.5525006 145.8815017
  42.1279987  36.4795006 145.8815017  44.9309987  35.8835006 146.6985017
  45.8879987  35.8835006 146.6985017  44.6909987  36.8105006 146.6985017
  48.4649987  21.5775006 145.8445017  49.4219987  21.5775006 145.8445017
  48.2249987  22.5045006 145.8445017  53.5999987  19.6335006 145.9315017
  54.5569987  19.6335006 145.9315017  53.3599987  20.5605006 145.9315017
  55.2849987  20.8445006 144.2355017  56.2419987  20.8445006 144.2355017
  55.0449987  21.7715006 144.2355017  40.8259987  20.2055006 143.6855017
  41.7829987  20.2055006 143.6855017  40.5859987  21.1325006 143.6855017
  39.5899987  19.9675006 139.3905017  40.5469987  19.9675006 139.3905017
  39.3499987  20.8945006 139.3905017  45.3259987  20.1235006 143.4755017
  46.2829987  20.1235006 143.4755017  45.0859987  21.0505006 143.4755017
  50.9939987  20.1485006 145.1155017  51.9509987  20.1485006 145.1155017
  50.7539987  21.0755006 145.1155017  52.2969987  20.1805006 140.7495017
  53.2539987  20.1805006 140.7495017  52.0569987  21.1075006 140.7495017
  39.5599987  35.9225006 140.3725017  40.5169987  35.9225006 140.3725017
  39.3199987  36.8495006 140.3725017  41.4399987  21.9105006 137.9565017
  42.3969987  21.9105006 137.9565017  41.1999987  22.8375006 137.9565017
  46.4829987  22.1645006 140.3435017  47.4399987  22.1645006 140.3435017
  46.2429987  23.0915006 140.3435017  48.3709987  37.2675006 138.7465017
  49.3279987  37.2675006 138.7465017  48.1309987  38.1945006 138.7465017
  55.1569987  36.7385006 141.4485017  56.1139987  36.7385006 141.4485017
  54.9169987  37.6655006 141.4485017  40.7179987  20.7455006 153.1575017
  41.6749987  20.7455006 153.1575017  40.4779987  21.6725006 153.1575017
  42.7279987  20.1155006 154.7595017  43.6849987  20.1155006 154.7595017
  42.4879987  21.0425006 154.7595017  41.4719987  36.9545006 137.4755017
  42.4289987  36.9545006 137.4755017  41.2319987  37.8815006 137.4755017
  51.1319987  19.4175006 154.9255017  52.0889987  19.4175006 154.9255017
  50.8919987  20.3445006 154.9255017  54.3349987  35.4475006 153.5825017
  55.2919987  35.4475006 153.5825017  54.0949987  36.3745006 153.5825017
  68.7239987  29.3285006 143.6425017  69.6809987  29.3285006 143.6425017
  68.4839987  30.2555006 143.6425017  68.0529987  28.5505006 147.1245017
  69.0099987  28.5505006 147.1245017  67.8129987  29.4775006 147.1245017
  59.9929987  28.2555006 148.6085017  60.9499987  28.2555006 148.6085017
  59.7529987  29.1825006 148.6085017  71.3439987  31.5575006 145.3275017
  72.3009987  31.5575006 145.3275017  71.1039987  32.4845006 145.3275017
  60.9109987  32.6995006 147.1525017  61.8679987  32.6995006 147.1525017
  60.6709987  33.6265006 147.1525017  57.5709987  26.2895006 142.5925017
  58.5279987  26.2895006 142.5925017  57.3309987  27.2165006 142.5925017
  58.2639987  28.5025006 144.7235017  59.2209987  28.5025006 144.7235017
  58.0239987  29.4295006 144.7235017  68.4249987  36.6795006 145.5495017
  69.3819987  36.6795006 145.5495017  68.1849987  37.6065006 145.5495017
  66.0029987  30.9465006 147.5285017  66.9599987  30.9465006 147.5285017
  65.7629987  31.8735006 147.5285017  74.6009987  22.6685006 148.2535017
  75.5579987  22.6685006 148.2535017  74.3609987  23.5955006 148.2535017
  68.8909987  25.4405006 147.9095017  69.8479987  25.4405006 147.9095017
  68.6509987  26.3675006 147.9095017  62.3029987  23.5465006 145.0565017
  63.2599987  23.5465006 145.0565017  62.0629987  24.4735006 145.0565017
  70.0369987  23.6805006 143.4675017  70.9939987  23.6805006 143.4675017
  69.7969987  24.6075006 143.4675017  58.9269987  25.9585006 145.7965017
  59.8839987  25.9585006 145.7965017  58.6869987  26.8855006 145.7965017
  64.0379987  27.4765006 145.0535017  64.9949987  27.4765006 145.0535017
  63.7979987  28.4035006 145.0535017  75.0609987  24.0745006 150.5175017
  76.0179987  24.0745006 150.5175017  74.8209987  25.0015006 150.5175017
  61.1909987  22.4495006 149.1015017  62.1479987  22.4495006 149.1015017
  60.9509987  23.3765006 149.1015017  68.4749987  31.9225006 142.6555017
  69.4319987  31.9225006 142.6555017  68.2349987  32.8495006 142.6555017
  63.7239987  30.0945006 149.3155017  64.6809987  30.0945006 149.3155017
  63.4839987  31.0215006 149.3155017  71.7979987  23.0065006 145.4735017
  72.7549987  23.0065006 145.4735017  71.5579987  23.9335006 145.4735017
  60.7509987  24.3165006 147.1095017  61.7079987  24.3165006 147.1095017
  60.5109987  25.2435006 147.1095017  62.1609987  32.0865006 150.1645017
  63.1179987  32.0865006 150.1645017  61.9209987  33.0135006 150.1645017
  58.2489987  31.7175006 140.9895017  59.2059987  31.7175006 140.9895017
  58.0089987  32.6445006 140.9895017  71.8619987  33.3775006 147.7025017
  72.8189987  33.3775006 147.7025017  71.6219987  34.3045006 147.7025017
  72.1679987  21.6715006 149.0815017  73.1249987  21.6715006 149.0815017
  71.9279987  22.5985006 149.0815017  65.1589987  19.7785006 146.5585017
  66.1159987  19.7785006 146.5585017  64.9189987  20.7055006 146.5585017
  70.0919987  35.1655006 144.2845017  71.0489987  35.1655006 144.2845017
  69.8519987  36.0925006 144.2845017  71.3109987  33.0835006 142.8265017
  72.2679987  33.0835006 142.8265017  71.0709987  34.0105006 142.8265017
  72.9509987  31.6715006 151.3055017  73.9079987  31.6715006 151.3055017
  72.7109987  32.5985006 151.3055017  67.4499987  28.5975006 141.1135017
  68.4069987  28.5975006 141.1135017  67.2099987  29.5245006 141.1135017
  67.5029987  27.1415006 138.3355017  68.4599987  27.1415006 138.3355017
  67.2629987  28.0685006 138.3355017  74.8049987  27.9685006 149.3415017
  75.7619987  27.9685006 149.3415017  74.5649987  28.8955006 149.3415017
  70.8739987  28.8065006 142.0035017  71.8309987  28.8065006 142.0035017
  70.6339987  29.7335006 142.0035017  70.8049987  26.9545006 151.0805017
  71.7619987  26.9545006 151.0805017  70.5649987  27.8815006 151.0805017
  62.5099987  29.4535006 143.9085017  63.4669987  29.4535006 143.9085017
  62.2699987  30.3805006 143.9085017  63.8329987  32.8465006 146.5785017
  64.7899987  32.8465006 146.5785017  63.5929987  33.7735006 146.5785017
  62.8809987  28.1705006 147.5715017  63.8379987  28.1705006 147.5715017
  62.6409987  29.0975006 147.5715017  69.2199987  33.7515006 148.2665017
  70.1769987  33.7515006 148.2665017  68.9799987  34.6785006 148.2665017
  63.7739987  32.6155006 152.2615017  64.7309987  32.6155006 152.2615017
  63.5339987  33.5425006 152.2615017  69.7329987  27.9645006 139.6735017
  70.6899987  27.9645006 139.6735017  69.4929987  28.8915006 139.6735017
  60.7199987  28.7885006 151.4335017  61.6769987  28.7885006 151.4335017
  60.4799987  29.7155006 151.4335017  67.4289987  34.7095006 143.1515017
  68.3859987  34.7095006 143.1515017  67.1889987  35.6365006 143.1515017
  62.0129987  34.6675006 153.0155017  62.9699987  34.6675006 153.0155017
  61.7729987  35.5945006 153.0155017  73.4759987  19.7055006 139.4905017
  74.4329987  19.7055006 139.4905017  73.2359987  20.6325006 139.4905017
  61.4679987  28.4855006 141.5255017  62.4249987  28.4855006 141.5255017
  61.2279987  29.4125006 141.5255017  74.6019987  34.0435006 137.9545017
  75.5589987  34.0435006 137.9545017  74.3619987  34.9705006 137.9545017
  57.5479987  30.9005006 150.4045017  58.5049987  30.9005006 150.4045017
  57.3079987  31.8275006 150.4045017  57.3219987  33.6315006 147.2045017
  58.2789987  33.6315006 147.2045017  57.0819987  34.5585006 147.2045017
  75.5549987  34.3355006 152.8685017  76.5119987  34.3355006 152.8685017
  75.3149987  35.2625006 152.8685017  66.5139987  33.8805006 151.7435017
  67.4709987  33.8805006 151.7435017  66.2739987  34.8075006 151.7435017
  66.8769987  37.6185006 141.5135017  67.8339987  37.6185006 141.5135017
  66.6369987  38.5455006 141.5135017  60.5789987  36.4915006 143.3555017
  61.5359987  36.4915006 143.3555017  60.3389987  37.4185006 143.3555017
  69.9319987  36.8455006 138.5275017  70.8889987  36.8455006 138.5275017
  69.6919987  37.7725006 138.5275017  69.6839987  36.7615006 141.3045017
  70.6409987  36.7615006 141.3045017  69.4439987  37.6885006 141.3045017
  72.6979987  25.8095006 153.3605017  73.6549987  25.8095006 153.3605017
  72.4579987  26.7365006 153.3605017  59.8419987  32.2205006 151.3525017
  60.7989987  32.2205006 151.3525017  59.6019987  33.1475006 151.3525017
  62.5059987  20.6755006 147.3205017  63.4629987  20.6755006 147.3205017
  62.2659987  21.6025006 147.3205017  67.1509987  20.3695006 150.6855017
  68.1079987  20.3695006 150.6855017  66.9109987  21.2965006 150.6855017
  70.4389987  24.1875006 151.5465017  71.3959987  24.1875006 151.5465017
  70.1989987  25.1145006 151.5465017  71.3509987  29.0785006 137.8345017
  72.3079987  29.0785006 137.8345017  71.1109987  30.0055006 137.8345017
  66.8069987  22.9215006 138.0105017  67.7639987  22.9215006 138.0105017
  66.5669987  23.8485006 138.0105017  62.6129987  25.6505006 148.5315017
  63.5699987  25.6505006 148.5315017  62.3729987  26.5775006 148.5315017
  62.5769987  25.8085006 143.4155017  63.5339987  25.8085006 143.4155017
  62.3369987  26.7355006 143.4155017  68.0989987  26.2815006 142.2005017
  69.0559987  26.2815006 142.2005017  67.8589987  27.2085006 142.2005017
  67.1669987  26.4795006 153.6405017  68.1239987  26.4795006 153.6405017
  66.9269987  27.4065006 153.6405017  69.1429987  25.7565006 145.0405017
  70.0999987  25.7565006 145.0405017  68.9029987  26.6835006 145.0405017
  60.2539987  25.9305006 150.2635017  61.2109987  25.9305006 150.2635017
  60.0139987  26.8575006 150.2635017  63.6799987  23.2795006 137.2655017
  64.6369987  23.2795006 137.2655017  63.4399987  24.2065006 137.2655017
  56.8939987  23.0375006 144.2025017  57.8509987  23.0375006 144.2025017
  56.6539987  23.9645006 144.2025017  58.1539987  23.7415006 139.5495017
  59.1109987  23.7415006 139.5495017  57.9139987  24.6685006 139.5495017
  68.3029987  27.3645006 149.6015017  69.2599987  27.3645006 149.6015017
  68.0629987  28.2915006 149.6015017  65.1349987  23.3485006 144.4365017
  66.0919987  23.3485006 144.4365017  64.8949987  24.2755006 144.4365017
  59.9539987  24.8915006 143.2955017  60.9109987  24.8915006 143.2955017
  59.7139987  25.8185006 143.2955017  63.5889987  24.9435006 140.9485017
  64.5459987  24.9435006 140.9485017  63.3489987  25.8705006 140.9485017
  69.5469987  22.6315006 147.6535017  70.5039987  22.6315006 147.6535017
  69.3069987  23.5585006 147.6535017  62.2489987  26.1365006 138.4985017
  63.2059987  26.1365006 138.4985017  62.0089987  27.0635006 138.4985017
  72.7469987  38.2075006 154.0075017  73.7039987  38.2075006 154.0075017
  72.5069987  39.1345006 154.0075017  60.4239987  30.6645006 153.5685017
  61.3809987  30.6645006 153.5685017  60.1839987  31.5915006 153.5685017
  66.4519987  26.0165006 146.3335017  67.4089987  26.0165006 146.3335017
  66.2119987  26.9435006 146.3335017  61.4329987  22.2285006 142.7605017
  62.3899987  22.2285006 142.7605017  61.1929987  23.1555006 142.7605017
  65.0719987  24.4555006 148.7175017  66.0289987  24.4555006 148.7175017
  64.8319987  25.3825006 148.7175017  65.6329987  30.6745006 140.4205017
  66.5899987  30.6745006 140.4205017  65.3929987  31.6015006 140.4205017
  72.8059987  29.7915006 149.2245017  73.7629987  29.7915006 149.2245017
  72.5659987  30.7185006 149.2245017  69.5059987  23.4775006 138.5695017
  70.4629987  23.4775006 138.5695017  69.2659987  24.4045006 138.5695017
  67.1169987  30.8715006 151.6455017  68.0739987  30.8715006 151.6455017
  66.8769987  31.7985006 151.6455017  70.2149987  25.3455006 140.2825017
  71.1719987  25.3455006 140.2825017  69.9749987  26.2725006 140.2825017
  60.7659987  30.0165006 146.2395017  61.7229987  30.0165006 146.2395017
  60.5259987  30.9435006 146.2395017  67.7429987  32.0995006 139.4565017
  68.6999987  32.0995006 139.4565017  67.5029987  33.0265006 139.4565017
  57.7319987  28.4475006 151.5155017  58.6889987  28.4475006 151.5155017
  57.4919987  29.3745006 151.5155017  64.7579987  27.9885006 153.6945017
  65.7149987  27.9885006 153.6945017  64.5179987  28.9155006 153.6945017
  69.4269987  33.3225006 151.6145017  70.3839987  33.3225006 151.6145017
  69.1869987  34.2495006 151.6145017  75.1339987  25.5225006 140.0475017
  76.0909987  25.5225006 140.0475017  74.8939987  26.4495006 140.0475017
  75.0999987  31.3655006 152.8295017  76.0569987  31.3655006 152.8295017
  74.8599987  32.2925006 152.8295017  73.4349987  34.3315006 140.4275017
  74.3919987  34.3315006 140.4275017  73.1949987  35.2585006 140.4275017
  70.6129987  29.1465006 147.5305017  71.5699987  29.1465006 147.5305017
  70.3729987  30.0735006 147.5305017  63.1299987  33.4645006 143.5775017
  64.0869987  33.4645006 143.5775017  62.8899987  34.3915006 143.5775017
  58.8959987  28.3265006 138.1525017  59.8529987  28.3265006 138.1525017
  58.6559987  29.2535006 138.1525017  64.5619987  31.1455006 143.1755017
  65.5189987  31.1455006 143.1755017  64.3219987  32.0725006 143.1755017
  65.0049987  35.3225006 149.5325017  65.9619987  35.3225006 149.5325017
  64.7649987  36.2495006 149.5325017  63.1249987  36.1905006 142.8395017
  64.0819987  36.1905006 142.8395017  62.8849987  37.1175006 142.8395017
  68.5089987  31.3295006 149.1475017  69.4659987  31.3295006 149.1475017
  68.2689987  32.2565006 149.1475017  70.7989987  32.3825006 138.2645017
  71.7559987  32.3825006 138.2645017  70.5589987  33.3095006 138.2645017
  71.3119987  35.9235006 151.6685017  72.2689987  35.9235006 151.6685017
  71.0719987  36.8505006 151.6685017  75.3259987  36.7735006 138.5385017
  76.2829987  36.7735006 138.5385017  75.0859987  37.7005006 138.5385017
  59.3959987  23.1745006 151.0505017  60.3529987  23.1745006 151.0505017
  59.1559987  24.1015006 151.0505017  71.6429987  31.0345006 140.5045017
  72.5999987  31.0345006 140.5045017  71.4029987  31.9615006 140.5045017
  59.0269987  34.9675006 149.4765017  59.9839987  34.9675006 149.4765017
  58.7869987  35.8945006 149.4765017  65.0409987  33.4695006 136.7905017
  65.9979987  33.4695006 136.7905017  64.8009987  34.3965006 136.7905017
  63.8209987  33.0095006 139.1855017  64.7779987  33.0095006 139.1855017
  63.5809987  33.9365006 139.1855017  60.2749987  30.2645006 139.6415017
  61.2319987  30.2645006 139.6415017  60.0349987  31.1915006 139.6415017
  68.1509987  22.9335006 149.9585017  69.1079987  22.9335006 149.9585017
  67.9109987  23.8605006 149.9585017  68.8609987  22.5485006 141.0815017
  69.8179987  22.5485006 141.0815017  68.6209987  23.4755006 141.0815017
  66.5779987  34.6935006 139.9465017  67.5349987  34.6935006 139.9465017
  66.3379987  35.6205006 139.9465017  66.0949987  24.2755006 141.8865017
  67.0519987  24.2755006 141.8865017  65.8549987  25.2025006 141.8865017
  66.6509987  25.3025006 151.0775017  67.6079987  25.3025006 151.0775017
  66.4109987  26.2295006 151.0775017  66.9619987  21.3345006 142.8115017
  67.9189987  21.3345006 142.8115017  66.7219987  22.2615006 142.8115017
  63.7099987  35.7505006 139.6675017  64.6669987  35.7505006 139.6675017
  63.4699987  36.6775006 139.6675017  62.5959987  22.4235006 139.5375017
  63.5529987  22.4235006 139.5375017  62.3559987  23.3505006 139.5375017
  72.8349987  23.1705006 151.9295017  73.7919987  23.1705006 151.9295017
  72.5949987  24.0975006 151.9295017  71.4969987  27.1135006 145.8705017
  72.4539987  27.1135006 145.8705017  71.2569987  28.0405006 145.8705017
  60.8939987  32.8185006 138.6085017  61.8509987  32.8185006 138.6085017
  60.6539987  33.7455006 138.6085017  59.2099987  25.5285006 137.7145017
  60.1669987  25.5285006 137.7145017  58.9699987  26.4555006 137.7145017
  72.5099987  36.1965006 147.6355017  73.4669987  36.1965006 147.6355017
  72.2699987  37.1235006 147.6355017  60.0109987  20.3285006 146.4175017
  60.9679987  20.3285006 146.4175017  59.7709987  21.2555006 146.4175017
  58.9539987  34.2395006 142.5505017  59.9109987  34.2395006 142.5505017
  58.7139987  35.1665006 142.5505017  58.1809987  36.8885006 153.8635017
  59.1379987  36.8885006 153.8635017  57.9409987  37.8155006 153.8635017
  62.8309987  35.8105006 155.4755017  63.7879987  35.8105006 155.4755017
  62.5909987  36.7375006 155.4755017  67.1419987  34.9415006 137.3805017
  68.0989987  34.9415006 137.3805017  66.9019987  35.8685006 137.3805017
  69.3769987  34.1905006 154.2055017  70.3339987  34.1905006 154.2055017
  69.1369987  35.1175006 154.2055017  71.3379987  35.0345006 137.2615017
  72.2949987  35.0345006 137.2615017  71.0979987  35.9615006 137.2615017
  58.0749987  30.6645006 154.8655017  59.0319987  30.6645006 154.8655017
  57.8349987  31.5915006 154.8655017  62.5889987  31.0455006 137.0505017
  63.5459987  31.0455006 137.0505017  62.3489987  31.9725006 137.0505017
  64.8009987  30.6575006 154.2505017  65.7579987  30.6575006 154.2505017
  64.5609987  31.5845006 154.2505017  67.7769987  32.0825006 136.6515017
  68.7339987  32.0825006 136.6515017  67.5369987  33.0095006 136.6515017
  70.5019987  30.5295006 151.6355017  71.4589987  30.5295006 151.6355017
  70.2619987  31.4565006 151.6355017  58.9629987  27.8945006 154.2375017
  59.9199987  27.8945006 154.2375017  58.7229987  28.8215006 154.2375017
  63.6399987  29.0195006 139.2705017  64.5969987  29.0195006 139.2705017
  63.3999987  29.9465006 139.2705017  62.9009987  26.8505006 151.6165017
  63.8579987  26.8505006 151.6165017  62.6609987  27.7775006 151.6165017
  64.7489987  26.9355006 137.7995017  65.7059987  26.9355006 137.7995017
  64.5089987  27.8625006 137.7995017  67.9609987  29.3945006 154.9155017
  68.9179987  29.3945006 154.9155017  67.7209987  30.3215006 154.9155017
  74.1369987  29.7865006 137.2885017  75.0939987  29.7865006 137.2885017
  73.8969987  30.7135006 137.2885017  63.2979987  24.2285006 152.6715017
  64.2549987  24.2285006 152.6715017  63.0579987  25.1555006 152.6715017
  63.6999987  22.6085006 150.2035017  64.6569987  22.6085006 150.2035017
  63.4599987  23.5355006 150.2035017  65.2329987  28.0575006 150.4135017
  66.1899987  28.0575006 150.4135017  64.9929987  28.9845006 150.4135017
  69.6509987  25.8525006 155.4355017  70.6079987  25.8525006 155.4355017
  69.4109987  26.7795006 155.4355017  70.9759987  28.6385006 153.5635017
  71.9329987  28.6385006 153.5635017  70.7359987  29.5655006 153.5635017
  61.7579987  25.4715006 154.5855017  62.7149987  25.4715006 154.5855017
  61.5179987  26.3985006 154.5855017  64.4939987  20.0455006 150.6105017
  65.4509987  20.0455006 150.6105017  64.2539987  20.9725006 150.6105017
  65.7649987  24.3745006 154.2095017  66.7219987  24.3745006 154.2095017
  65.5249987  25.3015006 154.2095017  68.4839987  23.5085006 153.2855017
  69.4409987  23.5085006 153.2855017  68.2439987  24.4355006 153.2855017
  70.0779987  22.1395006 155.2265017  71.0349987  22.1395006 155.2265017
  69.8379987  23.0665006 155.2265017  59.8529987  23.3965006 154.3185017
  60.8099987  23.3965006 154.3185017  59.6129987  24.3235006 154.3185017
  64.7039987  19.4115006 153.3025017  65.6609987  19.4115006 153.3025017
  64.4639987  20.3385006 153.3025017  65.0709987  21.0465006 155.3915017
  66.0279987  21.0465006 155.3915017  64.8309987  21.9735006 155.3915017
  64.5679987  37.9645006 138.5835017  65.5249987  37.9645006 138.5835017
  64.3279987  38.8915006 138.5835017  58.1109987  32.4955006 138.1185017
  59.0679987  32.4955006 138.1185017  57.8709987  33.4225006 138.1185017
  56.8429987  37.9365006 143.0535017  57.7999987  37.9365006 143.0535017
  56.6029987  38.8635006 143.0535017  57.6649987  36.0605006 144.8875017
  58.6219987  36.0605006 144.8875017  57.4249987  36.9875006 144.8875017
  75.2299987  36.8475006 147.8355017  76.1869987  36.8475006 147.8355017
  74.9899987  37.7745006 147.8355017  74.8059987  36.4445006 150.7785017
  75.7629987  36.4445006 150.7785017  74.5659987  37.3715006 150.7785017
  73.2499987  32.1725006 155.4205017  74.2069987  32.1725006 155.4205017
  73.0099987  33.0995006 155.4205017  74.5629987  30.4905006 140.8955017
  75.5199987  30.4905006 140.8955017  74.3229987  31.4175006 140.8955017
  74.9339987  28.5665006 142.7555017  75.8909987  28.5665006 142.7555017
  74.6939987  29.4935006 142.7555017  74.6879987  31.2735006 147.7415017
  75.6449987  31.2735006 147.7415017  74.4479987  32.2005006 147.7415017
  73.2349987  34.1725006 150.0225017  74.1919987  34.1725006 150.0225017
  72.9949987  35.0995006 150.0225017  75.2419987  28.3765006 139.1835017
  76.1989987  28.3765006 139.1835017  75.0019987  29.3035006 139.1835017
  73.6879987  25.5535006 137.9085017  74.6449987  25.5535006 137.9085017
  73.4479987  26.4805006 137.9085017  72.7339987  27.0365006 143.3355017
  73.6909987  27.0365006 143.3355017  72.4939987  27.9635006 143.3355017
  57.7539987  29.1305006 147.3675017  58.7109987  29.1305006 147.3675017
  57.5139987  30.0575006 147.3675017  73.5969987  29.0105006 152.9995017
  74.5539987  29.0105006 152.9995017  73.3569987  29.9375006 152.9995017
  75.1049987  26.9045006 153.6655017  76.0619987  26.9045006 153.6655017
  74.8649987  27.8315006 153.6655017  72.7729987  23.1185006 136.9715017
  73.7299987  23.1185006 136.9715017  72.5329987  24.0455006 136.9715017
  72.4169987  24.6345006 141.8185017  73.3739987  24.6345006 141.8185017
  72.1769987  25.5615006 141.8185017  73.1529987  25.2055006 147.2515017
  74.1099987  25.2055006 147.2515017  72.9129987  26.1325006 147.2515017
  73.0859987  25.8995006 149.9465017  74.0429987  25.8995006 149.9465017
  72.8459987  26.8265006 149.9465017  57.3589987  24.4325006 153.5305017
  58.3159987  24.4325006 153.5305017  57.1189987  25.3595006 153.5305017
  75.3809987  19.9395006 155.3615017  76.3379987  19.9395006 155.3615017
  75.1409987  20.8665006 155.3615017  73.0759987  21.9055006 141.8355017
  74.0329987  21.9055006 141.8355017  72.8359987  22.8325006 141.8355017
  58.5669987  22.7145006 146.3825017  59.5239987  22.7145006 146.3825017
  58.3269987  23.6415006 146.3825017  56.8559987  25.7105006 147.4345017
  57.8129987  25.7105006 147.4345017  56.6159987  26.6375006 147.4345017
  74.9099987  22.0475006 153.7125017  75.8669987  22.0475006 153.7125017
  74.6699987  22.9745006 153.7125017  74.9719987  21.8785006 138.5885017
  75.9289987  21.8785006 138.5885017  74.7319987  22.8055006 138.5885017
  57.2199987  21.9755006 141.5065017  58.1769987  21.9755006 141.5065017
  56.9799987  22.9025006 141.5065017  71.9549987  36.9265006 143.4495017
  72.9119987  36.9265006 143.4495017  71.7149987  37.8535006 143.4495017
  57.1739987  20.6535006 149.8105017  58.1309987  20.6535006 149.8105017
  56.9339987  21.5805006 149.8105017  59.3919987  33.8375006 153.9675017
  60.3489987  33.8375006 153.9675017  59.1519987  34.7645006 153.9675017
  62.3079987  34.8255006 150.2315017  63.2649987  34.8255006 150.2315017
  62.0679987  35.7525006 150.2315017  66.6239987  36.2585006 153.1545017
  67.5809987  36.2585006 153.1545017  66.3839987  37.1855006 153.1545017
  68.9239987  37.5295006 152.4455017  69.8809987  37.5295006 152.4455017
  68.6839987  38.4565006 152.4455017  73.9249987  20.1425006 151.5495017
  74.8819987  20.1425006 151.5495017  73.6849987  21.0695006 151.5495017
  59.7299987  38.0795006 150.2515017  60.6869987  38.0795006 150.2515017
  59.4899987  39.0065006 150.2515017  62.2009987  37.6625006 149.3125017
  63.1579987  37.6625006 149.3125017  61.9609987  38.5895006 149.3125017
  66.9019987  37.5705006 148.4785017  67.8589987  37.5705006 148.4785017
  66.6619987  38.4975006 148.4785017  69.2099987  36.4025006 149.4775017
  70.1669987  36.4025006 149.4775017  68.9699987  37.3295006 149.4775017
  71.7899987  37.9685006 149.7365017  72.7469987  37.9685006 149.7365017
  71.5499987  38.8955006 149.7365017  59.1589987  36.7275006 147.1835017
  60.1159987  36.7275006 147.1835017  58.9189987  37.6545006 147.1835017
  61.2749987  35.4365006 145.8085017  62.2319987  35.4365006 145.8085017
  61.0349987  36.3635006 145.8085017  63.8509987  35.9215006 146.6915017
  64.8079987  35.9215006 146.6915017  63.6109987  36.8485006 146.6915017
  67.3399987  21.5785006 145.8545017  68.2969987  21.5785006 145.8545017
  67.0999987  22.5055006 145.8545017  72.4539987  19.6545006 145.9465017
  73.4109987  19.6545006 145.9465017  72.2139987  20.5815006 145.9465017
  74.1329987  20.8535006 144.2395017  75.0899987  20.8535006 144.2395017
  73.8929987  21.7805006 144.2395017  59.6819987  20.2055006 143.6855017
  60.6389987  20.2055006 143.6855017  59.4419987  21.1325006 143.6855017
  58.4459987  19.9675006 139.3905017  59.4029987  19.9675006 139.3905017
  58.2059987  20.8945006 139.3905017  64.1829987  20.1255006 143.4765017
  65.1399987  20.1255006 143.4765017  63.9429987  21.0525006 143.4765017
  69.8429987  20.1755006 145.1215017  70.7999987  20.1755006 145.1215017
  69.6029987  21.1025006 145.1215017  71.1529987  20.1815006 140.7495017
  72.1099987  20.1815006 140.7495017  70.9129987  21.1085006 140.7495017
  58.4299987  35.9265006 140.3595017  59.3869987  35.9265006 140.3595017
  58.1899987  36.8535006 140.3595017  60.2969987  21.9095006 137.9555017
  61.2539987  21.9095006 137.9555017  60.0569987  22.8365006 137.9555017
  65.3389987  22.1635006 140.3425017  66.2959987  22.1635006 140.3425017
  65.0989987  23.0905006 140.3425017  67.2219987  37.2435006 138.7705017
  68.1789987  37.2435006 138.7705017  66.9819987  38.1705006 138.7705017
  73.9629987  36.7305006 141.4835017  74.9199987  36.7305006 141.4835017
  73.7229987  37.6575006 141.4835017  59.5799987  20.7385006 153.1505017
  60.5369987  20.7385006 153.1505017  59.3399987  21.6655006 153.1505017
  61.5839987  20.1115006 154.7625017  62.5409987  20.1115006 154.7625017
  61.3439987  21.0385006 154.7625017  60.3609987  36.9725006 137.4415017
  61.3179987  36.9725006 137.4415017  60.1209987  37.8995006 137.4415017
  69.9869987  19.4185006 154.9265017  70.9439987  19.4185006 154.9265017
  69.7469987  20.3455006 154.9265017  73.1999987  35.4595006 153.5735017
  74.1569987  35.4595006 153.5735017  72.9599987  36.3865006 153.5735017
  87.6229987  29.3455006 143.5905017  88.5799987  29.3455006 143.5905017
  87.3829987  30.2725006 143.5905017  86.4889987  28.6045006 147.0615017
  87.4459987  28.6045006 147.0615017  86.2489987  29.5315006 147.0615017
  78.8519987  28.2585006 148.6095017  79.8089987  28.2585006 148.6095017
  78.6119987  29.1855006 148.6095017  90.1959987  31.5445006 145.3325017
  91.1529987  31.5445006 145.3325017  89.9559987  32.4715006 145.3325017
  79.7799987  32.7085006 147.1315017  80.7369987  32.7085006 147.1315017
  79.5399987  33.6355006 147.1315017  76.4359987  26.2885006 142.5805017
  77.3929987  26.2885006 142.5805017  76.1959987  27.2155006 142.5805017
  77.1339987  28.5105006 144.7245017  78.0909987  28.5105006 144.7245017
  76.8939987  29.4375006 144.7245017  87.3069987  36.6935006 145.5685017
  88.2639987  36.6935006 145.5685017  87.0669987  37.6205006 145.5685017
  84.8719987  31.0115006 147.4985017  85.8289987  31.0115006 147.4985017
  84.6319987  31.9385006 147.4985017  93.4919987  22.6445006 148.2655017
  94.4489987  22.6445006 148.2655017  93.2519987  23.5715006 148.2655017
  88.0369987  25.4645006 147.8235017  88.9939987  25.4645006 147.8235017
  87.7969987  26.3915006 147.8235017  81.1609987  23.5505006 145.0575017
  82.1179987  23.5505006 145.0575017  80.9209987  24.4775006 145.0575017
  88.8909987  23.6395006 143.4275017  89.8479987  23.6395006 143.4275017
  88.6509987  24.5665006 143.4275017  77.7819987  25.9575006 145.7955017
  78.7389987  25.9575006 145.7955017  77.5419987  26.8845006 145.7955017
  82.9459987  27.5155006 145.0815017  83.9029987  27.5155006 145.0815017
  82.7059987  28.4425006 145.0815017  93.9259987  24.0775006 150.5255017
  94.8829987  24.0775006 150.5255017  93.6859987  25.0045006 150.5255017
  80.0459987  22.4495006 149.1015017  81.0029987  22.4495006 149.1015017
  79.8059987  23.3765006 149.1015017  87.3569987  31.9435006 142.6355017
  88.3139987  31.9435006 142.6355017  87.1169987  32.8705006 142.6355017
  82.5779987  30.0975006 149.3555017  83.5349987  30.0975006 149.3555017
  82.3379987  31.0245006 149.3555017  90.6859987  22.9755006 145.4195017
  91.6429987  22.9755006 145.4195017  90.4459987  23.9025006 145.4195017
  79.6089987  24.3185006 147.1085017  80.5659987  24.3185006 147.1085017
  79.3689987  25.2455006 147.1085017  81.0149987  32.0875006 150.1655017
  81.9719987  32.0875006 150.1655017  80.7749987  33.0145006 150.1655017
  77.1019987  31.7175006 140.9905017  78.0589987  31.7175006 140.9905017
  76.8619987  32.6445006 140.9905017  90.7179987  33.3785006 147.7025017
  91.6749987  33.3785006 147.7025017  90.4779987  34.3055006 147.7025017
  91.0339987  21.6685006 149.0995017  91.9909987  21.6685006 149.0995017
  90.7939987  22.5955006 149.0995017  84.0149987  19.7795006 146.5595017
  84.9719987  19.7795006 146.5595017  83.7749987  20.7065006 146.5595017
  88.9709987  35.1635006 144.3045017  89.9279987  35.1635006 144.3045017
  88.7309987  36.0905006 144.3045017  90.1689987  33.0865006 142.8225017
  91.1259987  33.0865006 142.8225017  89.9289987  34.0135006 142.8225017
  91.8079987  31.6715006 151.3075017  92.7649987  31.6715006 151.3075017
  91.5679987  32.5985006 151.3075017  86.3059987  28.5845006 141.0815017
  87.2629987  28.5845006 141.0815017  86.0659987  29.5115006 141.0815017
  86.3519987  27.1305006 138.3425017  87.3089987  27.1305006 138.3425017
  86.1119987  28.0575006 138.3425017  93.6829987  27.9855006 149.3605017
  94.6399987  27.9855006 149.3605017  93.4429987  28.9125006 149.3605017
  89.7289987  28.8015006 142.0155017  90.6859987  28.8015006 142.0155017
  89.4889987  29.7285006 142.0155017  89.6589987  26.9535006 151.1055017
  90.6159987  26.9535006 151.1055017  89.4189987  27.8805006 151.1055017
  81.3569987  29.4555006 143.9055017  82.3139987  29.4555006 143.9055017
  81.1169987  30.3825006 143.9055017  82.6819987  32.8495006 146.5895017
  83.6389987  32.8495006 146.5895017  82.4419987  33.7765006 146.5895017
  81.6919987  28.1935006 147.5585017  82.6489987  28.1935006 147.5585017
  81.4519987  29.1205006 147.5585017  88.0769987  33.7555006 148.2665017
  89.0339987  33.7555006 148.2665017  87.8369987  34.6825006 148.2665017
  82.6299987  32.6165006 152.2625017  83.5869987  32.6165006 152.2625017
  82.3899987  33.5435006 152.2625017  88.5889987  27.9575006 139.6835017
  89.5459987  27.9575006 139.6835017  88.3489987  28.8845006 139.6835017
  79.5639987  28.7845006 151.4385017  80.5209987  28.7845006 151.4385017
  79.3239987  29.7115006 151.4385017  86.3169987  34.7015006 143.1505017
  87.2739987  34.7015006 143.1505017  86.0769987  35.6285006 143.1505017
  80.8709987  34.6675006 153.0165017  81.8279987  34.6675006 153.0165017
  80.6309987  35.5945006 153.0165017  92.3319987  19.7065006 139.4905017
  93.2889987  19.7065006 139.4905017  92.0919987  20.6335006 139.4905017
  80.3239987  28.4855006 141.5235017  81.2809987  28.4855006 141.5235017
  80.0839987  29.4125006 141.5235017  93.4559987  34.0435006 137.9565017
  94.4129987  34.0435006 137.9565017  93.2159987  34.9705006 137.9565017
  76.4159987  30.8925006 150.3895017  77.3729987  30.8925006 150.3895017
  76.1759987  31.8195006 150.3895017  76.1759987  33.6355006 147.1945017
  77.1329987  33.6355006 147.1945017  75.9359987  34.5625006 147.1945017
  94.4129987  34.3355006 152.8805017  95.3699987  34.3355006 152.8805017
  94.1729987  35.2625006 152.8805017  85.3699987  33.8795006 151.7445017
  86.3269987  33.8795006 151.7445017  85.1299987  34.8065006 151.7445017
  85.7829987  37.6295006 141.5265017  86.7399987  37.6295006 141.5265017
  85.5429987  38.5565006 141.5265017  79.4449987  36.4935006 143.3605017
  80.4019987  36.4935006 143.3605017  79.2049987  37.4205006 143.3605017
  88.8009987  36.8545006 138.5235017  89.7579987  36.8545006 138.5235017
  88.5609987  37.7815006 138.5235017  88.5479987  36.7695006 141.3105017
  89.5049987  36.7695006 141.3105017  88.3079987  37.6965006 141.3105017
  91.5529987  25.8095006 153.3615017  92.5099987  25.8095006 153.3615017
  91.3129987  26.7365006 153.3615017  78.6919987  32.2145006 151.3555017
  79.6489987  32.2145006 151.3555017  78.4519987  33.1415006 151.3555017
  81.3619987  20.6755006 147.3205017  82.3189987  20.6755006 147.3205017
  81.1219987  21.6025006 147.3205017  86.0069987  20.3665006 150.6855017
  86.9639987  20.3665006 150.6855017  85.7669987  21.2935006 150.6855017
  89.3089987  24.1835006 151.5735017  90.2659987  24.1835006 151.5735017
  89.0689987  25.1105006 151.5735017  90.2059987  29.1225006 137.8545017
  91.1629987  29.1225006 137.8545017  89.9659987  30.0495006 137.8545017
  85.6619987  22.9215006 138.0095017  86.6189987  22.9215006 138.0095017
  85.4219987  23.8485006 138.0095017  81.4629987  25.6455006 148.5295017
  82.4199987  25.6455006 148.5295017  81.2229987  26.5725006 148.5295017
  81.4259987  25.8045006 143.4105017  82.3829987  25.8045006 143.4105017
  81.1859987  26.7315006 143.4105017  86.9439987  26.2625006 142.1685017
  87.9009987  26.2625006 142.1685017  86.7039987  27.1895006 142.1685017
  86.0229987  26.4815006 153.6415017  86.9799987  26.4815006 153.6415017
  85.7829987  27.4085006 153.6415017  87.9769987  25.7555006 145.0305017
  88.9339987  25.7555006 145.0305017  87.7369987  26.6825006 145.0305017
  79.1039987  25.9305006 150.2605017  80.0609987  25.9305006 150.2605017
  78.8639987  26.8575006 150.2605017  82.5369987  23.2735006 137.2615017
  83.4939987  23.2735006 137.2615017  82.2969987  24.2005006 137.2615017
  75.7359987  23.0405006 144.2105017  76.6929987  23.0405006 144.2105017
  75.4959987  23.9675006 144.2105017  77.0119987  23.7415006 139.5495017
  77.9689987  23.7415006 139.5495017  76.7719987  24.6685006 139.5495017
  87.1929987  27.3595006 149.6165017  88.1499987  27.3595006 149.6165017
  86.9529987  28.2865006 149.6165017  83.9909987  23.3155006 144.4305017
  84.9479987  23.3155006 144.4305017  83.7509987  24.2425006 144.4305017
  78.8049987  24.8905006 143.2955017  79.7619987  24.8905006 143.2955017
  78.5649987  25.8175006 143.2955017  82.4449987  24.9435006 140.9485017
  83.4019987  24.9435006 140.9485017  82.2049987  25.8705006 140.9485017
  88.3949987  22.5535006 147.6825017  89.3519987  22.5535006 147.6825017
  88.1549987  23.4805006 147.6825017  81.1049987  26.1365006 138.4985017
  82.0619987  26.1365006 138.4985017  80.8649987  27.0635006 138.4985017
  91.6109987  38.2035006 153.9965017  92.5679987  38.2035006 153.9965017
  91.3709987  39.1305006 153.9965017  79.2809987  30.6685006 153.5665017
  80.2379987  30.6685006 153.5665017  79.0409987  31.5955006 153.5665017
  85.2779987  26.0815006 146.3265017  86.2349987  26.0815006 146.3265017
  85.0379987  27.0085006 146.3265017  80.2889987  22.2285006 142.7605017
  81.2459987  22.2285006 142.7605017  80.0489987  23.1555006 142.7605017
  83.9179987  24.4205006 148.7395017  84.8749987  24.4205006 148.7395017
  83.6779987  25.3475006 148.7395017  84.5029987  30.6445006 140.4265017
  85.4599987  30.6445006 140.4265017  84.2629987  31.5715006 140.4265017
  91.6669987  29.8225006 149.2375017  92.6239987  29.8225006 149.2375017
  91.4269987  30.7495006 149.2375017  88.3589987  23.4615006 138.5805017
  89.3159987  23.4615006 138.5805017  88.1189987  24.3885006 138.5805017
  85.9909987  30.8855006 151.6735017  86.9479987  30.8855006 151.6735017
  85.7509987  31.8125006 151.6735017  89.0709987  25.3455006 140.2795017
  90.0279987  25.3455006 140.2795017  88.8309987  26.2725006 140.2795017
  79.6079987  30.0155006 146.2325017  80.5649987  30.0155006 146.2325017
  79.3679987  30.9425006 146.2325017  86.6039987  32.0935006 139.4585017
  87.5609987  32.0935006 139.4585017  86.3639987  33.0205006 139.4585017
  76.5989987  28.4375006 151.4995017  77.5559987  28.4375006 151.4995017
  76.3589987  29.3645006 151.4995017  83.6129987  27.9895006 153.6945017
  84.5699987  27.9895006 153.6945017  83.3729987  28.9165006 153.6945017
  88.2839987  33.3215006 151.6165017  89.2409987  33.3215006 151.6165017
  88.0439987  34.2485006 151.6165017  93.9899987  25.5225006 140.0475017
  94.9469987  25.5225006 140.0475017  93.7499987  26.4495006 140.0475017
  93.9519987  31.3745006 152.8345017  94.9089987  31.3745006 152.8345017
  93.7119987  32.3015006 152.8345017  92.2919987  34.3305006 140.4285017
  93.2489987  34.3305006 140.4285017  92.0519987  35.2575006 140.4285017
  89.4579987  29.1575006 147.5115017  90.4149987  29.1575006 147.5115017
  89.2179987  30.0845006 147.5115017  81.9819987  33.4815006 143.6165017
  82.9389987  33.4815006 143.6165017  81.7419987  34.4085006 143.6165017
  77.7519987  28.3265006 138.1525017  78.7089987  28.3265006 138.1525017
  77.5119987  29.2535006 138.1525017  83.4049987  31.1455006 143.1425017
  84.3619987  31.1455006 143.1425017  83.1649987  32.0725006 143.1425017
  83.8589987  35.3235006 149.5335017  84.8159987  35.3235006 149.5335017
  83.6189987  36.2505006 149.5335017  82.0769987  36.1485006 142.6955017
  83.0339987  36.1485006 142.6955017  81.8369987  37.0755006 142.6955017
  87.4009987  31.3535006 149.1755017  88.3579987  31.3535006 149.1755017
  87.1609987  32.2805006 149.1755017  89.6619987  32.3865006 138.2815017
  90.6189987  32.3865006 138.2815017  89.4219987  33.3135006 138.2815017
  90.1689987  35.9235006 151.6685017  91.1259987  35.9235006 151.6685017
  89.9289987  36.8505006 151.6685017  94.1819987  36.7735006 138.5385017
  95.1389987  36.7735006 138.5385017  93.9419987  37.7005006 138.5385017
  78.2489987  23.1735006 151.0495017  79.2059987  23.1735006 151.0495017
  78.0089987  24.1005006 151.0495017  90.4989987  31.0335006 140.5065017
  91.4559987  31.0335006 140.5065017  90.2589987  31.9605006 140.5065017
  77.8739987  34.9675006 149.4805017  78.8309987  34.9675006 149.4805017
  77.6339987  35.8945006 149.4805017  83.9069987  33.4575006 136.7925017
  84.8639987  33.4575006 136.7925017  83.6669987  34.3845006 136.7925017
  82.6399987  33.0115006 139.1835017  83.5969987  33.0115006 139.1835017
  82.3999987  33.9385006 139.1835017  79.1299987  30.2665006 139.6415017
  80.0869987  30.2665006 139.6415017  78.8899987  31.1935006 139.6415017
  86.9769987  22.9395006 149.9895017  87.9339987  22.9395006 149.9895017
  86.7369987  23.8665006 149.9895017  87.7199987  22.5495006 141.0855017
  88.6769987  22.5495006 141.0855017  87.4799987  23.4765006 141.0855017
  85.4169987  34.6895006 139.9645017  86.3739987  34.6895006 139.9645017
  85.1769987  35.6165006 139.9645017  84.9519987  24.2805006 141.8975017
  85.9089987  24.2805006 141.8975017  84.7119987  25.2075006 141.8975017
  85.5059987  25.2875006 151.0945017  86.4629987  25.2875006 151.0945017
  85.2659987  26.2145006 151.0945017  85.8189987  21.3335006 142.8105017
  86.7759987  21.3335006 142.8105017  85.5789987  22.2605006 142.8105017
  82.7909987  35.7155006 139.9265017  83.7479987  35.7155006 139.9265017
  82.5509987  36.6425006 139.9265017  81.4519987  22.4235006 139.5365017
  82.4089987  22.4235006 139.5365017  81.2119987  23.3505006 139.5365017
  91.6999987  23.1645006 151.9425017  92.6569987  23.1645006 151.9425017
  91.4599987  24.0915006 151.9425017  90.2999987  26.9485006 145.9735017
  91.2569987  26.9485006 145.9735017  90.0599987  27.8755006 145.9735017
  79.7439987  32.8265006 138.5995017  80.7009987  32.8265006 138.5995017
  79.5039987  33.7535006 138.5995017  78.0659987  25.5285006 137.7145017
  79.0229987  25.5285006 137.7145017  77.8259987  26.4555006 137.7145017
  91.3659987  36.1965006 147.6355017  92.3229987  36.1965006 147.6355017
  91.1259987  37.1235006 147.6355017  78.8669987  20.3285006 146.4175017
  79.8239987  20.3285006 146.4175017  78.6269987  21.2555006 146.4175017
  77.8139987  34.2405006 142.5475017  78.7709987  34.2405006 142.5475017
  77.5739987  35.1675006 142.5475017  77.0379987  36.8945006 153.8665017
  77.9949987  36.8945006 153.8665017  76.7979987  37.8215006 153.8665017
  81.6929987  35.8145006 155.4825017  82.6499987  35.8145006 155.4825017
  81.4529987  36.7415006 155.4825017  86.0009987  34.9385006 137.3725017
  86.9579987  34.9385006 137.3725017  85.7609987  35.8655006 137.3725017
  88.2259987  34.1945006 154.2135017  89.1829987  34.1945006 154.2135017
  87.9859987  35.1215006 154.2135017  90.2159987  35.0605006 137.3025017
  91.1729987  35.0605006 137.3025017  89.9759987  35.9875006 137.3025017
  76.9649987  30.6765006 154.8465017  77.9219987  30.6765006 154.8465017
  76.7249987  31.6035006 154.8465017  81.4459987  31.0425006 137.0485017
  82.4029987  31.0425006 137.0485017  81.2059987  31.9695006 137.0485017
  83.6559987  30.6585006 154.2495017  84.6129987  30.6585006 154.2495017
  83.4159987  31.5855006 154.2495017  86.6359987  32.0795006 136.6625017
  87.5929987  32.0795006 136.6625017  86.3959987  33.0065006 136.6625017
  89.3589987  30.5285006 151.6355017  90.3159987  30.5285006 151.6355017
  89.1189987  31.4555006 151.6355017  77.8479987  27.8955006 154.2365017
  78.8049987  27.8955006 154.2365017  77.6079987  28.8225006 154.2365017
  82.4889987  29.0215006 139.2725017  83.4459987  29.0215006 139.2725017
  82.2489987  29.9485006 139.2725017  81.7609987  26.8545006 151.6045017
  82.7179987  26.8545006 151.6045017  81.5209987  27.7815006 151.6045017
  83.6049987  26.9305006 137.7985017  84.5619987  26.9305006 137.7985017
  83.3649987  27.8575006 137.7985017  86.8179987  29.3995006 154.9185017
  87.7749987  29.3995006 154.9185017  86.5779987  30.3265006 154.9185017
  92.9899987  29.7895006 137.2845017  93.9469987  29.7895006 137.2845017
  92.7499987  30.7165006 137.2845017  82.1549987  24.2285006 152.6725017
  83.1119987  24.2285006 152.6725017  81.9149987  25.1555006 152.6725017
  82.5549987  22.6055006 150.2045017  83.5119987  22.6055006 150.2045017
  82.3149987  23.5325006 150.2045017  84.1049987  28.0745006 150.4485017
  85.0619987  28.0745006 150.4485017  83.8649987  29.0015006 150.4485017
  88.5039987  25.8535006 155.4275017  89.4609987  25.8535006 155.4275017
  88.2639987  26.7805006 155.4275017  89.8309987  28.6335006 153.5625017
  90.7879987  28.6335006 153.5625017  89.5909987  29.5605006 153.5625017
  80.6139987  25.4705006 154.5855017  81.5709987  25.4705006 154.5855017
  80.3739987  26.3975006 154.5855017  83.3489987  20.0445006 150.6105017
  84.3059987  20.0445006 150.6105017  83.1089987  20.9715006 150.6105017
  84.6209987  24.3745006 154.2095017  85.5779987  24.3745006 154.2095017
  84.3809987  25.3015006 154.2095017  87.3379987  23.5085006 153.2865017
  88.2949987  23.5085006 153.2865017  87.0979987  24.4355006 153.2865017
  88.9339987  22.1395006 155.2265017  89.8909987  22.1395006 155.2265017
  88.6939987  23.0665006 155.2265017  78.7099987  23.3955006 154.3185017
  79.6669987  23.3955006 154.3185017  78.4699987  24.3225006 154.3185017
  83.5599987  19.4125006 153.3025017  84.5169987  19.4125006 153.3025017
  83.3199987  20.3395006 153.3025017  83.9269987  21.0465006 155.3915017
  84.8839987  21.0465006 155.3915017  83.6869987  21.9735006 155.3915017
  83.4099987  37.9645006 138.5745017  84.3669987  37.9645006 138.5745017
  83.1699987  38.8915006 138.5745017  76.9629987  32.4875006 138.1265017
  77.9199987  32.4875006 138.1265017  76.7229987  33.4145006 138.1265017
  75.7239987  37.9325006 143.0325017  76.6809987  37.9325006 143.0325017
  75.4839987  38.8595006 143.0325017  76.5519987  36.0495006 144.8835017
  77.5089987  36.0495006 144.8835017  76.3119987  36.9765006 144.8835017
  94.0859987  36.8475006 147.8355017  95.0429987  36.8475006 147.8355017
  93.8459987  37.7745006 147.8355017  93.6619987  36.4445006 150.7785017
  94.6189987  36.4445006 150.7785017  93.4219987  37.3715006 150.7785017
  92.1069987  32.1755006 155.4345017  93.0639987  32.1755006 155.4345017
  91.8669987  33.1025006 155.4345017  93.4199987  30.4925006 140.8935017
  94.3769987  30.4925006 140.8935017  93.1799987  31.4195006 140.8935017
  93.7849987  28.5655006 142.7585017  94.7419987  28.5655006 142.7585017
  93.5449987  29.4925006 142.7585017  93.5439987  31.2735006 147.7395017
  94.5009987  31.2735006 147.7395017  93.3039987  32.2005006 147.7395017
  92.0899987  34.1705006 150.0215017  93.0469987  34.1705006 150.0215017
  91.8499987  35.0975006 150.0215017  94.0929987  28.3785006 139.1785017
  95.0499987  28.3785006 139.1785017  93.8529987  29.3055006 139.1785017
  92.5449987  25.5575006 137.9035017  93.5019987  25.5575006 137.9035017
  92.3049987  26.4845006 137.9035017  91.5999987  27.0445006 143.3215017
  92.5569987  27.0445006 143.3215017  91.3599987  27.9715006 143.3215017
  76.6089987  29.1255006 147.3775017  77.5659987  29.1255006 147.3775017
  76.3689987  30.0525006 147.3775017  92.4529987  29.0115006 153.0005017
  93.4099987  29.0115006 153.0005017  92.2129987  29.9385006 153.0005017
  93.9609987  26.9045006 153.6655017  94.9179987  26.9045006 153.6655017
  93.7209987  27.8315006 153.6655017  91.6299987  23.1195006 136.9705017
  92.5869987  23.1195006 136.9705017  91.3899987  24.0465006 136.9705017
  91.2679987  24.6325006 141.7885017  92.2249987  24.6325006 141.7885017
  91.0279987  25.5595006 141.7885017  91.9049987  25.1735006 147.2245017
  92.8619987  25.1735006 147.2245017  91.6649987  26.1005006 147.2245017
  91.9739987  25.8985006 150.0145017  92.9309987  25.8985006 150.0145017
  91.7339987  26.8255006 150.0145017  76.2179987  24.4255006 153.5215017
  77.1749987  24.4255006 153.5215017  75.9779987  25.3525006 153.5215017
  94.2369987  19.9405006 155.3615017  95.1939987  19.9405006 155.3615017
  93.9969987  20.8675006 155.3615017  91.9339987  21.9055006 141.8365017
  92.8909987  21.9055006 141.8365017  91.6939987  22.8325006 141.8365017
  77.4239987  22.7145006 146.3825017  78.3809987  22.7145006 146.3825017
  77.1839987  23.6415006 146.3825017  75.7089987  25.7175006 147.4235017
  76.6659987  25.7175006 147.4235017  75.4689987  26.6445006 147.4235017
  93.7669987  22.0465006 153.7135017  94.7239987  22.0465006 153.7135017
  93.5269987  22.9735006 153.7135017  93.8279987  21.8785006 138.5885017
  94.7849987  21.8785006 138.5885017  93.5879987  22.8055006 138.5885017
  76.0759987  21.9755006 141.5065017  77.0329987  21.9755006 141.5065017
  75.8359987  22.9025006 141.5065017  90.8129987  36.9265006 143.4485017
  91.7699987  36.9265006 143.4485017  90.5729987  37.8535006 143.4485017
  76.0309987  20.6495006 149.8115017  76.9879987  20.6495006 149.8115017
  75.7909987  21.5765006 149.8115017  78.2489987  33.8395006 153.9695017
  79.2059987  33.8395006 153.9695017  78.0089987  34.7665006 153.9695017
  81.1609987  34.8345006 150.2415017  82.1179987  34.8345006 150.2415017
  80.9209987  35.7615006 150.2415017  85.4809987  36.2595006 153.1565017
  86.4379987  36.2595006 153.1565017  85.2409987  37.1865006 153.1565017
  87.7789987  37.5295006 152.4455017  88.7359987  37.5295006 152.4455017
  87.5389987  38.4565006 152.4455017  92.7799987  20.1425006 151.5495017
  93.7369987  20.1425006 151.5495017  92.5399987  21.0695006 151.5495017
  78.5879987  38.0805006 150.2495017  79.5449987  38.0805006 150.2495017
  78.3479987  39.0075006 150.2495017  81.0569987  37.6625006 149.3125017
  82.0139987  37.6625006 149.3125017  80.8169987  38.5895006 149.3125017
  85.7599987  37.5715006 148.4805017  86.7169987  37.5715006 148.4805017
  85.5199987  38.4985006 148.4805017  88.0659987  36.4025006 149.4785017
  89.0229987  36.4025006 149.4785017  87.8259987  37.3295006 149.4785017
  90.6459987  37.9685006 149.7365017  91.6029987  37.9685006 149.7365017
  90.4059987  38.8955006 149.7365017  78.0219987  36.7295006 147.1795017
  78.9789987  36.7295006 147.1795017  77.7819987  37.6565006 147.1795017
  80.1169987  35.4415006 145.8325017  81.0739987  35.4415006 145.8325017
  79.8769987  36.3685006 145.8325017  82.7049987  35.9245006 146.7035017
  83.6619987  35.9245006 146.7035017  82.4649987  36.8515006 146.7035017
  86.1769987  21.5775006 145.8445017  87.1339987  21.5775006 145.8445017
  85.9369987  22.5045006 145.8445017  91.3119987  19.6335006 145.9325017
  92.2689987  19.6335006 145.9325017  91.0719987  20.5605006 145.9325017
  92.9969987  20.8445006 144.2355017  93.9539987  20.8445006 144.2355017
  92.7569987  21.7715006 144.2355017  78.5379987  20.2055006 143.6855017
  79.4949987  20.2055006 143.6855017  78.2979987  21.1325006 143.6855017
  77.3019987  19.9675006 139.3905017  78.2589987  19.9675006 139.3905017
  77.0619987  20.8945006 139.3905017  83.0389987  20.1245006 143.4765017
  83.9959987  20.1245006 143.4765017  82.7989987  21.0515006 143.4765017
  88.7059987  20.1485006 145.1155017  89.6629987  20.1485006 145.1155017
  88.4659987  21.0755006 145.1155017  90.0089987  20.1815006 140.7485017
  90.9659987  20.1815006 140.7485017  89.7689987  21.1085006 140.7485017
  77.2729987  35.9245006 140.3715017  78.2299987  35.9245006 140.3715017
  77.0329987  36.8515006 140.3715017  79.1529987  21.9095006 137.9555017
  80.1099987  21.9095006 137.9555017  78.9129987  22.8365006 137.9555017
  84.1949987  22.1645006 140.3435017  85.1519987  22.1645006 140.3435017
  83.9549987  23.0915006 140.3435017  86.0799987  37.2735006 138.7545017
  87.0369987  37.2735006 138.7545017  85.8399987  38.2005006 138.7545017
  92.8209987  36.7305006 141.4825017  93.7779987  36.7305006 141.4825017
  92.5809987  37.6575006 141.4825017  78.4359987  20.7375006 153.1505017
  79.3929987  20.7375006 153.1505017  78.1959987  21.6645006 153.1505017
  80.4399987  20.1115006 154.7625017  81.3969987  20.1115006 154.7625017
  80.1999987  21.0385006 154.7625017  79.1849987  36.9545006 137.4745017
  80.1419987  36.9545006 137.4745017  78.9449987  37.8815006 137.4745017
  88.8429987  19.4175006 154.9255017  89.7999987  19.4175006 154.9255017
  88.6029987  20.3445006 154.9255017  92.0489987  35.4565006 153.5805017
  93.0059987  35.4565006 153.5805017  91.8089987  36.3835006 153.5805017
 106.4659987  29.3145006 143.5605017 107.4229987  29.3145006 143.5605017
 106.2259987  30.2415006 143.5605017 105.2809987  28.6205006 147.0655017
 106.2379987  28.6205006 147.0655017 105.0409987  29.5475006 147.0655017
  97.7079987  28.2585006 148.6095017  98.6649987  28.2585006 148.6095017
  97.4679987  29.1855006 148.6095017  98.6349987  32.7085006 147.1315017
  99.5919987  32.7085006 147.1315017  98.3949987  33.6355006 147.1315017
  95.2809987  26.2885006 142.5935017  96.2379987  26.2885006 142.5935017
  95.0409987  27.2155006 142.5935017  95.9749987  28.5015006 144.7235017
  96.9319987  28.5015006 144.7235017  95.7349987  29.4285006 144.7235017
 106.1839987  36.6605006 145.5485017 107.1409987  36.6605006 145.5485017
 105.9439987  37.5875006 145.5485017 103.7009987  30.9995006 147.4905017
 104.6579987  30.9995006 147.4905017 103.4609987  31.9265006 147.4905017
 106.2209987  25.2245006 147.7715017 107.1779987  25.2245006 147.7715017
 105.9809987  26.1515006 147.7715017 100.0169987  23.5505006 145.0575017
 100.9739987  23.5505006 145.0575017  99.7769987  24.4775006 145.0575017
 107.7189987  24.1345006 143.0275017 108.6759987  24.1345006 143.0275017
 107.4789987  25.0615006 143.0275017  96.6379987  25.9585006 145.7955017
  97.5949987  25.9585006 145.7955017  96.3979987  26.8855006 145.7955017
 101.7919987  27.5195006 145.0765017 102.7489987  27.5195006 145.0765017
 101.5519987  28.4465006 145.0765017  98.9019987  22.4495006 149.1015017
  99.8589987  22.4495006 149.1015017  98.6619987  23.3765006 149.1015017
 106.2299987  31.9495006 142.6345017 107.1869987  31.9495006 142.6345017
 105.9899987  32.8765006 142.6345017 101.4369987  30.0985006 149.3565017
 102.3939987  30.0985006 149.3565017 101.1969987  31.0255006 149.3565017
  98.4629987  24.3175006 147.1085017  99.4199987  24.3175006 147.1085017
  98.2229987  25.2445006 147.1085017  99.8709987  32.0875006 150.1665017
 100.8279987  32.0875006 150.1665017  99.6309987  33.0145006 150.1665017
  95.9589987  31.7175006 140.9925017  96.9159987  31.7175006 140.9925017
  95.7189987  32.6445006 140.9925017 102.8789987  19.7805006 146.5675017
 103.8359987  19.7805006 146.5675017 102.6389987  20.7075006 146.5675017
 107.5019987  34.9875006 143.9005017 108.4589987  34.9875006 143.9005017
 107.2619987  35.9145006 143.9005017 105.1329987  28.5765006 141.0665017
 106.0899987  28.5765006 141.0665017 104.8929987  29.5035006 141.0665017
 105.2189987  27.1275006 138.3295017 106.1759987  27.1275006 138.3295017
 104.9789987  28.0545006 138.3295017 100.2089987  29.4535006 143.9065017
 101.1659987  29.4535006 143.9065017  99.9689987  30.3805006 143.9065017
 101.5379987  32.8475006 146.5905017 102.4949987  32.8475006 146.5905017
 101.2979987  33.7745006 146.5905017 100.5469987  28.1935006 147.5585017
 101.5039987  28.1935006 147.5585017 100.3069987  29.1205006 147.5585017
 106.5349987  33.7785006 148.3095017 107.4919987  33.7785006 148.3095017
 106.2949987  34.7055006 148.3095017 101.4859987  32.6165006 152.2615017
 102.4429987  32.6165006 152.2615017 101.2459987  33.5435006 152.2615017
 107.4609987  27.9685006 139.6845017 108.4179987  27.9685006 139.6845017
 107.2209987  28.8955006 139.6845017  98.4209987  28.7845006 151.4385017
  99.3779987  28.7845006 151.4385017  98.1809987  29.7115006 151.4385017
 105.0769987  34.6975006 143.1435017 106.0339987  34.6975006 143.1435017
 104.8369987  35.6245006 143.1435017  99.7269987  34.6675006 153.0155017
 100.6839987  34.6675006 153.0155017  99.4869987  35.5945006 153.0155017
  99.1799987  28.4845006 141.5235017 100.1369987  28.4845006 141.5235017
  98.9399987  29.4115006 141.5235017  95.2739987  30.8965006 150.3895017
  96.2309987  30.8965006 150.3895017  95.0339987  31.8235006 150.3895017
  95.0329987  33.6345006 147.1945017  95.9899987  33.6345006 147.1945017
  94.7929987  34.5615006 147.1945017 104.2419987  33.8785006 151.7655017
 105.1989987  33.8785006 151.7655017 104.0019987  34.8055006 151.7655017
 104.6469987  37.6295006 141.5295017 105.6039987  37.6295006 141.5295017
 104.4069987  38.5565006 141.5295017  98.3009987  36.4935006 143.3605017
  99.2579987  36.4935006 143.3605017  98.0609987  37.4205006 143.3605017
 107.6599987  36.8045006 138.5165017 108.6169987  36.8045006 138.5165017
 107.4199987  37.7315006 138.5165017 107.2499987  36.5845006 141.1485017
 108.2069987  36.5845006 141.1485017 107.0099987  37.5115006 141.1485017
  97.5479987  32.2145006 151.3555017  98.5049987  32.2145006 151.3555017
  97.3079987  33.1415006 151.3555017 100.2179987  20.6755006 147.3205017
 101.1749987  20.6755006 147.3205017  99.9779987  21.6025006 147.3205017
 104.8939987  20.3315006 150.6865017 105.8509987  20.3315006 150.6865017
 104.6539987  21.2585006 150.6865017 104.5409987  22.9115006 138.0185017
 105.4979987  22.9115006 138.0185017 104.3009987  23.8385006 138.0185017
 100.3059987  25.6425006 148.5295017 101.2629987  25.6425006 148.5295017
 100.0659987  26.5695006 148.5295017 100.2819987  25.8045006 143.4105017
 101.2389987  25.8045006 143.4105017 100.0419987  26.7315006 143.4105017
 105.7809987  26.2685006 142.1685017 106.7379987  26.2685006 142.1685017
 105.5409987  27.1955006 142.1685017 104.8899987  26.5145006 153.6805017
 105.8469987  26.5145006 153.6805017 104.6499987  27.4415006 153.6805017
 106.7849987  25.7375006 145.0245017 107.7419987  25.7375006 145.0245017
 106.5449987  26.6645006 145.0245017  97.9659987  25.9295006 150.2615017
  98.9229987  25.9295006 150.2615017  97.7259987  26.8565006 150.2615017
 101.3929987  23.2715006 137.2595017 102.3499987  23.2715006 137.2595017
 101.1529987  24.1985006 137.2595017  94.6059987  23.0375006 144.2025017
  95.5629987  23.0375006 144.2025017  94.3659987  23.9645006 144.2025017
  95.8679987  23.7415006 139.5495017  96.8249987  23.7415006 139.5495017
  95.6279987  24.6685006 139.5495017 106.0149987  27.3635006 149.6105017
 106.9719987  27.3635006 149.6105017 105.7749987  28.2905006 149.6105017
 102.8459987  23.3075006 144.4275017 103.8029987  23.3075006 144.4275017
 102.6059987  24.2345006 144.4275017  97.6619987  24.8905006 143.2945017
  98.6189987  24.8905006 143.2945017  97.4219987  25.8175006 143.2945017
 101.3039987  24.9435006 140.9495017 102.2609987  24.9435006 140.9495017
 101.0639987  25.8705006 140.9495017 107.2399987  22.4995006 147.7165017
 108.1969987  22.4995006 147.7165017 106.9999987  23.4265006 147.7165017
  99.9609987  26.1355006 138.4985017 100.9179987  26.1355006 138.4985017
  99.7209987  27.0625006 138.4985017  98.1359987  30.6685006 153.5675017
  99.0929987  30.6685006 153.5675017  97.8959987  31.5955006 153.5675017
 104.0929987  26.0755006 146.2825017 105.0499987  26.0755006 146.2825017
 103.8529987  27.0025006 146.2825017  99.1449987  22.2285006 142.7605017
 100.1019987  22.2285006 142.7605017  98.9049987  23.1555006 142.7605017
 102.7579987  24.4195006 148.7395017 103.7149987  24.4195006 148.7395017
 102.5179987  25.3465006 148.7395017 103.3609987  30.6455006 140.4225017
 104.3179987  30.6455006 140.4225017 103.1209987  31.5725006 140.4225017
 107.1769987  23.4735006 138.5675017 108.1339987  23.4735006 138.5675017
 106.9369987  24.4005006 138.5675017 104.8409987  30.8665006 151.6675017
 105.7979987  30.8665006 151.6675017 104.6009987  31.7935006 151.6675017
   0.1169987  25.4655006 140.3345017   1.0739987  25.4655006 140.3345017
  -0.1230013  26.3925006 140.3345017  98.4619987  30.0145006 146.2315017
  99.4189987  30.0145006 146.2315017  98.2219987  30.9415006 146.2315017
 105.4599987  32.0935006 139.4505017 106.4169987  32.0935006 139.4505017
 105.2199987  33.0205006 139.4505017  95.4559987  28.4375006 151.5015017
  96.4129987  28.4375006 151.5015017  95.2159987  29.3645006 151.5015017
 102.4709987  27.9895006 153.6915017 103.4279987  27.9895006 153.6915017
 102.2309987  28.9165006 153.6915017 107.1529987  33.3625006 151.6035017
 108.1099987  33.3625006 151.6035017 106.9129987  34.2895006 151.6035017
 100.8369987  33.4805006 143.6175017 101.7939987  33.4805006 143.6175017
 100.5969987  34.4075006 143.6175017  96.6079987  28.3275006 138.1515017
  97.5649987  28.3275006 138.1515017  96.3679987  29.2545006 138.1515017
 102.2539987  31.1495006 143.1425017 103.2109987  31.1495006 143.1425017
 102.0139987  32.0765006 143.1425017 102.7069987  35.3205006 149.5325017
 103.6639987  35.3205006 149.5325017 102.4669987  36.2475006 149.5325017
 100.9329987  36.1485006 142.6955017 101.8899987  36.1485006 142.6955017
 100.6929987  37.0755006 142.6955017 106.2749987  31.3325006 149.1915017
 107.2319987  31.3325006 149.1915017 106.0349987  32.2595006 149.1915017
  97.1119987  23.1705006 151.0495017  98.0689987  23.1705006 151.0495017
  96.8719987  24.0975006 151.0495017  96.7279987  34.9675006 149.4815017
  97.6849987  34.9675006 149.4815017  96.4879987  35.8945006 149.4815017
 102.7559987  33.4635006 136.7875017 103.7129987  33.4635006 136.7875017
 102.5159987  34.3905006 136.7875017 101.4969987  33.0115006 139.1825017
 102.4539987  33.0115006 139.1825017 101.2569987  33.9385006 139.1825017
  97.9899987  30.2655006 139.6465017  98.9469987  30.2655006 139.6465017
  97.7499987  31.1925006 139.6465017 105.8579987  22.9265006 150.0005017
 106.8149987  22.9265006 150.0005017 105.6179987  23.8535006 150.0005017
 106.3219987  22.7765006 141.0545017 107.2789987  22.7765006 141.0545017
 106.0819987  23.7035006 141.0545017 104.2839987  34.6795006 139.9545017
 105.2409987  34.6795006 139.9545017 104.0439987  35.6065006 139.9545017
 103.7869987  24.3035006 141.8935017 104.7439987  24.3035006 141.8935017
 103.5469987  25.2305006 141.8935017 104.3439987  25.2495006 151.1145017
 105.3009987  25.2495006 151.1145017 104.1039987  26.1765006 151.1145017
 104.7029987  21.3335006 142.8115017 105.6599987  21.3335006 142.8115017
 104.4629987  22.2605006 142.8115017 101.6209987  35.7145006 139.9195017
 102.5779987  35.7145006 139.9195017 101.3809987  36.6415006 139.9195017
 100.3089987  22.4235006 139.5365017 101.2659987  22.4235006 139.5365017
 100.0689987  23.3505006 139.5365017  98.5989987  32.8255006 138.5995017
  99.5559987  32.8255006 138.5995017  98.3589987  33.7525006 138.5995017
  96.9219987  25.5285006 137.7145017  97.8789987  25.5285006 137.7145017
  96.6819987  26.4555006 137.7145017  97.7239987  20.3285006 146.4175017
  98.6809987  20.3285006 146.4175017  97.4839987  21.2555006 146.4175017
  96.6709987  34.2395006 142.5475017  97.6279987  34.2395006 142.5475017
  96.4309987  35.1665006 142.5475017  95.8949987  36.8965006 153.8665017
  96.8519987  36.8965006 153.8665017  95.6549987  37.8235006 153.8665017
 100.5529987  35.8175006 155.4785017 101.5099987  35.8175006 155.4785017
 100.3129987  36.7445006 155.4785017 104.8619987  34.9385006 137.3635017
 105.8189987  34.9385006 137.3635017 104.6219987  35.8655006 137.3635017
 107.1339987  34.1975006 154.2115017 108.0909987  34.1975006 154.2115017
 106.8939987  35.1245006 154.2115017  95.8149987  30.6795006 154.8515017
  96.7719987  30.6795006 154.8515017  95.5749987  31.6065006 154.8515017
 100.3039987  31.0435006 137.0485017 101.2609987  31.0435006 137.0485017
 100.0639987  31.9705006 137.0485017 102.4989987  30.6565006 154.2545017
 103.4559987  30.6565006 154.2545017 102.2589987  31.5835006 154.2545017
 105.5619987  32.0835006 136.6575017 106.5189987  32.0835006 136.6575017
 105.3219987  33.0105006 136.6575017  96.7059987  27.8975006 154.2375017
  97.6629987  27.8975006 154.2375017  96.4659987  28.8245006 154.2375017
 101.3449987  29.0215006 139.2715017 102.3019987  29.0215006 139.2715017
 101.1049987  29.9485006 139.2715017 100.6179987  26.8545006 151.6035017
 101.5749987  26.8545006 151.6035017 100.3779987  27.7815006 151.6035017
 102.4539987  26.9295006 137.7985017 103.4109987  26.9295006 137.7985017
 102.2139987  27.8565006 137.7985017 105.6719987  29.3925006 154.9485017
 106.6289987  29.3925006 154.9485017 105.4319987  30.3195006 154.9485017
 101.0099987  24.2285006 152.6725017 101.9669987  24.2285006 152.6725017
 100.7699987  25.1555006 152.6725017 101.4069987  22.6025006 150.2045017
 102.3639987  22.6025006 150.2045017 101.1669987  23.5295006 150.2045017
 102.9779987  28.0745006 150.4515017 103.9349987  28.0745006 150.4515017
 102.7379987  29.0015006 150.4515017 107.3349987  25.8565006 155.5915017
 108.2919987  25.8565006 155.5915017 107.0949987  26.7835006 155.5915017
  99.4649987  25.4705006 154.5895017 100.4219987  25.4705006 154.5895017
  99.2249987  26.3975006 154.5895017 102.2149987  20.0505006 150.6085017
 103.1719987  20.0505006 150.6085017 101.9749987  20.9775006 150.6085017
 103.4799987  24.3785006 154.2115017 104.4369987  24.3785006 154.2115017
 103.2399987  25.3055006 154.2115017 106.0219987  23.4455006 153.2345017
 106.9789987  23.4455006 153.2345017 105.7819987  24.3725006 153.2345017
 107.7459987  22.1655006 155.2195017 108.7029987  22.1655006 155.2195017
 107.5059987  23.0925006 155.2195017  97.5659987  23.3965006 154.3185017
  98.5229987  23.3965006 154.3185017  97.3259987  24.3235006 154.3185017
 102.4119987  19.4125006 153.3025017 103.3689987  19.4125006 153.3025017
 102.1719987  20.3395006 153.3025017 102.7869987  21.0475006 155.3855017
 103.7439987  21.0475006 155.3855017 102.5469987  21.9745006 155.3855017
 102.2689987  37.9695006 138.5755017 103.2259987  37.9695006 138.5755017
 102.0289987  38.8965006 138.5755017  95.8199987  32.4865006 138.1275017
  96.7769987  32.4865006 138.1275017  95.5799987  33.4135006 138.1275017
  94.5789987  37.9325006 143.0325017  95.5359987  37.9325006 143.0325017
  94.3389987  38.8595006 143.0325017  95.4079987  36.0495006 144.8845017
  96.3649987  36.0495006 144.8845017  95.1679987  36.9765006 144.8845017
  95.4619987  29.1265006 147.3765017  96.4189987  29.1265006 147.3765017
  95.2219987  30.0535006 147.3765017  95.0739987  24.4255006 153.5225017
  96.0309987  24.4255006 153.5225017  94.8339987  25.3525006 153.5225017
  96.2789987  22.7145006 146.3825017  97.2359987  22.7145006 146.3825017
  96.0389987  23.6415006 146.3825017  94.5679987  25.7085006 147.4335017
  95.5249987  25.7085006 147.4335017  94.3279987  26.6355006 147.4335017
  94.9319987  21.9755006 141.5065017  95.8889987  21.9755006 141.5065017
  94.6919987  22.9025006 141.5065017  94.8859987  20.6535006 149.8095017
  95.8429987  20.6535006 149.8095017  94.6459987  21.5805006 149.8095017
  97.1059987  33.8395006 153.9665017  98.0629987  33.8395006 153.9665017
  96.8659987  34.7665006 153.9665017 100.0169987  34.8335006 150.2385017
 100.9739987  34.8335006 150.2385017  99.7769987  35.7605006 150.2385017
 104.3359987  36.2685006 153.1805017 105.2929987  36.2685006 153.1805017
 104.0959987  37.1955006 153.1805017 106.6879987  37.5695006 152.4075017
 107.6449987  37.5695006 152.4075017 106.4479987  38.4965006 152.4075017
  97.4419987  38.0815006 150.2495017  98.3989987  38.0815006 150.2495017
  97.2019987  39.0085006 150.2495017  99.9129987  37.6625006 149.3135017
 100.8699987  37.6625006 149.3135017  99.6729987  38.5895006 149.3135017
 104.5959987  37.5775006 148.4895017 105.5529987  37.5775006 148.4895017
 104.3559987  38.5045006 148.4895017 106.9369987  36.4385006 149.4965017
 107.8939987  36.4385006 149.4965017 106.6969987  37.3655006 149.4965017
  96.8769987  36.7285006 147.1795017  97.8339987  36.7285006 147.1795017
  96.6369987  37.6555006 147.1795017  98.9709987  35.4415006 145.8325017
  99.9279987  35.4415006 145.8325017  98.7309987  36.3685006 145.8325017
 101.5379987  35.9235006 146.7005017 102.4949987  35.9235006 146.7005017
 101.2979987  36.8505006 146.7005017 105.0119987  21.5685006 145.8315017
 105.9689987  21.5685006 145.8315017 104.7719987  22.4955006 145.8315017
  97.3939987  20.2055006 143.6855017  98.3509987  20.2055006 143.6855017
  97.1539987  21.1325006 143.6855017  96.1579987  19.9675006 139.3905017
  97.1149987  19.9675006 139.3905017  95.9179987  20.8945006 139.3905017
 101.8999987  20.1135006 143.4745017 102.8569987  20.1135006 143.4745017
 101.6599987  21.0405006 143.4745017 107.4669987  20.0705006 145.2765017
 108.4239987  20.0705006 145.2765017 107.2269987  20.9975006 145.2765017
  96.1289987  35.9245006 140.3715017  97.0859987  35.9245006 140.3715017
  95.8889987  36.8515006 140.3715017  98.0089987  21.9095006 137.9555017
  98.9659987  21.9095006 137.9555017  97.7689987  22.8365006 137.9555017
 103.0549987  22.1605006 140.3445017 104.0119987  22.1605006 140.3445017
 102.8149987  23.0875006 140.3445017 104.9159987  37.2655006 138.7435017
 105.8729987  37.2655006 138.7435017 104.6759987  38.1925006 138.7435017
  97.2919987  20.7375006 153.1505017  98.2489987  20.7375006 153.1505017
  97.0519987  21.6645006 153.1505017  99.2979987  20.1135006 154.7635017
 100.2549987  20.1135006 154.7635017  99.0579987  21.0405006 154.7635017
  98.0409987  36.9545006 137.4755017  98.9979987  36.9545006 137.4755017
  97.8009987  37.8815006 137.4755017  -0.0890013  19.4725006 154.9535017
   0.8679987  19.4725006 154.9535017  -0.3290013  20.3995006 154.9535017
  12.1989987  48.2015006 143.5905017  13.1559987  48.2015006 143.5905017
  11.9589987  49.1285006 143.5905017  11.0649987  47.4605006 147.0615017
  12.0219987  47.4605006 147.0615017  10.8249987  48.3875006 147.0615017
   3.4679987  47.0885006 148.5865017   4.4249987  47.0885006 148.5865017
   3.2279987  48.0155006 148.5865017  14.7719987  50.4005006 145.3325017
  15.7289987  50.4005006 145.3325017  14.5319987  51.3275006 145.3325017
   4.3449987  51.5595006 147.1345017   5.3019987  51.5595006 147.1345017
   4.1049987  52.4865006 147.1345017   1.0629987  45.2395006 142.5385017
   2.0199987  45.2395006 142.5385017   0.8229987  46.1665006 142.5385017
   1.6929987  47.3285006 144.7005017   2.6499987  47.3285006 144.7005017
   1.4529987  48.2555006 144.7005017  11.8829987  55.5495006 145.5685017
  12.8399987  55.5495006 145.5685017  11.6429987  56.4765006 145.5685017
   9.4479987  49.8675006 147.4975017  10.4049987  49.8675006 147.4975017
   9.2079987  50.7945006 147.4975017  18.0679987  41.5005006 148.2655017
  19.0249987  41.5005006 148.2655017  17.8279987  42.4275006 148.2655017
  12.6129987  44.3205006 147.8235017  13.5699987  44.3205006 147.8235017
  12.3729987  45.2475006 147.8235017   5.7359987  42.3995006 145.0445017
   6.6929987  42.3995006 145.0445017   5.4959987  43.3265006 145.0445017
  13.4669987  42.4965006 143.4255017  14.4239987  42.4965006 143.4255017
  13.2269987  43.4235006 143.4255017   2.5459987  44.8655006 145.6895017
   3.5029987  44.8655006 145.6895017   2.3059987  45.7925006 145.6895017
   7.5199987  46.3695006 145.0785017   8.4769987  46.3695006 145.0785017
   7.2799987  47.2965006 145.0785017  18.5019987  42.9335006 150.5255017
  19.4589987  42.9335006 150.5255017  18.2619987  43.8605006 150.5255017
   4.6289987  41.3115006 149.1115017   5.5859987  41.3115006 149.1115017
   4.3889987  42.2385006 149.1115017  11.9329987  50.7995006 142.6355017
  12.8899987  50.7995006 142.6355017  11.6929987  51.7265006 142.6355017
   7.1539987  48.9535006 149.3565017   8.1109987  48.9535006 149.3565017
   6.9139987  49.8805006 149.3565017  15.2619987  41.8315006 145.4185017
  16.2189987  41.8315006 145.4185017  15.0219987  42.7585006 145.4185017
   4.2039987  43.1465006 147.1285017   5.1609987  43.1465006 147.1285017
   3.9639987  44.0735006 147.1285017   5.5979987  50.9465006 150.1665017
   6.5549987  50.9465006 150.1665017   5.3579987  51.8735006 150.1665017
   1.7019987  50.5915006 140.9735017   2.6589987  50.5915006 140.9735017
   1.4619987  51.5185006 140.9735017  15.2939987  52.2345006 147.7025017
  16.2509987  52.2345006 147.7025017  15.0539987  53.1615006 147.7025017
  15.6099987  40.5245006 149.0995017  16.5669987  40.5245006 149.0995017
  15.3699987  41.4515006 149.0995017   8.5889987  38.6345006 146.5575017
   9.5459987  38.6345006 146.5575017   8.3489987  39.5615006 146.5575017
  13.5459987  54.0195006 144.3045017  14.5029987  54.0195006 144.3045017
  13.3059987  54.9465006 144.3045017  14.7449987  51.9425006 142.8225017
  15.7019987  51.9425006 142.8225017  14.5049987  52.8695006 142.8225017
  16.3839987  50.5275006 151.3075017  17.3409987  50.5275006 151.3075017
  16.1439987  51.4545006 151.3075017  10.8819987  47.4405006 141.0815017
  11.8389987  47.4405006 141.0815017  10.6419987  48.3675006 141.0815017
  10.9349987  45.9965006 138.3345017  11.8919987  45.9965006 138.3345017
  10.6949987  46.9235006 138.3345017  18.2589987  46.8415006 149.3605017
  19.2159987  46.8415006 149.3605017  18.0189987  47.7685006 149.3605017
  14.3059987  47.6575006 142.0135017  15.2629987  47.6575006 142.0135017
  14.0659987  48.5845006 142.0135017  14.2349987  45.8095006 151.1055017
  15.1919987  45.8095006 151.1055017  13.9949987  46.7365006 151.1055017
   5.9529987  48.3205006 143.9075017   6.9099987  48.3205006 143.9075017
   5.7129987  49.2475006 143.9075017   7.2529987  51.7075006 146.5905017
   8.2099987  51.7075006 146.5905017   7.0129987  52.6345006 146.5905017
   6.2839987  47.0535006 147.5595017   7.2409987  47.0535006 147.5595017
   6.0439987  47.9805006 147.5595017  12.6449987  52.6145006 148.2635017
  13.6019987  52.6145006 148.2635017  12.4049987  53.5415006 148.2635017
   7.2019987  51.4745006 152.2605017   8.1589987  51.4745006 152.2605017
   6.9619987  52.4015006 152.2605017  13.1669987  46.8195006 139.6725017
  14.1239987  46.8195006 139.6725017  12.9269987  47.7465006 139.6725017
   4.1399987  47.6505006 151.4555017   5.0969987  47.6505006 151.4555017
   3.8999987  48.5775006 151.4555017  10.8929987  53.5575006 143.1495017
  11.8499987  53.5575006 143.1495017  10.6529987  54.4845006 143.1495017
   5.4399987  53.5215006 153.0185017   6.3969987  53.5215006 153.0185017
   5.1999987  54.4485006 153.0185017  16.9079987  38.5615006 139.4935017
  17.8649987  38.5615006 139.4935017  16.6679987  39.4885006 139.4935017
   4.9219987  47.3505006 141.5285017   5.8789987  47.3505006 141.5285017
   4.6819987  48.2775006 141.5285017  18.0329987  52.9005006 137.9565017
  18.9899987  52.9005006 137.9565017  17.7929987  53.8275006 137.9565017
   1.1459987  49.7325006 150.3345017   2.1029987  49.7325006 150.3345017
   0.9059987  50.6595006 150.3345017   1.0279987  52.6775006 146.9055017
   1.9849987  52.6775006 146.9055017   0.7879987  53.6045006 146.9055017
  18.9889987  53.1915006 152.8805017  19.9459987  53.1915006 152.8805017
  18.7489987  54.1185006 152.8805017   9.9459987  52.7355006 151.7445017
  10.9029987  52.7355006 151.7445017   9.7059987  53.6625006 151.7445017
  10.3589987  56.4855006 141.5255017  11.3159987  56.4855006 141.5255017
  10.1189987  57.4125006 141.5255017   4.0259987  55.3475006 143.3435017
   4.9829987  55.3475006 143.3435017   3.7859987  56.2745006 143.3435017
  13.3799987  55.7065006 138.5235017  14.3369987  55.7065006 138.5235017
  13.1399987  56.6335006 138.5235017  13.1249987  55.6245006 141.3105017
  14.0819987  55.6245006 141.3105017  12.8849987  56.5515006 141.3105017
  16.1289987  44.6655006 153.3615017  17.0859987  44.6655006 153.3615017
  15.8889987  45.5925006 153.3615017   3.2599987  51.0995006 151.3695017
   4.2169987  51.0995006 151.3695017   3.0199987  52.0265006 151.3695017
   5.9369987  39.5415006 147.3105017   6.8939987  39.5415006 147.3105017
   5.6969987  40.4685006 147.3105017  10.5829987  39.2225006 150.6855017
  11.5399987  39.2225006 150.6855017  10.3429987  40.1495006 150.6855017
  13.8849987  43.0395006 151.5735017  14.8419987  43.0395006 151.5735017
  13.6449987  43.9665006 151.5735017  14.7829987  47.9355006 137.8355017
  15.7399987  47.9355006 137.8355017  14.5429987  48.8625006 137.8355017
  10.2389987  41.7765006 138.0105017  11.1959987  41.7765006 138.0105017
   9.9989987  42.7035006 138.0105017   6.0449987  44.5035006 148.5325017
   7.0019987  44.5035006 148.5325017   5.8049987  45.4305006 148.5325017
   5.9849987  44.6605006 143.4125017   6.9419987  44.6605006 143.4125017
   5.7449987  45.5875006 143.4125017  11.5199987  45.1185006 142.1685017
  12.4769987  45.1185006 142.1685017  11.2799987  46.0455006 142.1685017
  10.5989987  45.3375006 153.6415017  11.5559987  45.3375006 153.6415017
  10.3589987  46.2645006 153.6415017  12.5529987  44.6105006 145.0305017
  13.5099987  44.6105006 145.0305017  12.3129987  45.5375006 145.0305017
   3.7089987  44.7775006 150.2715017   4.6659987  44.7775006 150.2715017
   3.4689987  45.7045006 150.2715017   7.1199987  42.1235006 137.2575017
   8.0769987  42.1235006 137.2575017   6.8799987  43.0505006 137.2575017
   0.4279987  41.2025006 144.5395017   1.3849987  41.2025006 144.5395017
   0.1879987  42.1295006 144.5395017   1.8029987  42.6165006 139.6785017
   2.7599987  42.6165006 139.6785017   1.5629987  43.5435006 139.6785017
  11.7689987  46.2155006 149.6165017  12.7259987  46.2155006 149.6165017
  11.5289987  47.1425006 149.6165017   8.5659987  42.1715006 144.4305017
   9.5229987  42.1715006 144.4305017   8.3259987  43.0985006 144.4305017
   3.3929987  43.7245006 143.2835017   4.3499987  43.7245006 143.2835017
   3.1529987  44.6515006 143.2835017   7.0159987  43.8015006 140.9495017
   7.9729987  43.8015006 140.9495017   6.7759987  44.7285006 140.9495017
  12.9709987  41.4095006 147.6825017  13.9279987  41.4095006 147.6825017
  12.7309987  42.3365006 147.6825017   5.6889987  44.9915006 138.4995017
   6.6459987  44.9915006 138.4995017   5.4489987  45.9185006 138.4995017
  16.1869987  57.0595006 153.9965017  17.1439987  57.0595006 153.9965017
  15.9469987  57.9865006 153.9965017   3.8569987  49.5065006 153.5805017
   4.8139987  49.5065006 153.5805017   3.6169987  50.4335006 153.5805017
   9.8569987  44.9385006 146.3275017  10.8139987  44.9385006 146.3275017
   9.6169987  45.8655006 146.3275017   4.8559987  41.0905006 142.7435017
   5.8129987  41.0905006 142.7435017   4.6159987  42.0175006 142.7435017
   8.4939987  43.2775006 148.7395017   9.4509987  43.2775006 148.7395017
   8.2539987  44.2045006 148.7395017   9.0789987  49.5005006 140.4265017
  10.0359987  49.5005006 140.4265017   8.8389987  50.4275006 140.4265017
  16.2429987  48.6785006 149.2375017  17.1999987  48.6785006 149.2375017
  16.0029987  49.6055006 149.2375017  12.9379987  42.3305006 138.5645017
  13.8949987  42.3305006 138.5645017  12.6979987  43.2575006 138.5645017
  10.5669987  49.7415006 151.6735017  11.5239987  49.7415006 151.6735017
  10.3269987  50.6685006 151.6735017  13.6459987  44.2005006 140.2815017
  14.6029987  44.2005006 140.2815017  13.4059987  45.1275006 140.2815017
   4.1839987  48.8765006 146.2315017   5.1409987  48.8765006 146.2315017
   3.9439987  49.8035006 146.2315017  11.1779987  50.9515006 139.4555017
  12.1349987  50.9515006 139.4555017  10.9379987  51.8785006 139.4555017
   1.1889987  47.2915006 151.5115017   2.1459987  47.2915006 151.5115017
   0.9489987  48.2185006 151.5115017   8.1899987  46.8465006 153.6945017
   9.1469987  46.8465006 153.6945017   7.9499987  47.7735006 153.6945017
  12.8599987  52.1775006 151.6165017  13.8169987  52.1775006 151.6165017
  12.6199987  53.1045006 151.6165017  18.5669987  44.3765006 140.0395017
  19.5239987  44.3765006 140.0395017  18.3269987  45.3035006 140.0395017
  18.5279987  50.2305006 152.8345017  19.4849987  50.2305006 152.8345017
  18.2879987  51.1575006 152.8345017  16.8669987  53.1865006 140.4285017
  17.8239987  53.1865006 140.4285017  16.6269987  54.1135006 140.4285017
  14.0339987  48.0135006 147.5115017  14.9909987  48.0135006 147.5115017
  13.7939987  48.9405006 147.5115017   6.5679987  52.3305006 143.6175017
   7.5249987  52.3305006 143.6175017   6.3279987  53.2575006 143.6175017
   2.3109987  47.1445006 138.2435017   3.2679987  47.1445006 138.2435017
   2.0709987  48.0715006 138.2435017   7.9829987  50.0015006 143.1415017
   8.9399987  50.0015006 143.1415017   7.7429987  50.9285006 143.1415017
   8.4299987  54.1815006 149.5345017   9.3869987  54.1815006 149.5345017
   8.1899987  55.1085006 149.5345017   6.6609987  55.0025006 142.6945017
   7.6179987  55.0025006 142.6945017   6.4209987  55.9295006 142.6945017
  11.9769987  50.2095006 149.1755017  12.9339987  50.2095006 149.1755017
  11.7369987  51.1365006 149.1755017  14.2339987  51.2365006 138.2625017
  15.1909987  51.2365006 138.2625017  13.9939987  52.1635006 138.2625017
  14.7449987  54.7795006 151.6685017  15.7019987  54.7795006 151.6685017
  14.5049987  55.7065006 151.6685017  18.7579987  55.6295006 138.5375017
  19.7149987  55.6295006 138.5375017  18.5179987  56.5565006 138.5375017
   2.8099987  42.0235006 151.0605017   3.7669987  42.0235006 151.0605017
   2.5699987  42.9505006 151.0605017  15.0749987  49.8895006 140.5045017
  16.0319987  49.8895006 140.5045017  14.8349987  50.8165006 140.5045017
   2.4469987  53.8355006 149.4615017   3.4039987  53.8355006 149.4615017
   2.2069987  54.7625006 149.4615017   8.4949987  52.3105006 136.7905017
   9.4519987  52.3105006 136.7905017   8.2549987  53.2375006 136.7905017
   7.2279987  51.8695006 139.1805017   8.1849987  51.8695006 139.1805017
   6.9879987  52.7965006 139.1805017   3.6909987  49.0965006 139.6585017
   4.6479987  49.0965006 139.6585017   3.4509987  50.0235006 139.6585017
  11.5529987  41.7955006 149.9895017  12.5099987  41.7955006 149.9895017
  11.3129987  42.7225006 149.9895017  12.2969987  41.4055006 141.0835017
  13.2539987  41.4055006 141.0835017  12.0569987  42.3325006 141.0835017
   9.9949987  53.5395006 139.9515017  10.9519987  53.5395006 139.9515017
   9.7549987  54.4665006 139.9515017   9.5269987  43.1375006 141.8975017
  10.4839987  43.1375006 141.8975017   9.2869987  44.0645006 141.8975017
  10.0819987  44.1435006 151.0945017  11.0389987  44.1435006 151.0945017
   9.8419987  45.0705006 151.0945017  10.3949987  40.1895006 142.8105017
  11.3519987  40.1895006 142.8105017  10.1549987  41.1165006 142.8105017
   7.3679987  54.5715006 139.9265017   8.3249987  54.5715006 139.9265017
   7.1279987  55.4985006 139.9265017   6.0319987  41.2825006 139.5355017
   6.9889987  41.2825006 139.5355017   5.7919987  42.2095006 139.5355017
  16.2759987  42.0205006 151.9425017  17.2329987  42.0205006 151.9425017
  16.0359987  42.9475006 151.9425017  14.8759987  45.8045006 145.9735017
  15.8329987  45.8045006 145.9735017  14.6359987  46.7315006 145.9735017
   4.3279987  51.6945006 138.5885017   5.2849987  51.6945006 138.5885017
   4.0879987  52.6215006 138.5885017   2.6019987  44.3855006 137.7895017
   3.5589987  44.3855006 137.7895017   2.3619987  45.3125006 137.7895017
  15.9419987  55.0525006 147.6355017  16.8989987  55.0525006 147.6355017
  15.7019987  55.9795006 147.6355017   3.4639987  39.1825006 146.4045017
   4.4209987  39.1825006 146.4045017   3.2239987  40.1095006 146.4045017
   2.3869987  53.1085006 142.5595017   3.3439987  53.1085006 142.5595017
   2.1469987  54.0355006 142.5595017   1.7169987  55.6975006 153.7995017
   2.6739987  55.6975006 153.7995017   1.4769987  56.6245006 153.7995017
   6.2699987  54.6605006 155.4795017   7.2269987  54.6605006 155.4795017
   6.0299987  55.5875006 155.4795017  10.5799987  53.8005006 137.3695017
  11.5369987  53.8005006 137.3695017  10.3399987  54.7275006 137.3695017
  12.8019987  53.0505006 154.2135017  13.7589987  53.0505006 154.2135017
  12.5619987  53.9775006 154.2135017  14.7699987  53.8895006 137.2615017
  15.7269987  53.8895006 137.2615017  14.5299987  54.8165006 137.2615017
   1.5089987  49.5385006 154.8535017   2.4659987  49.5385006 154.8535017
   1.2689987  50.4655006 154.8535017   6.0499987  49.9045006 137.0595017
   7.0069987  49.9045006 137.0595017   5.8099987  50.8315006 137.0595017
   8.2309987  49.5145006 154.2475017   9.1879987  49.5145006 154.2475017
   7.9909987  50.4415006 154.2475017  11.2099987  50.9395006 136.6555017
  12.1669987  50.9395006 136.6555017  10.9699987  51.8665006 136.6555017
  13.9349987  49.3845006 151.6355017  14.8919987  49.3845006 151.6355017
  13.6949987  50.3115006 151.6355017   2.3679987  46.7365006 154.2385017
   3.3249987  46.7365006 154.2385017   2.1279987  47.6635006 154.2385017
   7.0649987  47.8765006 139.2725017   8.0219987  47.8765006 139.2725017
   6.8249987  48.8035006 139.2725017   6.3379987  45.7105006 151.6045017
   7.2949987  45.7105006 151.6045017   6.0979987  46.6375006 151.6045017
   8.1829987  45.7815006 137.7975017   9.1399987  45.7815006 137.7975017
   7.9429987  46.7085006 137.7975017  11.3939987  48.2555006 154.9185017
  12.3509987  48.2555006 154.9185017  11.1539987  49.1825006 154.9185017
  17.5739987  48.6425006 137.2875017  18.5309987  48.6425006 137.2875017
  17.3339987  49.5695006 137.2875017   6.7329987  43.0845006 152.6725017
   7.6899987  43.0845006 152.6725017   6.4929987  44.0115006 152.6725017
   7.1309987  41.4625006 150.2045017   8.0879987  41.4625006 150.2045017
   6.8909987  42.3895006 150.2045017   8.6809987  46.9305006 150.4515017
   9.6379987  46.9305006 150.4515017   8.4409987  47.8575006 150.4515017
  13.0799987  44.7095006 155.4275017  14.0369987  44.7095006 155.4275017
  12.8399987  45.6365006 155.4275017  14.4069987  47.4895006 153.5615017
  15.3639987  47.4895006 153.5615017  14.1669987  48.4165006 153.5615017
   5.1809987  44.3335006 154.5815017   6.1379987  44.3335006 154.5815017
   4.9409987  45.2605006 154.5815017   7.9169987  38.9075006 150.6125017
   8.8739987  38.9075006 150.6125017   7.6769987  39.8345006 150.6125017
   9.1959987  43.2315006 154.2115017  10.1529987  43.2315006 154.2115017
   8.9559987  44.1585006 154.2115017  11.9139987  42.3655006 153.2865017
  12.8709987  42.3655006 153.2865017  11.6739987  43.2925006 153.2865017
  13.5099987  40.9955006 155.2265017  14.4669987  40.9955006 155.2265017
  13.2699987  41.9225006 155.2265017   3.3289987  42.2585006 154.3285017
   4.2859987  42.2585006 154.3285017   3.0889987  43.1855006 154.3285017
   8.1359987  38.2685006 153.3025017   9.0929987  38.2685006 153.3025017
   7.8959987  39.1955006 153.3025017   8.5029987  39.9015006 155.3915017
   9.4599987  39.9015006 155.3915017   8.2629987  40.8285006 155.3915017
   7.9859987  56.8205006 138.5745017   8.9429987  56.8205006 138.5745017
   7.7459987  57.7475006 138.5745017   1.5959987  51.3115006 138.1755017
   2.5529987  51.3115006 138.1755017   1.3559987  52.2385006 138.1755017
 108.0749987  56.8375006 143.0615017 109.0319987  56.8375006 143.0615017
 107.8349987  57.7645006 143.0615017   1.5019987  55.0665006 144.9955017
   2.4589987  55.0665006 144.9955017   1.2619987  55.9935006 144.9955017
  18.6619987  55.7025006 147.8355017  19.6189987  55.7025006 147.8355017
  18.4219987  56.6295006 147.8355017  18.2379987  55.3005006 150.7785017
  19.1949987  55.3005006 150.7785017  17.9979987  56.2275006 150.7785017
  16.6829987  51.0315006 155.4345017  17.6399987  51.0315006 155.4345017
  16.4429987  51.9585006 155.4345017  17.9959987  49.3485006 140.8935017
  18.9529987  49.3485006 140.8935017  17.7559987  50.2755006 140.8935017
  18.3619987  47.4215006 142.7585017  19.3189987  47.4215006 142.7585017
  18.1219987  48.3485006 142.7585017  18.1199987  50.1305006 147.7395017
  19.0769987  50.1305006 147.7395017  17.8799987  51.0575006 147.7395017
  16.6659987  53.0265006 150.0215017  17.6229987  53.0265006 150.0215017
  16.4259987  53.9535006 150.0215017  18.6779987  47.2335006 139.1835017
  19.6349987  47.2335006 139.1835017  18.4379987  48.1605006 139.1835017
  17.1199987  44.4075006 137.9095017  18.0769987  44.4075006 137.9095017
  16.8799987  45.3345006 137.9095017  16.1759987  45.9005006 143.3215017
  17.1329987  45.9005006 143.3215017  15.9359987  46.8275006 143.3215017
   1.1999987  47.9945006 147.3635017   2.1569987  47.9945006 147.3635017
   0.9599987  48.9215006 147.3635017  17.0289987  47.8675006 153.0005017
  17.9859987  47.8675006 153.0005017  16.7889987  48.7945006 153.0005017
  18.5369987  45.7605006 153.6655017  19.4939987  45.7605006 153.6655017
  18.2969987  46.6875006 153.6655017  16.2059987  41.9735006 136.9665017
  17.1629987  41.9735006 136.9665017  15.9659987  42.9005006 136.9665017
  15.8439987  43.4885006 141.7885017  16.8009987  43.4885006 141.7885017
  15.6039987  44.4155006 141.7885017  16.4799987  44.0295006 147.2245017
  17.4369987  44.0295006 147.2245017  16.2399987  44.9565006 147.2245017
  16.5499987  44.7545006 150.0145017  17.5069987  44.7545006 150.0145017
  16.3099987  45.6815006 150.0145017   0.8889987  43.2455006 153.4535017
   1.8459987  43.2455006 153.4535017   0.6489987  44.1725006 153.4535017
  18.8129987  38.7965006 155.3615017  19.7699987  38.7965006 155.3615017
  18.5729987  39.7235006 155.3615017  16.5099987  40.7615006 141.8375017
  17.4669987  40.7615006 141.8375017  16.2699987  41.6885006 141.8375017
   2.0859987  41.6015006 146.3735017   3.0429987  41.6015006 146.3735017
   1.8459987  42.5285006 146.3735017   0.9079987  44.5225006 147.5785017
   1.8649987  44.5225006 147.5785017   0.6679987  45.4495006 147.5785017
  18.3429987  40.9025006 153.7135017  19.2999987  40.9025006 153.7135017
  18.1029987  41.8295006 153.7135017  18.4059987  40.7335006 138.5955017
  19.3629987  40.7335006 138.5955017  18.1659987  41.6605006 138.5955017
   0.8859987  40.7895006 141.5095017   1.8429987  40.7895006 141.5095017
   0.6459987  41.7165006 141.5095017  15.3869987  55.7825006 143.4495017
  16.3439987  55.7825006 143.4495017  15.1469987  56.7095006 143.4495017
 108.3319987  39.4845006 149.8345017 109.2889987  39.4845006 149.8345017
 108.0919987  40.4115006 149.8345017   2.8149987  52.7205006 153.9835017
   3.7719987  52.7205006 153.9835017   2.5749987  53.6475006 153.9835017
   5.7359987  53.6895006 150.2425017   6.6929987  53.6895006 150.2425017
   5.4959987  54.6165006 150.2425017  10.0569987  55.1155006 153.1565017
  11.0139987  55.1155006 153.1565017   9.8169987  56.0425006 153.1565017
  12.3549987  56.3855006 152.4455017  13.3119987  56.3855006 152.4455017
  12.1149987  57.3125006 152.4455017  17.3519987  38.9995006 151.5525017
  18.3089987  38.9995006 151.5525017  17.1119987  39.9265006 151.5525017
   3.1229987  56.9115006 150.2515017   4.0799987  56.9115006 150.2515017
   2.8829987  57.8385006 150.2515017   5.6359987  56.5195006 149.3075017
   6.5929987  56.5195006 149.3075017   5.3959987  57.4465006 149.3075017
  10.3349987  56.4275006 148.4805017  11.2919987  56.4275006 148.4805017
  10.0949987  57.3545006 148.4805017  12.6419987  55.2585006 149.4785017
  13.5989987  55.2585006 149.4785017  12.4019987  56.1855006 149.4785017
  15.2219987  56.8245006 149.7365017  16.1789987  56.8245006 149.7365017
  14.9819987  57.7515006 149.7365017   2.5939987  55.5745006 147.2435017
   3.5509987  55.5745006 147.2435017   2.3539987  56.5015006 147.2435017
   4.6619987  54.3045006 145.8565017   5.6189987  54.3045006 145.8565017
   4.4219987  55.2315006 145.8565017   7.2679987  54.7745006 146.7035017
   8.2249987  54.7745006 146.7035017   7.0279987  55.7015006 146.7035017
  10.7529987  40.4335006 145.8445017  11.7099987  40.4335006 145.8445017
  10.5129987  41.3605006 145.8445017  15.8879987  38.4905006 145.9315017
  16.8449987  38.4905006 145.9315017  15.6479987  39.4175006 145.9315017
  17.5729987  39.7005006 144.2355017  18.5299987  39.7005006 144.2355017
  17.3329987  40.6275006 144.2355017   3.1259987  39.0535006 143.6565017
   4.0829987  39.0535006 143.6565017   2.8859987  39.9805006 143.6565017
   1.9499987  38.8305006 139.4725017   2.9069987  38.8305006 139.4725017
   1.7099987  39.7575006 139.4725017   7.6149987  38.9805006 143.4765017
   8.5719987  38.9805006 143.4765017   7.3749987  39.9075006 143.4765017
  13.2819987  39.0045006 145.1155017  14.2389987  39.0045006 145.1155017
  13.0419987  39.9315006 145.1155017  14.5849987  39.0375006 140.7485017
  15.5419987  39.0375006 140.7485017  14.3449987  39.9645006 140.7485017
   1.9519987  54.7995006 140.3605017   2.9089987  54.7995006 140.3605017
   1.7119987  55.7265006 140.3605017   3.7459987  40.7625006 137.9505017
   4.7029987  40.7625006 137.9505017   3.5059987  41.6895006 137.9505017
   8.7699987  41.0215006 140.3445017   9.7269987  41.0215006 140.3445017
   8.5299987  41.9485006 140.3445017  10.6589987  56.1215006 138.7485017
  11.6159987  56.1215006 138.7485017  10.4189987  57.0485006 138.7485017
  17.3959987  55.5865006 141.4835017  18.3529987  55.5865006 141.4835017
  17.1559987  56.5135006 141.4835017   2.9949987  39.5945006 153.1445017
   3.9519987  39.5945006 153.1445017   2.7549987  40.5215006 153.1445017
   5.0119987  38.9745006 154.7615017   5.9689987  38.9745006 154.7615017
   4.7719987  39.9015006 154.7615017   3.7569987  55.7995006 137.4645017
   4.7139987  55.7995006 137.4645017   3.5169987  56.7265006 137.4645017
  13.4179987  38.2765006 154.9295017  14.3749987  38.2765006 154.9295017
  13.1779987  39.2035006 154.9295017  16.6249987  54.3125006 153.5805017
  17.5819987  54.3125006 153.5805017  16.3849987  55.2395006 153.5805017
  31.0779987  48.1745006 143.5725017  32.0349987  48.1745006 143.5725017
  30.8379987  49.1015006 143.5725017  29.9629987  47.4415006 147.0415017
  30.9199987  47.4415006 147.0415017  29.7229987  48.3685006 147.0415017
  22.2839987  47.1145006 148.6095017  23.2409987  47.1145006 148.6095017
  22.0439987  48.0415006 148.6095017  33.6269987  50.3885006 145.3275017
  34.5839987  50.3885006 145.3275017  33.3869987  51.3155006 145.3275017
  23.2119987  51.5645006 147.1315017  24.1689987  51.5645006 147.1315017
  22.9719987  52.4915006 147.1315017  19.8579987  45.1455006 142.5925017
  20.8149987  45.1455006 142.5925017  19.6179987  46.0725006 142.5925017
  20.5509987  47.3575006 144.7235017  21.5079987  47.3575006 144.7235017
  20.3109987  48.2845006 144.7235017  30.7239987  55.5435006 145.5535017
  31.6809987  55.5435006 145.5535017  30.4839987  56.4705006 145.5535017
  28.3039987  49.8655006 147.4985017  29.2609987  49.8655006 147.4985017
  28.0639987  50.7925006 147.4985017  36.9229987  41.5015006 148.2655017
  37.8799987  41.5015006 148.2655017  36.6829987  42.4285006 148.2655017
  31.5109987  44.3285006 147.8225017  32.4679987  44.3285006 147.8225017
  31.2709987  45.2555006 147.8225017  24.5929987  42.4065006 145.0575017
  25.5499987  42.4065006 145.0575017  24.3529987  43.3335006 145.0575017
  32.3299987  42.5975006 143.4765017  33.2869987  42.5975006 143.4765017
  32.0899987  43.5245006 143.4765017  21.2139987  44.8145006 145.7955017
  22.1709987  44.8145006 145.7955017  20.9739987  45.7415006 145.7955017
  26.3749987  46.3735006 145.0775017  27.3319987  46.3735006 145.0775017
  26.1349987  47.3005006 145.0775017  37.3539987  42.9295006 150.5235017
  38.3109987  42.9295006 150.5235017  37.1139987  43.8565006 150.5235017
  23.4789987  41.3055006 149.1015017  24.4359987  41.3055006 149.1015017
  23.2389987  42.2325006 149.1015017  30.7889987  50.7845006 142.6395017
  31.7459987  50.7845006 142.6395017  30.5489987  51.7115006 142.6395017
  26.0089987  48.9545006 149.3565017  26.9659987  48.9545006 149.3565017
  25.7689987  49.8815006 149.3565017  34.1059987  41.8535006 145.4205017
  35.0629987  41.8535006 145.4205017  33.8659987  42.7805006 145.4205017
  23.0389987  43.1745006 147.1095017  23.9959987  43.1745006 147.1095017
  22.7989987  44.1015006 147.1095017  24.4469987  50.9435006 150.1655017
  25.4039987  50.9435006 150.1655017  24.2069987  51.8705006 150.1655017
  20.5539987  50.5735006 140.9835017  21.5109987  50.5735006 140.9835017
  20.3139987  51.5005006 140.9835017  34.1499987  52.2335006 147.7015017
  35.1069987  52.2335006 147.7015017  33.9099987  53.1605006 147.7015017
  34.4639987  40.5235006 149.0995017  35.4209987  40.5235006 149.0995017
  34.2239987  41.4505006 149.0995017  27.4469987  38.6355006 146.5595017
  28.4039987  38.6355006 146.5595017  27.2069987  39.5625006 146.5595017
  32.4029987  54.0195006 144.3045017  33.3599987  54.0195006 144.3045017
  32.1629987  54.9465006 144.3045017  33.6019987  51.9465006 142.8235017
  34.5589987  51.9465006 142.8235017  33.3619987  52.8735006 142.8235017
  35.2429987  50.5275006 151.3085017  36.1999987  50.5275006 151.3085017
  35.0029987  51.4545006 151.3085017  29.7369987  47.4465006 141.0775017
  30.6939987  47.4465006 141.0775017  29.4969987  48.3735006 141.0775017
  29.7879987  45.9965006 138.3345017  30.7449987  45.9965006 138.3345017
  29.5479987  46.9235006 138.3345017  37.1159987  46.8395006 149.3595017
  38.0729987  46.8395006 149.3595017  36.8759987  47.7665006 149.3595017
  33.1419987  47.6275006 142.0055017  34.0989987  47.6275006 142.0055017
  32.9019987  48.5545006 142.0055017  33.0899987  45.8095006 151.1055017
  34.0469987  45.8095006 151.1055017  32.8499987  46.7365006 151.1055017
  24.7859987  48.3105006 143.9055017  25.7429987  48.3105006 143.9055017
  24.5459987  49.2375006 143.9055017  26.1129987  51.7065006 146.5885017
  27.0699987  51.7065006 146.5885017  25.8729987  52.6335006 146.5885017
  25.1239987  47.0495006 147.5585017  26.0809987  47.0495006 147.5585017
  24.8839987  47.9765006 147.5585017  31.5089987  52.6115006 148.2665017
  32.4659987  52.6115006 148.2665017  31.2689987  53.5385006 148.2665017
  26.0619987  51.4725006 152.2625017  27.0189987  51.4725006 152.2625017
  25.8219987  52.3995006 152.2625017  32.0249987  46.8075006 139.6935017
  32.9819987  46.8075006 139.6935017  31.7849987  47.7345006 139.6935017
  22.9959987  47.6405006 151.4385017  23.9529987  47.6405006 151.4385017
  22.7559987  48.5675006 151.4385017  29.7399987  53.5735006 143.1345017
  30.6969987  53.5735006 143.1345017  29.4999987  54.5005006 143.1345017
  24.3029987  53.5235006 153.0165017  25.2599987  53.5235006 153.0165017
  24.0629987  54.4505006 153.0165017  35.7659987  38.5615006 139.4905017
  36.7229987  38.5615006 139.4905017  35.5259987  39.4885006 139.4905017
  23.7569987  47.3385006 141.5265017  24.7139987  47.3385006 141.5265017
  23.5169987  48.2655006 141.5265017  36.8899987  52.8985006 137.9565017
  37.8469987  52.8985006 137.9565017  36.6499987  53.8255006 137.9565017
  19.8499987  49.7525006 150.3895017  20.8069987  49.7525006 150.3895017
  19.6099987  50.6795006 150.3895017  19.6079987  52.4915006 147.1935017
  20.5649987  52.4915006 147.1935017  19.3679987  53.4185006 147.1935017
  37.8449987  53.1915006 152.8785017  38.8019987  53.1915006 152.8785017
  37.6049987  54.1185006 152.8785017  28.8019987  52.7355006 151.7445017
  29.7589987  52.7355006 151.7445017  28.5619987  53.6625006 151.7445017
  29.2389987  56.5105006 141.5265017  30.1959987  56.5105006 141.5265017
  28.9989987  57.4375006 141.5265017  22.9019987  55.3365006 143.3535017
  23.8589987  55.3365006 143.3535017  22.6619987  56.2635006 143.3535017
  32.2169987  55.6995006 138.5265017  33.1739987  55.6995006 138.5265017
  31.9769987  56.6265006 138.5265017  31.9779987  55.6165006 141.3025017
  32.9349987  55.6165006 141.3025017  31.7379987  56.5435006 141.3025017
  34.9799987  44.6655006 153.3665017  35.9369987  44.6655006 153.3665017
  34.7399987  45.5925006 153.3665017  22.1239987  51.0705006 151.3555017
  23.0809987  51.0705006 151.3555017  21.8839987  51.9975006 151.3555017
  24.7939987  39.5315006 147.3205017  25.7509987  39.5315006 147.3205017
  24.5539987  40.4585006 147.3205017  29.4389987  39.2225006 150.6855017
  30.3959987  39.2225006 150.6855017  29.1989987  40.1495006 150.6855017
  32.7399987  43.0395006 151.5695017  33.6969987  43.0395006 151.5695017
  32.4999987  43.9665006 151.5695017  33.6379987  47.9345006 137.8345017
  34.5949987  47.9345006 137.8345017  33.3979987  48.8615006 137.8345017
  29.0949987  41.7775006 138.0105017  30.0519987  41.7775006 138.0105017
  28.8549987  42.7045006 138.0105017  24.8949987  44.5015006 148.5295017
  25.8519987  44.5015006 148.5295017  24.6549987  45.4285006 148.5295017
  24.8609987  44.6615006 143.4115017  25.8179987  44.6615006 143.4115017
  24.6209987  45.5885006 143.4115017  30.4369987  45.1655006 142.2045017
  31.3939987  45.1655006 142.2045017  30.1969987  46.0925006 142.2045017
  29.4549987  45.3375006 153.6415017  30.4119987  45.3375006 153.6415017
  29.2149987  46.2645006 153.6415017  31.0609987  44.3905006 145.1645017
  32.0179987  44.3905006 145.1645017  30.8209987  45.3175006 145.1645017
  22.5429987  44.7855006 150.2615017  23.4999987  44.7855006 150.2615017
  22.3029987  45.7125006 150.2615017  25.9699987  42.1255006 137.2615017
  26.9269987  42.1255006 137.2615017  25.7299987  43.0525006 137.2615017
  19.1819987  41.8935006 144.2025017  20.1389987  41.8935006 144.2025017
  18.9419987  42.8205006 144.2025017  20.4449987  42.5995006 139.5485017
  21.4019987  42.5995006 139.5485017  20.2049987  43.5265006 139.5485017
  30.6219987  46.2165006 149.6215017  31.5789987  46.2165006 149.6215017
  30.3819987  47.1435006 149.6215017  27.4229987  42.1685006 144.4285017
  28.3799987  42.1685006 144.4285017  27.1829987  43.0955006 144.4285017
  22.2379987  43.7465006 143.2945017  23.1949987  43.7465006 143.2945017
  21.9979987  44.6735006 143.2945017  25.8819987  43.7985006 140.9485017
  26.8389987  43.7985006 140.9485017  25.6419987  44.7255006 140.9485017
  31.8299987  41.4245006 147.6695017  32.7869987  41.4245006 147.6695017
  31.5899987  42.3515006 147.6695017  24.5289987  45.0335006 138.4855017
  25.4859987  45.0335006 138.4855017  24.2889987  45.9605006 138.4855017
  35.0429987  57.0595006 153.9965017  35.9999987  57.0595006 153.9965017
  34.8029987  57.9865006 153.9965017  22.7119987  49.5235006 153.5675017
  23.6689987  49.5235006 153.5675017  22.4719987  50.4505006 153.5675017
  28.7039987  44.9475006 146.3335017  29.6609987  44.9475006 146.3335017
  28.4639987  45.8745006 146.3335017  23.7209987  41.0845006 142.7605017
  24.6779987  41.0845006 142.7605017  23.4809987  42.0115006 142.7605017
  27.3569987  43.2795006 148.7325017  28.3139987  43.2795006 148.7325017
  27.1169987  44.2065006 148.7325017  27.9229987  49.5335006 140.4285017
  28.8799987  49.5335006 140.4285017  27.6829987  50.4605006 140.4285017
  35.0979987  48.6785006 149.2375017  36.0549987  48.6785006 149.2375017
  34.8579987  49.6055006 149.2375017  31.7929987  42.3285006 138.5685017
  32.7499987  42.3285006 138.5685017  31.5529987  43.2555006 138.5685017
  29.4229987  49.7415006 151.6755017  30.3799987  49.7415006 151.6755017
  29.1829987  50.6685006 151.6755017  32.4949987  44.2285006 140.3305017
  33.4519987  44.2285006 140.3305017  32.2549987  45.1555006 140.3305017
  23.0389987  48.8715006 146.2325017  23.9959987  48.8715006 146.2325017
  22.7989987  49.7985006 146.2325017  30.0379987  50.9305006 139.4515017
  30.9949987  50.9305006 139.4515017  29.7979987  51.8575006 139.4515017
  20.0319987  47.2935006 151.5015017  20.9889987  47.2935006 151.5015017
  19.7919987  48.2205006 151.5015017  27.0449987  46.8455006 153.6945017
  28.0019987  46.8455006 153.6945017  26.8049987  47.7725006 153.6945017
  31.7159987  52.1775006 151.6165017  32.6729987  52.1775006 151.6165017
  31.4759987  53.1045006 151.6165017  37.4229987  44.3785006 140.0475017
  38.3799987  44.3785006 140.0475017  37.1829987  45.3055006 140.0475017
  37.3879987  50.2105006 152.8495017  38.3449987  50.2105006 152.8495017
  37.1479987  51.1375006 152.8495017  35.7229987  53.1865006 140.4285017
  36.6799987  53.1865006 140.4285017  35.4829987  54.1135006 140.4285017
  32.8869987  48.0165006 147.4785017  33.8439987  48.0165006 147.4785017
  32.6469987  48.9435006 147.4785017  25.4209987  52.3345006 143.5875017
  26.3779987  52.3345006 143.5875017  25.1809987  53.2615006 143.5875017
  21.1919987  47.2025006 138.1325017  22.1489987  47.2025006 138.1325017
  20.9519987  48.1295006 138.1325017  26.8349987  50.0145006 143.1255017
  27.7919987  50.0145006 143.1255017  26.5949987  50.9415006 143.1255017
  27.2919987  54.1785006 149.5325017  28.2489987  54.1785006 149.5325017
  27.0519987  55.1055006 149.5325017  25.5449987  55.0225006 142.6405017
  26.5019987  55.0225006 142.6405017  25.3049987  55.9495006 142.6405017
  30.8329987  50.2095006 149.1755017  31.7899987  50.2095006 149.1755017
  30.5929987  51.1365006 149.1755017  33.0839987  51.2415006 138.2665017
  34.0409987  51.2415006 138.2665017  32.8439987  52.1685006 138.2665017
  33.6009987  54.7795006 151.6685017  34.5579987  54.7795006 151.6685017
  33.3609987  55.7065006 151.6685017  37.6109987  55.6275006 138.5385017
  38.5679987  55.6275006 138.5385017  37.3709987  56.5545006 138.5385017
  21.6819987  42.0295006 151.0505017  22.6389987  42.0295006 151.0505017
  21.4419987  42.9565006 151.0505017  33.9399987  49.8735006 140.5075017
  34.8969987  49.8735006 140.5075017  33.6999987  50.8005006 140.5075017
  21.3059987  53.8235006 149.4805017  22.2629987  53.8235006 149.4805017
  21.0659987  54.7505006 149.4805017  27.3419987  52.3145006 136.7995017
  28.2989987  52.3145006 136.7995017  27.1019987  53.2415006 136.7995017
  26.1279987  51.8685006 139.1775017  27.0849987  51.8685006 139.1775017
  25.8879987  52.7955006 139.1775017  22.5659987  49.1265006 139.6135017
  23.5229987  49.1265006 139.6135017  22.3259987  50.0535006 139.6135017
  30.4109987  41.7945006 149.9885017  31.3679987  41.7945006 149.9885017
  30.1709987  42.7215006 149.9885017  31.1449987  41.4255006 141.0925017
  32.1019987  41.4255006 141.0925017  30.9049987  42.3525006 141.0925017
  29.1539987  53.3605006 139.8865017  30.1109987  53.3605006 139.8865017
  28.9139987  54.2875006 139.8865017  28.3909987  43.1415006 141.9005017
  29.3479987  43.1415006 141.9005017  28.1509987  44.0685006 141.9005017
  28.9389987  44.1435006 151.0945017  29.8959987  44.1435006 151.0945017
  28.6989987  45.0705006 151.0945017  29.2459987  40.1835006 142.8085017
  30.2029987  40.1835006 142.8085017  29.0059987  41.1105006 142.8085017
  25.4249987  54.7585006 139.7765017  26.3819987  54.7585006 139.7765017
  25.1849987  55.6855006 139.7765017  24.8839987  41.2805006 139.5355017
  25.8409987  41.2805006 139.5355017  24.6439987  42.2075006 139.5355017
  35.1329987  42.0195006 151.9435017  36.0899987  42.0195006 151.9435017
  34.8929987  42.9465006 151.9435017  33.7459987  45.7875006 145.9715017
  34.7029987  45.7875006 145.9715017  33.5059987  46.7145006 145.9715017
  23.1959987  51.6655006 138.6095017  24.1529987  51.6655006 138.6095017
  22.9559987  52.5925006 138.6095017  21.5099987  44.3935006 137.6865017
  22.4669987  44.3935006 137.6865017  21.2699987  45.3205006 137.6865017
  34.7979987  55.0525006 147.6355017  35.7549987  55.0525006 147.6355017
  34.5579987  55.9795006 147.6355017  22.2999987  39.1915006 146.4165017
  23.2569987  39.1915006 146.4165017  22.0599987  40.1185006 146.4165017
  21.2479987  53.0955006 142.5495017  22.2049987  53.0955006 142.5495017
  21.0079987  54.0225006 142.5495017  20.4709987  55.7525006 153.8665017
  21.4279987  55.7525006 153.8665017  20.2309987  56.6795006 153.8665017
  25.1269987  54.6695006 155.4815017  26.0839987  54.6695006 155.4815017
  24.8869987  55.5965006 155.4815017  29.4129987  53.8095006 137.3685017
  30.3699987  53.8095006 137.3685017  29.1729987  54.7365006 137.3685017
  31.6579987  53.0505006 154.2135017  32.6149987  53.0505006 154.2135017
  31.4179987  53.9775006 154.2135017  33.6229987  53.8925006 137.2645017
  34.5799987  53.8925006 137.2645017  33.3829987  54.8195006 137.2645017
  20.3909987  49.5355006 154.8515017  21.3479987  49.5355006 154.8515017
  20.1509987  50.4625006 154.8515017  24.8619987  49.9115006 137.0605017
  25.8189987  49.9115006 137.0605017  24.6219987  50.8385006 137.0605017
  27.0869987  49.5145006 154.2495017  28.0439987  49.5145006 154.2495017
  26.8469987  50.4415006 154.2495017  30.0669987  50.9415006 136.6495017
  31.0239987  50.9415006 136.6495017  29.8269987  51.8685006 136.6495017
  32.7909987  49.3845006 151.6345017  33.7479987  49.3845006 151.6345017
  32.5509987  50.3115006 151.6345017  21.2819987  46.7535006 154.2375017
  22.2389987  46.7535006 154.2375017  21.0419987  47.6805006 154.2375017
  25.9049987  47.8745006 139.2485017  26.8619987  47.8745006 139.2485017
  25.6649987  48.8015006 139.2485017  25.1939987  45.7105006 151.6035017
  26.1509987  45.7105006 151.6035017  24.9539987  46.6375006 151.6035017
  27.0209987  45.8225006 137.7935017  27.9779987  45.8225006 137.7935017
  26.7809987  46.7495006 137.7935017  30.2499987  48.2545006 154.9185017
  31.2069987  48.2545006 154.9185017  30.0099987  49.1815006 154.9185017
  36.4249987  48.6415006 137.2895017  37.3819987  48.6415006 137.2895017
  36.1849987  49.5685006 137.2895017  25.5869987  43.0845006 152.6715017
  26.5439987  43.0845006 152.6715017  25.3469987  44.0115006 152.6715017
  25.9869987  41.4615006 150.2045017  26.9439987  41.4615006 150.2045017
  25.7469987  42.3885006 150.2045017  27.5409987  46.9285006 150.4485017
  28.4979987  46.9285006 150.4485017  27.3009987  47.8555006 150.4485017
  31.9389987  44.7075006 155.4355017  32.8959987  44.7075006 155.4355017
  31.6989987  45.6345006 155.4355017  33.2679987  47.4885006 153.5615017
  34.2249987  47.4885006 153.5615017  33.0279987  48.4155006 153.5615017
  24.0459987  44.3265006 154.5855017  25.0029987  44.3265006 154.5855017
  23.8059987  45.2535006 154.5855017  26.7799987  38.8995006 150.6145017
  27.7369987  38.8995006 150.6145017  26.5399987  39.8265006 150.6145017
  28.0529987  43.2305006 154.2105017  29.0099987  43.2305006 154.2105017
  27.8129987  44.1575006 154.2105017  30.7679987  42.3665006 153.2835017
  31.7249987  42.3665006 153.2835017  30.5279987  43.2935006 153.2835017
  32.3289987  41.0035006 155.1995017  33.2859987  41.0035006 155.1995017
  32.0889987  41.9305006 155.1995017  22.1419987  42.2525006 154.3195017
  23.0989987  42.2525006 154.3195017  21.9019987  43.1795006 154.3195017
  26.9919987  38.2685006 153.3025017  27.9489987  38.2685006 153.3025017
  26.7519987  39.1955006 153.3025017  27.3589987  39.9025006 155.3915017
  28.3159987  39.9025006 155.3915017  27.1189987  40.8295006 155.3915017
  26.8659987  56.7825006 138.5985017  27.8229987  56.7825006 138.5985017
  26.6259987  57.7095006 138.5985017  20.3999987  51.3395006 138.1315017
  21.3569987  51.3395006 138.1315017  20.1599987  52.2665006 138.1315017
  19.1559987  56.7885006 143.0325017  20.1129987  56.7885006 143.0325017
  18.9159987  57.7155006 143.0325017  19.9849987  54.9055006 144.8835017
  20.9419987  54.9055006 144.8835017  19.7449987  55.8325006 144.8835017
  37.5179987  55.7035006 147.8355017  38.4749987  55.7035006 147.8355017
  37.2779987  56.6305006 147.8355017  37.0939987  55.3005006 150.7785017
  38.0509987  55.3005006 150.7785017  36.8539987  56.2275006 150.7785017
  35.5389987  51.0335006 155.4325017  36.4959987  51.0335006 155.4325017
  35.2989987  51.9605006 155.4325017  36.8539987  49.3515006 140.8915017
  37.8109987  49.3515006 140.8915017  36.6139987  50.2785006 140.8915017
  37.2099987  47.4235006 142.7595017  38.1669987  47.4235006 142.7595017
  36.9699987  48.3505006 142.7595017  36.9759987  50.1295006 147.7405017
  37.9329987  50.1295006 147.7405017  36.7359987  51.0565006 147.7405017
  35.5219987  53.0275006 150.0215017  36.4789987  53.0275006 150.0215017
  35.2819987  53.9545006 150.0215017  37.5309987  47.2325006 139.1835017
  38.4879987  47.2325006 139.1835017  37.2909987  48.1595006 139.1835017
  35.9749987  44.4095006 137.9105017  36.9319987  44.4095006 137.9105017
  35.7349987  45.3365006 137.9105017  35.0049987  45.9035006 143.3125017
  35.9619987  45.9035006 143.3125017  34.7649987  46.8305006 143.3125017
  20.0379987  47.9825006 147.3765017  20.9949987  47.9825006 147.3765017
  19.7979987  48.9095006 147.3765017  35.8899987  47.8685006 153.0155017
  36.8469987  47.8685006 153.0155017  35.6499987  48.7955006 153.0155017
  37.3599987  45.7525006 153.6515017  38.3169987  45.7525006 153.6515017
  37.1199987  46.6795006 153.6515017  35.0609987  41.9745006 136.9715017
  36.0179987  41.9745006 136.9715017  34.8209987  42.9015006 136.9715017
  34.6979987  43.5075006 141.8245017  35.6549987  43.5075006 141.8245017
  34.4579987  44.4345006 141.8245017  35.3309987  44.0425006 147.2185017
  36.2879987  44.0425006 147.2185017  35.0909987  44.9695006 147.2185017
  35.4059987  44.7585006 150.0075017  36.3629987  44.7585006 150.0075017
  35.1659987  45.6855006 150.0075017  19.6499987  43.2815006 153.5225017
  20.6069987  43.2815006 153.5225017  19.4099987  44.2085006 153.5225017
  37.7099987  38.7875006 155.3595017  38.6669987  38.7875006 155.3595017
  37.4699987  39.7145006 155.3595017  35.3439987  40.7825006 141.8485017
  36.3009987  40.7825006 141.8485017  35.1039987  41.7095006 141.8485017
  20.8549987  41.5715006 146.3825017  21.8119987  41.5715006 146.3825017
  20.6149987  42.4985006 146.3825017  19.1439987  44.5645006 147.4335017
  20.1009987  44.5645006 147.4335017  18.9039987  45.4915006 147.4335017
  37.1999987  40.8965006 153.7145017  38.1569987  40.8965006 153.7145017
  36.9599987  41.8235006 153.7145017  37.2599987  40.7345006 138.5885017
  38.2169987  40.7345006 138.5885017  37.0199987  41.6615006 138.5885017
  19.5079987  40.8315006 141.5075017  20.4649987  40.8315006 141.5075017
  19.2679987  41.7585006 141.5075017  34.2459987  55.7915006 143.4435017
  35.2029987  55.7915006 143.4435017  34.0059987  56.7185006 143.4435017
  19.4619987  39.5095006 149.8105017  20.4189987  39.5095006 149.8105017
  19.2219987  40.4365006 149.8105017  21.6819987  52.6955006 153.9665017
  22.6389987  52.6955006 153.9665017  21.4419987  53.6225006 153.9665017
  24.5929987  53.6905006 150.2415017  25.5499987  53.6905006 150.2415017
  24.3529987  54.6175006 150.2415017  28.9129987  55.1155006 153.1565017
  29.8699987  55.1155006 153.1565017  28.6729987  56.0425006 153.1565017
  31.2109987  56.3855006 152.4455017  32.1679987  56.3855006 152.4455017
  30.9709987  57.3125006 152.4455017  36.2129987  38.9975006 151.5465017
  37.1699987  38.9975006 151.5465017  35.9729987  39.9245006 151.5465017
  22.0189987  56.9365006 150.2495017  22.9759987  56.9365006 150.2495017
  21.7789987  57.8635006 150.2495017  24.4889987  56.5185006 149.3135017
  25.4459987  56.5185006 149.3135017  24.2489987  57.4455006 149.3135017
  29.1919987  56.4275006 148.4805017  30.1489987  56.4275006 148.4805017
  28.9519987  57.3545006 148.4805017  31.4979987  55.2585006 149.4775017
  32.4549987  55.2585006 149.4775017  31.2579987  56.1855006 149.4775017
  34.0779987  56.8245006 149.7365017  35.0349987  56.8245006 149.7365017
  33.8379987  57.7515006 149.7365017  21.4539987  55.5855006 147.1795017
  22.4109987  55.5855006 147.1795017  21.2139987  56.5125006 147.1795017
  23.5489987  54.2975006 145.8315017  24.5059987  54.2975006 145.8315017
  23.3089987  55.2245006 145.8315017  26.1359987  54.7775006 146.7055017
  27.0929987  54.7775006 146.7055017  25.8959987  55.7045006 146.7055017
  29.6089987  40.4305006 145.8445017  30.5659987  40.4305006 145.8445017
  29.3689987  41.3575006 145.8445017  34.7439987  38.4905006 145.9315017
  35.7009987  38.4905006 145.9315017  34.5039987  39.4175006 145.9315017
  36.4279987  39.7005006 144.2345017  37.3849987  39.7005006 144.2345017
  36.1879987  40.6275006 144.2345017  21.9699987  39.0615006 143.6855017
  22.9269987  39.0615006 143.6855017  21.7299987  39.9885006 143.6855017
  20.7349987  38.8225006 139.3905017  21.6919987  38.8225006 139.3905017
  20.4949987  39.7495006 139.3905017  26.4709987  38.9805006 143.4765017
  27.4279987  38.9805006 143.4765017  26.2309987  39.9075006 143.4765017
  32.1399987  39.0045006 145.1145017  33.0969987  39.0045006 145.1145017
  31.8999987  39.9315006 145.1145017  33.4409987  39.0375006 140.7495017
  34.3979987  39.0375006 140.7495017  33.2009987  39.9645006 140.7495017
  20.7019987  54.7785006 140.3755017  21.6589987  54.7785006 140.3755017
  20.4619987  55.7055006 140.3755017  22.5839987  40.7655006 137.9545017
  23.5409987  40.7655006 137.9545017  22.3439987  41.6925006 137.9545017
  27.6279987  41.0215006 140.3435017  28.5849987  41.0215006 140.3435017
  27.3879987  41.9485006 140.3435017  29.5029987  56.0725006 138.7835017
  30.4599987  56.0725006 138.7835017  29.2629987  56.9995006 138.7835017
  36.2529987  55.5865006 141.4825017  37.2099987  55.5865006 141.4825017
  36.0129987  56.5135006 141.4825017  21.8689987  39.5975006 153.1505017
  22.8259987  39.5975006 153.1505017  21.6289987  40.5245006 153.1505017
  23.8719987  38.9675006 154.7635017  24.8289987  38.9675006 154.7635017
  23.6319987  39.8945006 154.7635017  22.6239987  55.8165006 137.4735017
  23.5809987  55.8165006 137.4735017  22.3839987  56.7435006 137.4735017
  32.2759987  38.2665006 154.9315017  33.2329987  38.2665006 154.9315017
  32.0359987  39.1935006 154.9315017  35.4809987  54.3125006 153.5805017
  36.4379987  54.3125006 153.5805017  35.2409987  55.2395006 153.5805017
  49.9109987  48.2025006 143.5895017  50.8679987  48.2025006 143.5895017
  49.6709987  49.1295006 143.5895017  48.7769987  47.4615006 147.0625017
  49.7339987  47.4615006 147.0625017  48.5369987  48.3885006 147.0625017
  41.1409987  47.1135006 148.6085017  42.0979987  47.1135006 148.6085017
  40.9009987  48.0405006 148.6085017  52.4839987  50.4005006 145.3325017
  53.4409987  50.4005006 145.3325017  52.2439987  51.3275006 145.3325017
  42.0679987  51.5665006 147.1295017  43.0249987  51.5665006 147.1295017
  41.8279987  52.4935006 147.1295017  38.7159987  45.1425006 142.5955017
  39.6729987  45.1425006 142.5955017  38.4759987  46.0695006 142.5955017
  39.4069987  47.3575006 144.7225017  40.3639987  47.3575006 144.7225017
  39.1669987  48.2845006 144.7225017  49.5949987  55.5495006 145.5685017
  50.5519987  55.5495006 145.5685017  49.3549987  56.4765006 145.5685017
  47.1599987  49.8675006 147.4985017  48.1169987  49.8675006 147.4985017
  46.9199987  50.7945006 147.4985017  55.7809987  41.5025006 148.2675017
  56.7379987  41.5025006 148.2675017  55.5409987  42.4295006 148.2675017
  50.3269987  44.3185006 147.8255017  51.2839987  44.3185006 147.8255017
  50.0869987  45.2455006 147.8255017  43.4489987  42.4065006 145.0565017
  44.4059987  42.4065006 145.0565017  43.2089987  43.3335006 145.0565017
  51.2009987  42.4465006 143.4095017  52.1579987  42.4465006 143.4095017
  50.9609987  43.3735006 143.4095017  40.0699987  44.8145006 145.7955017
  41.0269987  44.8145006 145.7955017  39.8299987  45.7415006 145.7955017
  45.2339987  46.3715006 145.0815017  46.1909987  46.3715006 145.0815017
  44.9939987  47.2985006 145.0815017  56.2099987  42.9295006 150.5245017
  57.1669987  42.9295006 150.5245017  55.9699987  43.8565006 150.5245017
  42.3339987  41.3045006 149.1015017  43.2909987  41.3045006 149.1015017
  42.0939987  42.2315006 149.1015017  49.6449987  50.7995006 142.6355017
  50.6019987  50.7995006 142.6355017  49.4049987  51.7265006 142.6355017
  44.8659987  48.9535006 149.3555017  45.8229987  48.9535006 149.3555017
  44.6259987  49.8805006 149.3555017  52.9829987  41.8145006 145.4155017
  53.9399987  41.8145006 145.4155017  52.7429987  42.7415006 145.4155017
  41.8959987  43.1745006 147.1095017  42.8529987  43.1745006 147.1095017
  41.6559987  44.1015006 147.1095017  43.3029987  50.9465006 150.1625017
  44.2599987  50.9465006 150.1625017  43.0629987  51.8735006 150.1625017
  39.3909987  50.5735006 140.9905017  40.3479987  50.5735006 140.9905017
  39.1509987  51.5005006 140.9905017  53.0059987  52.2345006 147.7015017
  53.9629987  52.2345006 147.7015017  52.7659987  53.1615006 147.7015017
  53.3099987  40.5185006 149.0775017  54.2669987  40.5185006 149.0775017
  53.0699987  41.4455006 149.0775017  46.3039987  38.6435006 146.5625017
  47.2609987  38.6435006 146.5625017  46.0639987  39.5705006 146.5625017
  51.2579987  54.0195006 144.3045017  52.2149987  54.0195006 144.3045017
  51.0179987  54.9465006 144.3045017  52.4569987  51.9425006 142.8225017
  53.4139987  51.9425006 142.8225017  52.2169987  52.8695006 142.8225017
  54.0959987  50.5275006 151.3075017  55.0529987  50.5275006 151.3075017
  53.8559987  51.4545006 151.3075017  48.5939987  47.4335006 141.0795017
  49.5509987  47.4335006 141.0795017  48.3539987  48.3605006 141.0795017
  48.6539987  46.0255006 138.2945017  49.6109987  46.0255006 138.2945017
  48.4139987  46.9525006 138.2945017  55.9709987  46.8415006 149.3605017
  56.9279987  46.8415006 149.3605017  55.7309987  47.7685006 149.3605017
  52.0169987  47.6575006 142.0135017  52.9739987  47.6575006 142.0135017
  51.7769987  48.5845006 142.0135017  51.9469987  45.8095006 151.1055017
  52.9039987  45.8095006 151.1055017  51.7069987  46.7365006 151.1055017
  43.6419987  48.3095006 143.9065017  44.5989987  48.3095006 143.9065017
  43.4019987  49.2365006 143.9065017  44.9699987  51.7045006 146.5895017
  45.9269987  51.7045006 146.5895017  44.7299987  52.6315006 146.5895017
  43.9799987  47.0495006 147.5575017  44.9369987  47.0495006 147.5575017
  43.7399987  47.9765006 147.5575017  50.3649987  52.6115006 148.2665017
  51.3219987  52.6115006 148.2665017  50.1249987  53.5385006 148.2665017
  44.9169987  51.4715006 152.2625017  45.8739987  51.4715006 152.2625017
  44.6769987  52.3985006 152.2625017  50.8789987  46.8175006 139.6735017
  51.8359987  46.8175006 139.6735017  50.6389987  47.7445006 139.6735017
  41.8519987  47.6485006 151.4325017  42.8089987  47.6485006 151.4325017
  41.6119987  48.5755006 151.4325017  48.6049987  53.5575006 143.1495017
  49.5619987  53.5575006 143.1495017  48.3649987  54.4845006 143.1495017
  43.1589987  53.5235006 153.0155017  44.1159987  53.5235006 153.0155017
  42.9189987  54.4505006 153.0155017  54.6209987  38.5635006 139.5065017
  55.5779987  38.5635006 139.5065017  54.3809987  39.4905006 139.5065017
  42.6119987  47.3405006 141.5235017  43.5689987  47.3405006 141.5235017
  42.3719987  48.2675006 141.5235017  55.7469987  52.8995006 137.9525017
  56.7039987  52.8995006 137.9525017  55.5069987  53.8265006 137.9525017
  38.7069987  49.7515006 150.3905017  39.6639987  49.7515006 150.3905017
  38.4669987  50.6785006 150.3905017  38.4639987  52.4925006 147.1925017
  39.4209987  52.4925006 147.1925017  38.2239987  53.4195006 147.1925017
  56.6919987  53.1785006 152.8775017  57.6489987  53.1785006 152.8775017
  56.4519987  54.1055006 152.8775017  47.6579987  52.7365006 151.7435017
  48.6149987  52.7365006 151.7435017  47.4179987  53.6635006 151.7435017
  48.0699987  56.4855006 141.5265017  49.0269987  56.4855006 141.5265017
  47.8299987  57.4125006 141.5265017  41.7329987  55.3495006 143.3595017
  42.6899987  55.3495006 143.3595017  41.4929987  56.2765006 143.3595017
  51.0929987  55.7105006 138.5095017  52.0499987  55.7105006 138.5095017
  50.8529987  56.6375006 138.5095017  50.8359987  55.6245006 141.3085017
  51.7929987  55.6245006 141.3085017  50.5959987  56.5515006 141.3085017
  53.8409987  44.6655006 153.3615017  54.7979987  44.6655006 153.3615017
  53.6009987  45.5925006 153.3615017  40.9829987  51.0655006 151.3645017
  41.9399987  51.0655006 151.3645017  40.7429987  51.9925006 151.3645017
  43.6509987  39.5325006 147.3225017  44.6079987  39.5325006 147.3225017
  43.4109987  40.4595006 147.3225017  48.2969987  39.2185006 150.6785017
  49.2539987  39.2185006 150.6785017  48.0569987  40.1455006 150.6785017
  51.5969987  43.0395006 151.5735017  52.5539987  43.0395006 151.5735017
  51.3569987  43.9665006 151.5735017  52.4819987  47.9385006 137.8245017
  53.4389987  47.9385006 137.8245017  52.2419987  48.8655006 137.8245017
  47.9499987  41.7775006 138.0095017  48.9069987  41.7775006 138.0095017
  47.7099987  42.7045006 138.0095017  43.7509987  44.5015006 148.5295017
  44.7079987  44.5015006 148.5295017  43.5109987  45.4285006 148.5295017
  43.7139987  44.6605006 143.4105017  44.6709987  44.6605006 143.4105017
  43.4739987  45.5875006 143.4105017  49.2319987  45.1185006 142.1665017
  50.1889987  45.1185006 142.1665017  48.9919987  46.0455006 142.1665017
  48.3109987  45.3365006 153.6415017  49.2679987  45.3365006 153.6415017
  48.0709987  46.2635006 153.6415017  50.2679987  44.6095006 145.0285017
  51.2249987  44.6095006 145.0285017  50.0279987  45.5365006 145.0285017
  41.3989987  44.7885006 150.2695017  42.3559987  44.7885006 150.2695017
  41.1589987  45.7155006 150.2695017  44.8249987  42.1265006 137.2635017
  45.7819987  42.1265006 137.2635017  44.5849987  43.0535006 137.2635017
  38.0379987  41.8935006 144.2015017  38.9949987  41.8935006 144.2015017
  37.7979987  42.8205006 144.2015017  39.2989987  42.5975006 139.5495017
  40.2559987  42.5975006 139.5495017  39.0589987  43.5245006 139.5495017
  49.4809987  46.2155006 149.6165017  50.4379987  46.2155006 149.6165017
  49.2409987  47.1425006 149.6165017  46.2759987  42.1645006 144.4325017
  47.2329987  42.1645006 144.4325017  46.0359987  43.0915006 144.4325017
  41.0939987  43.7465006 143.2945017  42.0509987  43.7465006 143.2945017
  40.8539987  44.6735006 143.2945017  44.7339987  43.7985006 140.9485017
  45.6909987  43.7985006 140.9485017  44.4939987  44.7255006 140.9485017
  50.6849987  41.3845006 147.6765017  51.6419987  41.3845006 147.6765017
  50.4449987  42.3115006 147.6765017  43.3959987  44.9925006 138.4995017
  44.3529987  44.9925006 138.4995017  43.1559987  45.9195006 138.4995017
  53.9049987  57.0555006 153.9935017  54.8619987  57.0555006 153.9935017
  53.6649987  57.9825006 153.9935017  41.5529987  49.5945006 153.5355017
  42.5099987  49.5945006 153.5355017  41.3129987  50.5215006 153.5355017
  47.5699987  44.9335006 146.3245017  48.5269987  44.9335006 146.3245017
  47.3299987  45.8605006 146.3245017  42.5769987  41.0845006 142.7605017
  43.5339987  41.0845006 142.7605017  42.3369987  42.0115006 142.7605017
  46.2059987  43.2765006 148.7395017  47.1629987  43.2765006 148.7395017
  45.9659987  44.2035006 148.7395017  46.7909987  49.4995006 140.4265017
  47.7479987  49.4995006 140.4265017  46.5509987  50.4265006 140.4265017
  53.9549987  48.6785006 149.2375017  54.9119987  48.6785006 149.2375017
  53.7149987  49.6055006 149.2375017  50.6489987  42.3295006 138.5645017
  51.6059987  42.3295006 138.5645017  50.4089987  43.2565006 138.5645017
  48.2799987  49.7415006 151.6735017  49.2369987  49.7415006 151.6735017
  48.0399987  50.6685006 151.6735017  51.3579987  44.1995006 140.2815017
  52.3149987  44.1995006 140.2815017  51.1179987  45.1265006 140.2815017
  41.8939987  48.8705006 146.2295017  42.8509987  48.8705006 146.2295017
  41.6539987  49.7975006 146.2295017  48.8909987  50.9495006 139.4535017
  49.8479987  50.9495006 139.4535017  48.6509987  51.8765006 139.4535017
  38.8829987  47.2935006 151.5065017  39.8399987  47.2935006 151.5065017
  38.6429987  48.2205006 151.5065017  45.9059987  46.8505006 153.6905017
  46.8629987  46.8505006 153.6905017  45.6659987  47.7775006 153.6905017
  50.5719987  52.1775006 151.6165017  51.5289987  52.1775006 151.6165017
  50.3319987  53.1045006 151.6165017  56.2999987  44.3815006 140.0345017
  57.2569987  44.3815006 140.0345017  56.0599987  45.3085006 140.0345017
  56.2399987  50.2305006 152.8345017  57.1969987  50.2305006 152.8345017
  55.9999987  51.1575006 152.8345017  54.5789987  53.1865006 140.4275017
  55.5359987  53.1865006 140.4275017  54.3389987  54.1135006 140.4275017
  51.7459987  48.0135006 147.5115017  52.7029987  48.0135006 147.5115017
  51.5059987  48.9405006 147.5115017  44.2699987  52.3375006 143.6165017
  45.2269987  52.3375006 143.6165017  44.0299987  53.2645006 143.6165017
  40.0409987  47.1795006 138.1565017  40.9979987  47.1795006 138.1565017
  39.8009987  48.1065006 138.1565017  45.6929987  50.0015006 143.1425017
  46.6499987  50.0015006 143.1425017  45.4529987  50.9285006 143.1425017
  46.1479987  54.1785006 149.5325017  47.1049987  54.1785006 149.5325017
  45.9079987  55.1055006 149.5325017  44.3649987  55.0035006 142.6955017
  45.3219987  55.0035006 142.6955017  44.1249987  55.9305006 142.6955017
  49.6889987  50.2095006 149.1755017  50.6459987  50.2095006 149.1755017
  49.4489987  51.1365006 149.1755017  51.9459987  51.2365006 138.2635017
  52.9029987  51.2365006 138.2635017  51.7059987  52.1635006 138.2635017
  52.4579987  54.7805006 151.6695017  53.4149987  54.7805006 151.6695017
  52.2179987  55.7075006 151.6695017  56.4649987  55.6275006 138.5305017
  57.4219987  55.6275006 138.5305017  56.2249987  56.5545006 138.5305017
  40.5389987  42.0295006 151.0485017  41.4959987  42.0295006 151.0485017
  40.2989987  42.9565006 151.0485017  52.7869987  49.8885006 140.5045017
  53.7439987  49.8885006 140.5045017  52.5469987  50.8155006 140.5045017
  40.1619987  53.8235006 149.4815017  41.1189987  53.8235006 149.4815017
  39.9219987  54.7505006 149.4815017  46.2129987  52.3035006 136.7885017
  47.1699987  52.3035006 136.7885017  45.9729987  53.2305006 136.7885017
  44.9279987  51.8685006 139.1825017  45.8849987  51.8685006 139.1825017
  44.6879987  52.7955006 139.1825017  41.4179987  49.1225006 139.6415017
  42.3749987  49.1225006 139.6415017  41.1779987  50.0495006 139.6415017
  49.2669987  41.7945006 149.9875017  50.2239987  41.7945006 149.9875017
  49.0269987  42.7215006 149.9875017  50.0449987  41.3685006 141.0895017
  51.0019987  41.3685006 141.0895017  49.8049987  42.2955006 141.0895017
  47.7059987  53.5385006 139.9515017  48.6629987  53.5385006 139.9515017
  47.4659987  54.4655006 139.9515017  47.2409987  43.1345006 141.8995017
  48.1979987  43.1345006 141.8995017  47.0009987  44.0615006 141.8995017
  47.7959987  44.1435006 151.0925017  48.7529987  44.1435006 151.0925017
  47.5559987  45.0705006 151.0925017  48.1419987  40.1775006 142.8335017
  49.0989987  40.1775006 142.8335017  47.9019987  41.1045006 142.8335017
  45.0789987  54.5725006 139.9265017  46.0359987  54.5725006 139.9265017
  44.8389987  55.4995006 139.9265017  43.7399987  41.2775006 139.5385017
  44.6969987  41.2775006 139.5385017  43.4999987  42.2045006 139.5385017
  53.9889987  42.0185006 151.9395017  54.9459987  42.0185006 151.9395017
  53.7489987  42.9455006 151.9395017  52.5879987  45.8045006 145.9735017
  53.5449987  45.8045006 145.9735017  52.3479987  46.7315006 145.9735017
  42.0319987  51.6815006 138.5985017  42.9889987  51.6815006 138.5985017
  41.7919987  52.6085006 138.5985017  40.3539987  44.3845006 137.7145017
  41.3109987  44.3845006 137.7145017  40.1139987  45.3115006 137.7145017
  53.6549987  55.0515006 147.6355017  54.6119987  55.0515006 147.6355017
  53.4149987  55.9785006 147.6355017  41.1549987  39.1885006 146.4175017
  42.1119987  39.1885006 146.4175017  40.9149987  40.1155006 146.4175017
  40.1019987  53.0965006 142.5475017  41.0589987  53.0965006 142.5475017
  39.8619987  54.0235006 142.5475017  39.3229987  55.7545006 153.8635017
  40.2799987  55.7545006 153.8635017  39.0829987  56.6815006 153.8635017
  43.9829987  54.6725006 155.4825017  44.9399987  54.6725006 155.4825017
  43.7429987  55.5995006 155.4825017  48.2869987  53.8005006 137.3685017
  49.2439987  53.8005006 137.3685017  48.0469987  54.7275006 137.3685017
  50.5139987  53.0505006 154.2135017  51.4709987  53.0505006 154.2135017
  50.2739987  53.9775006 154.2135017  52.4769987  53.8925006 137.2465017
  53.4339987  53.8925006 137.2465017  52.2369987  54.8195006 137.2465017
  39.2329987  49.5405006 154.8535017  40.1899987  49.5405006 154.8535017
  38.9929987  50.4675006 154.8535017  43.7409987  49.8975006 137.0465017
  44.6979987  49.8975006 137.0465017  43.5009987  50.8245006 137.0465017
  45.9839987  49.5215006 154.2335017  46.9409987  49.5215006 154.2335017
  45.7439987  50.4485006 154.2335017  48.9139987  50.9325006 136.6565017
  49.8709987  50.9325006 136.6565017  48.6739987  51.8595006 136.6565017
  51.6469987  49.3845006 151.6355017  52.6039987  49.3845006 151.6355017
  51.4069987  50.3115006 151.6355017  39.8779987  46.6215006 154.0955017
  40.8349987  46.6215006 154.0955017  39.6379987  47.5485006 154.0955017
  44.7749987  47.8805006 139.2775017  45.7319987  47.8805006 139.2775017
  44.5349987  48.8075006 139.2775017  44.0509987  45.7035006 151.5915017
  45.0079987  45.7035006 151.5915017  43.8109987  46.6305006 151.5915017
  45.8939987  45.8215006 137.7775017  46.8509987  45.8215006 137.7775017
  45.6539987  46.7485006 137.7775017  49.1069987  48.2545006 154.9185017
  50.0639987  48.2545006 154.9185017  48.8669987  49.1815006 154.9185017
  55.3019987  48.6395006 137.2835017  56.2589987  48.6395006 137.2835017
  55.0619987  49.5665006 137.2835017  44.4489987  43.0785006 152.6605017
  45.4059987  43.0785006 152.6605017  44.2089987  44.0055006 152.6605017
  44.8429987  41.4605006 150.2045017  45.7999987  41.4605006 150.2045017
  44.6029987  42.3875006 150.2045017  46.3929987  46.9305006 150.4515017
  47.3499987  46.9305006 150.4515017  46.1529987  47.8575006 150.4515017
  50.7919987  44.7095006 155.4275017  51.7489987  44.7095006 155.4275017
  50.5519987  45.6365006 155.4275017  52.1189987  47.4895006 153.5625017
  53.0759987  47.4895006 153.5625017  51.8789987  48.4165006 153.5625017
  42.9189987  44.2905006 154.5875017  43.8759987  44.2905006 154.5875017
  42.6789987  45.2175006 154.5875017  45.6379987  38.9005006 150.6085017
  46.5949987  38.9005006 150.6085017  45.3979987  39.8275006 150.6085017
  46.9049987  43.2305006 154.2125017  47.8619987  43.2305006 154.2125017
  46.6649987  44.1575006 154.2125017  49.6259987  42.3645006 153.2855017
  50.5829987  42.3645006 153.2855017  49.3859987  43.2915006 153.2855017
  51.2219987  40.9945006 155.2265017  52.1789987  40.9945006 155.2265017
  50.9819987  41.9215006 155.2265017  40.9909987  42.2525006 154.3075017
  41.9479987  42.2525006 154.3075017  40.7509987  43.1795006 154.3075017
  45.8469987  38.2685006 153.3015017  46.8039987  38.2685006 153.3015017
  45.6069987  39.1955006 153.3015017  46.2159987  39.9025006 155.3915017
  47.1729987  39.9025006 155.3915017  45.9759987  40.8295006 155.3915017
  45.6979987  56.8195006 138.5725017  46.6549987  56.8195006 138.5725017
  45.4579987  57.7465006 138.5725017  39.2519987  51.3435006 138.1275017
  40.2089987  51.3435006 138.1275017  39.0119987  52.2705006 138.1275017
  38.0129987  56.7895006 143.0335017  38.9699987  56.7895006 143.0335017
  37.7729987  57.7165006 143.0335017  38.8399987  54.9055006 144.8835017
  39.7969987  54.9055006 144.8835017  38.5999987  55.8325006 144.8835017
  56.3739987  55.7035006 147.8365017  57.3309987  55.7035006 147.8365017
  56.1339987  56.6305006 147.8365017  55.9499987  55.3035006 150.7795017
  56.9069987  55.3035006 150.7795017  55.7099987  56.2305006 150.7795017
  54.3949987  51.0315006 155.4345017  55.3519987  51.0315006 155.4345017
  54.1549987  51.9585006 155.4345017  55.7069987  49.3485006 140.8935017
  56.6639987  49.3485006 140.8935017  55.4669987  50.2755006 140.8935017
  56.0729987  47.4215006 142.7585017  57.0299987  47.4215006 142.7585017
  55.8329987  48.3485006 142.7585017  55.8319987  50.1295006 147.7405017
  56.7889987  50.1295006 147.7405017  55.5919987  51.0565006 147.7405017
  54.3779987  53.0265006 150.0215017  55.3349987  53.0265006 150.0215017
  54.1379987  53.9535006 150.0215017  56.3929987  47.2385006 139.1815017
  57.3499987  47.2385006 139.1815017  56.1529987  48.1655006 139.1815017
  54.8329987  44.4105006 137.9065017  55.7899987  44.4105006 137.9065017
  54.5929987  45.3375006 137.9065017  53.8879987  45.9005006 143.3225017
  54.8449987  45.9005006 143.3225017  53.6479987  46.8275006 143.3225017
  38.8949987  47.9815006 147.3765017  39.8519987  47.9815006 147.3765017
  38.6549987  48.9085006 147.3765017  54.7409987  47.8675006 153.0005017
  55.6979987  47.8675006 153.0005017  54.5009987  48.7945006 153.0005017
  56.2489987  45.7605006 153.6655017  57.2059987  45.7605006 153.6655017
  56.0089987  46.6875006 153.6655017  53.9159987  41.9745006 136.9705017
  54.8729987  41.9745006 136.9705017  53.6759987  42.9015006 136.9705017
  53.5559987  43.4995006 141.7855017  54.5129987  43.4995006 141.7855017
  53.3159987  44.4265006 141.7855017  54.1909987  44.0265006 147.2225017
  55.1479987  44.0265006 147.2225017  53.9509987  44.9535006 147.2225017
  54.2619987  44.7555006 150.0135017  55.2189987  44.7555006 150.0135017
  54.0219987  45.6825006 150.0135017  38.5039987  43.2575006 153.4905017
  39.4609987  43.2575006 153.4905017  38.2639987  44.1845006 153.4905017
  56.5249987  38.7955006 155.3615017  57.4819987  38.7955006 155.3615017
  56.2849987  39.7225006 155.3615017  54.2089987  40.7635006 141.8465017
  55.1659987  40.7635006 141.8465017  53.9689987  41.6905006 141.8465017
  39.7119987  41.5725006 146.3815017  40.6689987  41.5725006 146.3815017
  39.4719987  42.4995006 146.3815017  37.9999987  44.5645006 147.4335017
  38.9569987  44.5645006 147.4335017  37.7599987  45.4915006 147.4335017
  56.0549987  40.9025006 153.7135017  57.0119987  40.9025006 153.7135017
  55.8149987  41.8295006 153.7135017  56.1169987  40.7345006 138.5885017
  57.0739987  40.7345006 138.5885017  55.8769987  41.6615006 138.5885017
  38.3639987  40.8315006 141.5055017  39.3209987  40.8315006 141.5055017
  38.1239987  41.7585006 141.5055017  53.0989987  55.7835006 143.4485017
  54.0559987  55.7835006 143.4485017  52.8589987  56.7105006 143.4485017
  38.3159987  39.5115006 149.8065017  39.2729987  39.5115006 149.8065017
  38.0759987  40.4385006 149.8065017  40.5349987  52.7115006 153.9565017
  41.4919987  52.7115006 153.9565017  40.2949987  53.6385006 153.9565017
  43.4489987  53.6905006 150.2405017  44.4059987  53.6905006 150.2405017
  43.2089987  54.6175006 150.2405017  47.7689987  55.1155006 153.1565017
  48.7259987  55.1155006 153.1565017  47.5289987  56.0425006 153.1565017
  50.0669987  56.3845006 152.4455017  51.0239987  56.3845006 152.4455017
  49.8269987  57.3115006 152.4455017  55.0669987  38.9975006 151.5515017
  56.0239987  38.9975006 151.5515017  54.8269987  39.9245006 151.5515017
  40.8749987  56.9365006 150.2495017  41.8319987  56.9365006 150.2495017
  40.6349987  57.8635006 150.2495017  43.3449987  56.5195006 149.3125017
  44.3019987  56.5195006 149.3125017  43.1049987  57.4465006 149.3125017
  48.0469987  56.4275006 148.4805017  49.0039987  56.4275006 148.4805017
  47.8069987  57.3545006 148.4805017  50.3539987  55.2585006 149.4785017
  51.3109987  55.2585006 149.4785017  50.1139987  56.1855006 149.4785017
  52.9299987  56.8225006 149.7345017  53.8869987  56.8225006 149.7345017
  52.6899987  57.7495006 149.7345017  40.3099987  55.5855006 147.1795017
  41.2669987  55.5855006 147.1795017  40.0699987  56.5125006 147.1795017
  42.4049987  54.2975006 145.8325017  43.3619987  54.2975006 145.8325017
  42.1649987  55.2245006 145.8325017  44.9929987  54.7805006 146.7035017
  45.9499987  54.7805006 146.7035017  44.7529987  55.7075006 146.7035017
  48.4239987  40.4505006 145.8545017  49.3809987  40.4505006 145.8545017
  48.1839987  41.3775006 145.8545017  53.7889987  38.7575006 146.2265017
  54.7459987  38.7575006 146.2265017  53.5489987  39.6845006 146.2265017
  55.2619987  39.6875006 144.2235017  56.2189987  39.6875006 144.2235017
  55.0219987  40.6145006 144.2235017  40.8219987  39.0665006 143.6835017
  41.7789987  39.0665006 143.6835017  40.5819987  39.9935006 143.6835017
  39.5919987  38.8225006 139.3925017  40.5489987  38.8225006 139.3925017
  39.3519987  39.7495006 139.3925017  45.3289987  38.9805006 143.4735017
  46.2859987  38.9805006 143.4735017  45.0889987  39.9075006 143.4735017
  50.5669987  39.2285006 145.1195017  51.5239987  39.2285006 145.1195017
  50.3269987  40.1555006 145.1195017  52.2919987  39.0415006 140.8025017
  53.2489987  39.0415006 140.8025017  52.0519987  39.9685006 140.8025017
  39.5609987  54.7805006 140.3705017  40.5179987  54.7805006 140.3705017
  39.3209987  55.7075006 140.3705017  41.4409987  40.7665006 137.9555017
  42.3979987  40.7665006 137.9555017  41.2009987  41.6935006 137.9555017
  46.4859987  41.0175006 140.3475017  47.4429987  41.0175006 140.3475017
  46.2459987  41.9445006 140.3475017  48.3709987  56.1205006 138.7495017
  49.3279987  56.1205006 138.7495017  48.1309987  57.0475006 138.7495017
  55.1089987  55.5865006 141.4825017  56.0659987  55.5865006 141.4825017
  54.8689987  56.5135006 141.4825017  40.7269987  39.5915006 153.1455017
  41.6839987  39.5915006 153.1455017  40.4869987  40.5185006 153.1455017
  42.7249987  38.9675006 154.7735017  43.6819987  38.9675006 154.7735017
  42.4849987  39.8945006 154.7735017  41.4729987  55.8115006 137.4755017
  42.4299987  55.8115006 137.4755017  41.2329987  56.7385006 137.4755017
  51.1309987  38.2735006 154.9265017  52.0879987  38.2735006 154.9265017
  50.8909987  39.2005006 154.9265017  54.3379987  54.3145006 153.5815017
  55.2949987  54.3145006 153.5815017  54.0979987  55.2415006 153.5815017
  68.7669987  48.2015006 143.5895017  69.7239987  48.2015006 143.5895017
  68.5269987  49.1285006 143.5895017  67.6329987  47.4605006 147.0615017
  68.5899987  47.4605006 147.0615017  67.3929987  48.3875006 147.0615017
  59.9959987  47.1145006 148.6095017  60.9529987  47.1145006 148.6095017
  59.7559987  48.0415006 148.6095017  71.3389987  50.4015006 145.3335017
  72.2959987  50.4015006 145.3335017  71.0989987  51.3285006 145.3335017
  60.9229987  51.5645006 147.1315017  61.8799987  51.5645006 147.1315017
  60.6829987  52.4915006 147.1315017  57.5699987  45.1455006 142.5945017
  58.5269987  45.1455006 142.5945017  57.3299987  46.0725006 142.5945017
  58.2629987  47.3585006 144.7235017  59.2199987  47.3585006 144.7235017
  58.0229987  48.2855006 144.7235017  68.4509987  55.5495006 145.5685017
  69.4079987  55.5495006 145.5685017  68.2109987  56.4765006 145.5685017
  66.0159987  49.8665006 147.4975017  66.9729987  49.8665006 147.4975017
  65.7759987  50.7935006 147.4975017  74.6359987  41.5005006 148.2665017
  75.5929987  41.5005006 148.2665017  74.3959987  42.4275006 148.2665017
  69.1809987  44.3195006 147.8235017  70.1379987  44.3195006 147.8235017
  68.9409987  45.2465006 147.8235017  62.3049987  42.4045006 145.0555017
  63.2619987  42.4045006 145.0555017  62.0649987  43.3315006 145.0555017
  70.0339987  42.4965006 143.4255017  70.9909987  42.4965006 143.4255017
  69.7939987  43.4235006 143.4255017  58.9269987  44.8145006 145.7955017
  59.8839987  44.8145006 145.7955017  58.6869987  45.7415006 145.7955017
  64.0909987  46.3715006 145.0795017  65.0479987  46.3715006 145.0795017
  63.8509987  47.2985006 145.0795017  75.0699987  42.9335006 150.5265017
  76.0269987  42.9335006 150.5265017  74.8299987  43.8605006 150.5265017
  61.1899987  41.3055006 149.1015017  62.1469987  41.3055006 149.1015017
  60.9499987  42.2325006 149.1015017  68.5019987  50.8005006 142.6355017
  69.4589987  50.8005006 142.6355017  68.2619987  51.7275006 142.6355017
  63.7219987  48.9535006 149.3555017  64.6789987  48.9535006 149.3555017
  63.4819987  49.8805006 149.3555017  71.8279987  41.8315006 145.4155017
  72.7849987  41.8315006 145.4155017  71.5879987  42.7585006 145.4155017
  60.7519987  43.1755006 147.1095017  61.7089987  43.1755006 147.1095017
  60.5119987  44.1025006 147.1095017  62.1589987  50.9425006 150.1655017
  63.1159987  50.9425006 150.1655017  61.9189987  51.8695006 150.1655017
  58.2479987  50.5745006 140.9885017  59.2049987  50.5745006 140.9885017
  58.0079987  51.5015006 140.9885017  71.8619987  52.2345006 147.7025017
  72.8189987  52.2345006 147.7025017  71.6219987  53.1615006 147.7025017
  72.1789987  40.5245006 149.0995017  73.1359987  40.5245006 149.0995017
  71.9389987  41.4515006 149.0995017  65.1559987  38.6315006 146.5335017
  66.1129987  38.6315006 146.5335017  64.9159987  39.5585006 146.5335017
  70.1139987  54.0195006 144.3045017  71.0709987  54.0195006 144.3045017
  69.8739987  54.9465006 144.3045017  71.3119987  51.9425006 142.8225017
  72.2689987  51.9425006 142.8225017  71.0719987  52.8695006 142.8225017
  72.9519987  50.5275006 151.3075017  73.9089987  50.5275006 151.3075017
  72.7119987  51.4545006 151.3075017  67.4499987  47.4415006 141.0805017
  68.4069987  47.4415006 141.0805017  67.2099987  48.3685006 141.0805017
  67.5019987  45.9955006 138.3345017  68.4589987  45.9955006 138.3345017
  67.2619987  46.9225006 138.3345017  74.8289987  46.8425006 149.3585017
  75.7859987  46.8425006 149.3585017  74.5889987  47.7695006 149.3585017
  70.8719987  47.6575006 142.0145017  71.8289987  47.6575006 142.0145017
  70.6319987  48.5845006 142.0145017  70.7989987  45.8075006 151.1205017
  71.7559987  45.8075006 151.1205017  70.5589987  46.7345006 151.1205017
  62.4959987  48.3085006 143.9065017  63.4529987  48.3085006 143.9065017
  62.2559987  49.2355006 143.9065017  63.8259987  51.7055006 146.5895017
  64.7829987  51.7055006 146.5895017  63.5859987  52.6325006 146.5895017
  62.8359987  47.0495006 147.5575017  63.7929987  47.0495006 147.5575017
  62.5959987  47.9765006 147.5575017  69.2209987  52.6115006 148.2665017
  70.1779987  52.6115006 148.2665017  68.9809987  53.5385006 148.2665017
  63.7739987  51.4725006 152.2625017  64.7309987  51.4725006 152.2625017
  63.5339987  52.3995006 152.2625017  69.7349987  46.8195006 139.6725017
  70.6919987  46.8195006 139.6725017  69.4949987  47.7465006 139.6725017
  60.7079987  47.6405006 151.4385017  61.6649987  47.6405006 151.4385017
  60.4679987  48.5675006 151.4385017  67.4609987  53.5575006 143.1495017
  68.4179987  53.5575006 143.1495017  67.2209987  54.4845006 143.1495017
  62.0159987  53.5185006 153.0165017  62.9729987  53.5185006 153.0165017
  61.7759987  54.4455006 153.0165017  73.4769987  38.5615006 139.4905017
  74.4339987  38.5615006 139.4905017  73.2369987  39.4885006 139.4905017
  61.4869987  47.3265006 141.4835017  62.4439987  47.3265006 141.4835017
  61.2469987  48.2535006 141.4835017  74.6099987  52.8885006 137.9775017
  75.5669987  52.8885006 137.9775017  74.3699987  53.8155006 137.9775017
  57.5619987  49.7515006 150.3895017  58.5189987  49.7515006 150.3895017
  57.3219987  50.6785006 150.3895017  57.3209987  52.4915006 147.1945017
  58.2779987  52.4915006 147.1945017  57.0809987  53.4185006 147.1945017
  75.5569987  53.1915006 152.8805017  76.5139987  53.1915006 152.8805017
  75.3169987  54.1185006 152.8805017  66.5139987  52.7355006 151.7445017
  67.4709987  52.7355006 151.7445017  66.2739987  53.6625006 151.7445017
  66.9329987  56.4825006 141.5275017  67.8899987  56.4825006 141.5275017
  66.6929987  57.4095006 141.5275017  60.5889987  55.3485006 143.3595017
  61.5459987  55.3485006 143.3595017  60.3489987  56.2755006 143.3595017
  69.9479987  55.7065006 138.5225017  70.9049987  55.7065006 138.5225017
  69.7079987  56.6335006 138.5225017  69.6929987  55.6245006 141.3105017
  70.6499987  55.6245006 141.3105017  69.4529987  56.5515006 141.3105017
  72.6409987  44.6415006 153.4095017  73.5979987  44.6415006 153.4095017
  72.4009987  45.5685006 153.4095017  59.8369987  51.0705006 151.3555017
  60.7939987  51.0705006 151.3555017  59.5969987  51.9975006 151.3555017
  62.5059987  39.5325006 147.3205017  63.4629987  39.5325006 147.3205017
  62.2659987  40.4595006 147.3205017  67.1519987  39.2235006 150.6855017
  68.1089987  39.2235006 150.6855017  66.9119987  40.1505006 150.6855017
  70.4679987  43.0485006 151.5805017  71.4249987  43.0485006 151.5805017
  70.2279987  43.9755006 151.5805017  71.3669987  47.9305006 137.8395017
  72.3239987  47.9305006 137.8395017  71.1269987  48.8575006 137.8395017
  66.8029987  41.7695006 138.0105017  67.7599987  41.7695006 138.0105017
  66.5629987  42.6965006 138.0105017  62.6069987  44.5015006 148.5295017
  63.5639987  44.5015006 148.5295017  62.3669987  45.4285006 148.5295017
  62.5699987  44.6615006 143.4125017  63.5269987  44.6615006 143.4125017
  62.3299987  45.5885006 143.4125017  68.0769987  45.1195006 142.1615017
  69.0339987  45.1195006 142.1615017  67.8369987  46.0465006 142.1615017
  67.1709987  45.3345006 153.6435017  68.1279987  45.3345006 153.6435017
  66.9309987  46.2615006 153.6435017  69.1209987  44.6105006 145.0305017
  70.0779987  44.6105006 145.0305017  68.8809987  45.5375006 145.0305017
  60.2549987  44.7855006 150.2615017  61.2119987  44.7855006 150.2615017
  60.0149987  45.7125006 150.2615017  63.6789987  42.1495006 137.2695017
  64.6359987  42.1495006 137.2695017  63.4389987  43.0765006 137.2695017
  56.8909987  41.8885006 144.2005017  57.8479987  41.8885006 144.2005017
  56.6509987  42.8155006 144.2005017  58.1589987  42.6025006 139.5495017
  59.1159987  42.6025006 139.5495017  57.9189987  43.5295006 139.5495017
  68.3379987  46.2155006 149.6175017  69.2949987  46.2155006 149.6175017
  68.0979987  47.1425006 149.6175017  65.1349987  42.1695006 144.4305017
  66.0919987  42.1695006 144.4305017  64.8949987  43.0965006 144.4305017
  59.9499987  43.7475006 143.2955017  60.9069987  43.7475006 143.2955017
  59.7099987  44.6745006 143.2955017  63.5869987  43.8015006 140.9445017
  64.5439987  43.8015006 140.9445017  63.3469987  44.7285006 140.9445017
  69.5389987  41.4085006 147.6835017  70.4959987  41.4085006 147.6835017
  69.2989987  42.3355006 147.6835017  62.2909987  44.9385006 138.5175017
  63.2479987  44.9385006 138.5175017  62.0509987  45.8655006 138.5175017
  72.7549987  57.0585006 153.9965017  73.7119987  57.0585006 153.9965017
  72.5149987  57.9855006 153.9965017  60.4229987  49.5275006 153.5665017
  61.3799987  49.5275006 153.5665017  60.1829987  50.4545006 153.5665017
  66.4219987  44.9375006 146.3265017  67.3789987  44.9375006 146.3265017
  66.1819987  45.8645006 146.3265017  61.4329987  41.0875006 142.7595017
  62.3899987  41.0875006 142.7595017  61.1929987  42.0145006 142.7595017
  65.0619987  43.2765006 148.7395017  66.0189987  43.2765006 148.7395017
  64.8219987  44.2035006 148.7395017  65.6519987  49.5025006 140.4285017
  66.6089987  49.5025006 140.4285017  65.4119987  50.4295006 140.4285017
  72.8109987  48.6775006 149.2385017  73.7679987  48.6775006 149.2385017
  72.5709987  49.6045006 149.2385017  69.5049987  42.3305006 138.5645017
  70.4619987  42.3305006 138.5645017  69.2649987  43.2575006 138.5645017
  67.1359987  49.7425006 151.6735017  68.0929987  49.7425006 151.6735017
  66.8959987  50.6695006 151.6735017  70.2149987  44.2005006 140.2815017
  71.1719987  44.2005006 140.2815017  69.9749987  45.1275006 140.2815017
  60.7509987  48.8705006 146.2315017  61.7079987  48.8705006 146.2315017
  60.5109987  49.7975006 146.2315017  67.7459987  50.9525006 139.4555017
  68.7029987  50.9525006 139.4555017  67.5059987  51.8795006 139.4555017
  57.7439987  47.2935006 151.5015017  58.7009987  47.2935006 151.5015017
  57.5039987  48.2205006 151.5015017  64.7569987  46.8455006 153.6945017
  65.7139987  46.8455006 153.6945017  64.5169987  47.7725006 153.6945017
  69.4279987  52.1775006 151.6165017  70.3849987  52.1775006 151.6165017
  69.1879987  53.1045006 151.6165017  75.1389987  44.3825006 140.0465017
  76.0959987  44.3825006 140.0465017  74.8989987  45.3095006 140.0465017
  75.0949987  50.2285006 152.8345017  76.0519987  50.2285006 152.8345017
  74.8549987  51.1555006 152.8345017  73.4629987  53.1695006 140.4365017
  74.4199987  53.1695006 140.4365017  73.2229987  54.0965006 140.4365017
  70.6019987  48.0135006 147.5115017  71.5589987  48.0135006 147.5115017
  70.3619987  48.9405006 147.5115017  63.1259987  52.3375006 143.6165017
  64.0829987  52.3375006 143.6165017  62.8859987  53.2645006 143.6165017
  58.8199987  47.2325006 138.1925017  59.7769987  47.2325006 138.1925017
  58.5799987  48.1595006 138.1925017  64.5489987  50.0015006 143.1415017
  65.5059987  50.0015006 143.1415017  64.3089987  50.9285006 143.1415017
  65.0039987  54.1795006 149.5335017  65.9609987  54.1795006 149.5335017
  64.7639987  55.1065006 149.5335017  63.2209987  55.0045006 142.6955017
  64.1779987  55.0045006 142.6955017  62.9809987  55.9315006 142.6955017
  68.5459987  50.2095006 149.1755017  69.5029987  50.2095006 149.1755017
  68.3059987  51.1365006 149.1755017  70.7979987  51.2375006 138.2615017
  71.7549987  51.2375006 138.2615017  70.5579987  52.1645006 138.2615017
  71.3129987  54.7795006 151.6685017  72.2699987  54.7795006 151.6685017
  71.0729987  55.7065006 151.6685017  75.3249987  55.6295006 138.5375017
  76.2819987  55.6295006 138.5375017  75.0849987  56.5565006 138.5375017
  59.3949987  42.0295006 151.0505017  60.3519987  42.0295006 151.0505017
  59.1549987  42.9565006 151.0505017  71.6419987  49.8765006 140.4955017
  72.5989987  49.8765006 140.4955017  71.4019987  50.8035006 140.4955017
  59.0159987  53.8215006 149.4805017  59.9729987  53.8215006 149.4805017
  58.7759987  54.7485006 149.4805017  65.0599987  52.3105006 136.7895017
  66.0169987  52.3105006 136.7895017  64.8199987  53.2375006 136.7895017
  63.7849987  51.8685006 139.1815017  64.7419987  51.8685006 139.1815017
  63.5449987  52.7955006 139.1815017  60.2749987  49.1085006 139.6175017
  61.2319987  49.1085006 139.6175017  60.0349987  50.0355006 139.6175017
  68.1229987  41.7985006 149.9895017  69.0799987  41.7985006 149.9895017
  67.8829987  42.7255006 149.9895017  68.8639987  41.4055006 141.0845017
  69.8209987  41.4055006 141.0845017  68.6239987  42.3325006 141.0845017
  66.5629987  53.5395006 139.9515017  67.5199987  53.5395006 139.9515017
  66.3229987  54.4665006 139.9515017  66.0949987  43.1355006 141.8965017
  67.0519987  43.1355006 141.8965017  65.8549987  44.0625006 141.8965017
  66.6499987  44.1435006 151.0945017  67.6069987  44.1435006 151.0945017
  66.4099987  45.0705006 151.0945017  66.9559987  40.1805006 142.8005017
  67.9129987  40.1805006 142.8005017  66.7159987  41.1075006 142.8005017
  63.9349987  54.5735006 139.9255017  64.8919987  54.5735006 139.9255017
  63.6949987  55.5005006 139.9255017  62.5849987  41.3015006 139.5205017
  63.5419987  41.3015006 139.5205017  62.3449987  42.2285006 139.5205017
  72.8449987  42.0225006 151.9585017  73.8019987  42.0225006 151.9585017
  72.6049987  42.9495006 151.9585017  71.4439987  45.8045006 145.9735017
  72.4009987  45.8045006 145.9735017  71.2039987  46.7315006 145.9735017
  60.8909987  51.6585006 138.6015017  61.8479987  51.6585006 138.6015017
  60.6509987  52.5855006 138.6015017  59.2289987  44.4155006 137.6795017
  60.1859987  44.4155006 137.6795017  58.9889987  45.3425006 137.6795017
  72.5109987  55.0515006 147.6355017  73.4679987  55.0515006 147.6355017
  72.2709987  55.9785006 147.6355017  60.0089987  39.1825006 146.4175017
  60.9659987  39.1825006 146.4175017  59.7689987  40.1095006 146.4175017
  58.9579987  53.0955006 142.5475017  59.9149987  53.0955006 142.5475017
  58.7179987  54.0225006 142.5475017  58.1689987  55.7285006 153.8605017
  59.1259987  55.7285006 153.8605017  57.9289987  56.6555006 153.8605017
  62.8389987  54.6725006 155.4825017  63.7959987  54.6725006 155.4825017
  62.5989987  55.5995006 155.4825017  67.1449987  53.7935006 137.3685017
  68.1019987  53.7935006 137.3685017  66.9049987  54.7205006 137.3685017
  69.3699987  53.0505006 154.2135017  70.3269987  53.0505006 154.2135017
  69.1299987  53.9775006 154.2135017  71.3389987  53.8895006 137.2615017
  72.2959987  53.8895006 137.2615017  71.0989987  54.8165006 137.2615017
  58.1029987  49.5365006 154.8515017  59.0599987  49.5365006 154.8515017
  57.8629987  50.4635006 154.8515017  62.5739987  49.8815006 137.0315017
  63.5309987  49.8815006 137.0315017  62.3339987  50.8085006 137.0315017
  64.7999987  49.5145006 154.2495017  65.7569987  49.5145006 154.2495017
  64.5599987  50.4415006 154.2495017  67.7779987  50.9395006 136.6555017
  68.7349987  50.9395006 136.6555017  67.5379987  51.8665006 136.6555017
  70.5029987  49.3835006 151.6375017  71.4599987  49.3835006 151.6375017
  70.2629987  50.3105006 151.6375017  58.9929987  46.7525006 154.2375017
  59.9499987  46.7525006 154.2375017  58.7529987  47.6795006 154.2375017
  63.5999987  47.8665006 139.2605017  64.5569987  47.8665006 139.2605017
  63.3599987  48.7935006 139.2605017  62.9059987  45.7105006 151.6045017
  63.8629987  45.7105006 151.6045017  62.6659987  46.6375006 151.6045017
  64.7299987  45.7985006 137.8015017  65.6869987  45.7985006 137.8015017
  64.4899987  46.7255006 137.8015017  67.9659987  48.2465006 154.9155017
  68.9229987  48.2465006 154.9155017  67.7259987  49.1735006 154.9155017
  74.1809987  48.6465006 137.2935017  75.1379987  48.6465006 137.2935017
  73.9409987  49.5735006 137.2935017  63.2989987  43.0845006 152.6715017
  64.2559987  43.0845006 152.6715017  63.0589987  44.0115006 152.6715017
  63.6989987  41.4605006 150.2045017  64.6559987  41.4605006 150.2045017
  63.4589987  42.3875006 150.2045017  65.2489987  46.9305006 150.4515017
  66.2059987  46.9305006 150.4515017  65.0089987  47.8575006 150.4515017
  69.5479987  44.7495006 155.3585017  70.5049987  44.7495006 155.3585017
  69.3079987  45.6765006 155.3585017  70.9759987  47.4915006 153.5785017
  71.9329987  47.4915006 153.5785017  70.7359987  48.4185006 153.5785017
  61.7579987  44.3265006 154.5855017  62.7149987  44.3265006 154.5855017
  61.5179987  45.2535006 154.5855017  64.4929987  38.8995006 150.6115017
  65.4499987  38.8995006 150.6115017  64.2529987  39.8265006 150.6115017
  65.7649987  43.2295006 154.2085017  66.7219987  43.2295006 154.2085017
  65.5249987  44.1565006 154.2085017  68.4949987  42.3885006 153.3135017
  69.4519987  42.3885006 153.3135017  68.2549987  43.3155006 153.3135017
  70.1139987  41.0135006 155.2465017  71.0709987  41.0135006 155.2465017
  69.8739987  41.9405006 155.2465017  59.8539987  42.2525006 154.3185017
  60.8109987  42.2525006 154.3185017  59.6139987  43.1795006 154.3185017
  64.7049987  38.2655006 153.3055017  65.6619987  38.2655006 153.3055017
  64.4649987  39.1925006 153.3055017  65.0689987  39.9155006 155.3785017
  66.0259987  39.9155006 155.3785017  64.8289987  40.8425006 155.3785017
  64.5539987  56.8205006 138.5745017  65.5109987  56.8205006 138.5745017
  64.3139987  57.7475006 138.5745017  58.1119987  51.3285006 138.1335017
  59.0689987  51.3285006 138.1335017  57.8719987  52.2555006 138.1335017
  56.8679987  56.7875006 143.0325017  57.8249987  56.7875006 143.0325017
  56.6279987  57.7145006 143.0325017  57.6959987  54.9055006 144.8835017
  58.6529987  54.9055006 144.8835017  57.4559987  55.8325006 144.8835017
  75.2299987  55.7035006 147.8355017  76.1869987  55.7035006 147.8355017
  74.9899987  56.6305006 147.8355017  74.8059987  55.3005006 150.7785017
  75.7629987  55.3005006 150.7785017  74.5659987  56.2275006 150.7785017
  73.2509987  51.0315006 155.4345017  74.2079987  51.0315006 155.4345017
  73.0109987  51.9585006 155.4345017  74.4919987  49.3445006 140.9485017
  75.4489987  49.3445006 140.9485017  74.2519987  50.2715006 140.9485017
  74.9409987  47.4295006 142.7485017  75.8979987  47.4295006 142.7485017
  74.7009987  48.3565006 142.7485017  74.6869987  50.1295006 147.7405017
  75.6439987  50.1295006 147.7405017  74.4469987  51.0565006 147.7405017
  73.2339987  53.0275006 150.0205017  74.1909987  53.0275006 150.0205017
  72.9939987  53.9545006 150.0205017  75.1829987  47.1575006 139.1635017
  76.1399987  47.1575006 139.1635017  74.9429987  48.0845006 139.1635017
  73.6919987  44.4215006 137.9085017  74.6489987  44.4215006 137.9085017
  73.4519987  45.3485006 137.9085017  72.7469987  45.9005006 143.3225017
  73.7039987  45.9005006 143.3225017  72.5069987  46.8275006 143.3225017
  57.7499987  47.9825006 147.3765017  58.7069987  47.9825006 147.3765017
  57.5099987  48.9095006 147.3765017  73.5909987  47.8575006 153.0185017
  74.5479987  47.8575006 153.0185017  73.3509987  48.7845006 153.0185017
  75.0919987  45.7505006 153.6915017  76.0489987  45.7505006 153.6915017
  74.8519987  46.6775006 153.6915017  72.7729987  41.9745006 136.9715017
  73.7299987  41.9745006 136.9715017  72.5329987  42.9015006 136.9715017
  72.4119987  43.4895006 141.7885017  73.3689987  43.4895006 141.7885017
  72.1719987  44.4165006 141.7885017  73.0499987  44.0275006 147.2255017
  74.0069987  44.0275006 147.2255017  72.8099987  44.9545006 147.2255017
  73.1189987  44.7555006 150.0155017  74.0759987  44.7555006 150.0155017
  72.8789987  45.6825006 150.0155017  57.3619987  43.2815006 153.5225017
  58.3189987  43.2815006 153.5225017  57.1219987  44.2085006 153.5225017
  75.3839987  38.8035006 155.3645017  76.3409987  38.8035006 155.3645017
  75.1439987  39.7305006 155.3645017  73.0769987  40.7605006 141.8355017
  74.0339987  40.7605006 141.8355017  72.8369987  41.6875006 141.8355017
  58.5689987  41.5715006 146.3805017  59.5259987  41.5715006 146.3805017
  58.3289987  42.4985006 146.3805017  56.8559987  44.5645006 147.4335017
  57.8129987  44.5645006 147.4335017  56.6159987  45.4915006 147.4335017
  74.9029987  40.9125006 153.7225017  75.8599987  40.9125006 153.7225017
  74.6629987  41.8395006 153.7225017  74.9719987  40.7355006 138.5885017
  75.9289987  40.7355006 138.5885017  74.7319987  41.6625006 138.5885017
  57.2179987  40.8305006 141.5075017  58.1749987  40.8305006 141.5075017
  56.9779987  41.7575006 141.5075017  71.9579987  55.7825006 143.4475017
  72.9149987  55.7825006 143.4475017  71.7179987  56.7095006 143.4475017
  57.1689987  39.5075006 149.8045017  58.1259987  39.5075006 149.8045017
  56.9289987  40.4345006 149.8045017  59.3939987  52.6915006 153.9655017
  60.3509987  52.6915006 153.9655017  59.1539987  53.6185006 153.9655017
  62.3069987  53.6755006 150.2245017  63.2639987  53.6755006 150.2245017
  62.0669987  54.6025006 150.2245017  66.6239987  55.1155006 153.1565017
  67.5809987  55.1155006 153.1565017  66.3839987  56.0425006 153.1565017
  68.9229987  56.3845006 152.4455017  69.8799987  56.3845006 152.4455017
  68.6829987  57.3115006 152.4455017  73.9239987  38.9985006 151.5505017
  74.8809987  38.9985006 151.5505017  73.6839987  39.9255006 151.5505017
  59.7149987  56.9205006 150.2195017  60.6719987  56.9205006 150.2195017
  59.4749987  57.8475006 150.2195017  62.2019987  56.5175006 149.3115017
  63.1589987  56.5175006 149.3115017  61.9619987  57.4445006 149.3115017
  66.9039987  56.4255006 148.4805017  67.8609987  56.4255006 148.4805017
  66.6639987  57.3525006 148.4805017  69.2099987  55.2585006 149.4785017
  70.1669987  55.2585006 149.4785017  68.9699987  56.1855006 149.4785017
  71.7899987  56.8245006 149.7365017  72.7469987  56.8245006 149.7365017
  71.5499987  57.7515006 149.7365017  59.1649987  55.5835006 147.1825017
  60.1219987  55.5835006 147.1825017  58.9249987  56.5105006 147.1825017
  61.2609987  54.2975006 145.8325017  62.2179987  54.2975006 145.8325017
  61.0209987  55.2245006 145.8325017  63.8489987  54.7805006 146.7035017
  64.8059987  54.7805006 146.7035017  63.6089987  55.7075006 146.7035017
  67.3179987  40.4315006 145.8435017  68.2749987  40.4315006 145.8435017
  67.0779987  41.3585006 145.8435017  72.4559987  38.4895006 145.9325017
  73.4129987  38.4895006 145.9325017  72.2159987  39.4165006 145.9325017
  74.1409987  39.7005006 144.2355017  75.0979987  39.7005006 144.2355017
  73.9009987  40.6275006 144.2355017  59.6789987  39.0655006 143.6855017
  60.6359987  39.0655006 143.6855017  59.4389987  39.9925006 143.6855017
  58.4529987  38.8185006 139.3995017  59.4099987  38.8185006 139.3995017
  58.2129987  39.7455006 139.3995017  64.2119987  38.9145006 143.4675017
  65.1689987  38.9145006 143.4675017  63.9719987  39.8415006 143.4675017
  69.8489987  39.0025006 145.1155017  70.8059987  39.0025006 145.1155017
  69.6089987  39.9295006 145.1155017  71.1519987  39.0355006 140.7505017
  72.1089987  39.0355006 140.7505017  70.9119987  39.9625006 140.7505017
  58.4179987  54.7805006 140.3715017  59.3749987  54.7805006 140.3715017
  58.1779987  55.7075006 140.3715017  60.3009987  40.7865006 137.9295017
  61.2579987  40.7865006 137.9295017  60.0609987  41.7135006 137.9295017
  65.3339987  41.0045006 140.3465017  66.2909987  41.0045006 140.3465017
  65.0939987  41.9315006 140.3465017  67.2269987  56.1215006 138.7475017
  68.1839987  56.1215006 138.7475017  66.9869987  57.0485006 138.7475017
  73.9669987  55.5815006 141.4815017  74.9239987  55.5815006 141.4815017
  73.7269987  56.5085006 141.4815017  59.5799987  39.5935006 153.1495017
  60.5369987  39.5935006 153.1495017  59.3399987  40.5205006 153.1495017
  61.5839987  38.9675006 154.7625017  62.5409987  38.9675006 154.7625017
  61.3439987  39.8945006 154.7625017  60.3279987  55.8095006 137.4755017
  61.2849987  55.8095006 137.4755017  60.0879987  56.7365006 137.4755017
  70.0009987  38.2875006 154.9325017  70.9579987  38.2875006 154.9325017
  69.7609987  39.2145006 154.9325017  73.1929987  54.3125006 153.5805017
  74.1499987  54.3125006 153.5805017  72.9529987  55.2395006 153.5805017
  87.6219987  48.2025006 143.5895017  88.5789987  48.2025006 143.5895017
  87.3819987  49.1295006 143.5895017  86.4889987  47.4605006 147.0615017
  87.4459987  47.4605006 147.0615017  86.2489987  48.3875006 147.0615017
  78.8519987  47.1135006 148.6095017  79.8089987  47.1135006 148.6095017
  78.6119987  48.0405006 148.6095017  90.1949987  50.4015006 145.3305017
  91.1519987  50.4015006 145.3305017  89.9549987  51.3285006 145.3305017
  79.7789987  51.5645006 147.1315017  80.7359987  51.5645006 147.1315017
  79.5389987  52.4915006 147.1315017  76.4379987  45.1565006 142.5605017
  77.3949987  45.1565006 142.5605017  76.1979987  46.0835006 142.5605017
  77.1109987  47.3565006 144.7005017  78.0679987  47.3565006 144.7005017
  76.8709987  48.2835006 144.7005017  87.3139987  55.5625006 145.5715017
  88.2709987  55.5625006 145.5715017  87.0739987  56.4895006 145.5715017
  84.8719987  49.8675006 147.4975017  85.8289987  49.8675006 147.4975017
  84.6319987  50.7945006 147.4975017  93.4919987  41.5005006 148.2665017
  94.4489987  41.5005006 148.2665017  93.2519987  42.4275006 148.2665017
  88.0369987  44.3205006 147.8235017  88.9939987  44.3205006 147.8235017
  87.7969987  45.2475006 147.8235017  81.1609987  42.4065006 145.0575017
  82.1179987  42.4065006 145.0575017  80.9209987  43.3335006 145.0575017
  88.8909987  42.4965006 143.4255017  89.8479987  42.4965006 143.4255017
  88.6509987  43.4235006 143.4255017  77.7819987  44.8145006 145.7955017
  78.7389987  44.8145006 145.7955017  77.5419987  45.7415006 145.7955017
  82.9459987  46.3715006 145.0815017  83.9029987  46.3715006 145.0815017
  82.7059987  47.2985006 145.0815017  93.9259987  42.9335006 150.5255017
  94.8829987  42.9335006 150.5255017  93.6859987  43.8605006 150.5255017
  80.0459987  41.3055006 149.1015017  81.0029987  41.3055006 149.1015017
  79.8059987  42.2325006 149.1015017  87.3869987  50.8115006 142.6195017
  88.3439987  50.8115006 142.6195017  87.1469987  51.7385006 142.6195017
  82.5779987  48.9555006 149.3555017  83.5349987  48.9555006 149.3555017
  82.3379987  49.8825006 149.3555017  90.6859987  41.8315006 145.4195017
  91.6429987  41.8315006 145.4195017  90.4459987  42.7585006 145.4195017
  79.6079987  43.1755006 147.1095017  80.5649987  43.1755006 147.1095017
  79.3679987  44.1025006 147.1095017  81.0149987  50.9435006 150.1655017
  81.9719987  50.9435006 150.1655017  80.7749987  51.8705006 150.1655017
  77.2309987  50.7605006 141.0805017  78.1879987  50.7605006 141.0805017
  76.9909987  51.6875006 141.0805017  90.7179987  52.2335006 147.7005017
  91.6749987  52.2335006 147.7005017  90.4779987  53.1605006 147.7005017
  91.0339987  40.5245006 149.0995017  91.9909987  40.5245006 149.0995017
  90.7939987  41.4515006 149.0995017  84.0149987  38.6355006 146.5595017
  84.9719987  38.6355006 146.5595017  83.7749987  39.5625006 146.5595017
  88.9599987  54.0335006 144.2805017  89.9169987  54.0335006 144.2805017
  88.7199987  54.9605006 144.2805017  90.1689987  51.9525006 142.7985017
  91.1259987  51.9525006 142.7985017  89.9289987  52.8795006 142.7985017
  91.8079987  50.5275006 151.3075017  92.7649987  50.5275006 151.3075017
  91.5679987  51.4545006 151.3075017  86.2999987  47.4395006 141.0815017
  87.2569987  47.4395006 141.0815017  86.0599987  48.3665006 141.0815017
  86.3589987  45.9965006 138.3345017  87.3159987  45.9965006 138.3345017
  86.1189987  46.9235006 138.3345017  93.6839987  46.8415006 149.3605017
  94.6409987  46.8415006 149.3605017  93.4439987  47.7685006 149.3605017
  89.7299987  47.6575006 142.0125017  90.6869987  47.6575006 142.0125017
  89.4899987  48.5845006 142.0125017  89.6599987  45.8095006 151.1055017
  90.6169987  45.8095006 151.1055017  89.4199987  46.7365006 151.1055017
  81.3619987  48.3125006 143.9095017  82.3189987  48.3125006 143.9095017
  81.1219987  49.2395006 143.9095017  82.6849987  51.7085006 146.5885017
  83.6419987  51.7085006 146.5885017  82.4449987  52.6355006 146.5885017
  81.6919987  47.0495006 147.5585017  82.6489987  47.0495006 147.5585017
  81.4519987  47.9765006 147.5585017  88.0779987  52.6115006 148.2655017
  89.0349987  52.6115006 148.2655017  87.8379987  53.5385006 148.2655017
  82.6299987  51.4725006 152.2625017  83.5869987  51.4725006 152.2625017
  82.3899987  52.3995006 152.2625017  88.5909987  46.8195006 139.6725017
  89.5479987  46.8195006 139.6725017  88.3509987  47.7465006 139.6725017
  79.5639987  47.6395006 151.4385017  80.5209987  47.6395006 151.4385017
  79.3239987  48.5665006 151.4385017  86.3479987  53.5725006 143.1255017
  87.3049987  53.5725006 143.1255017  86.1079987  54.4995006 143.1255017
  80.8709987  53.5235006 153.0165017  81.8279987  53.5235006 153.0165017
  80.6309987  54.4505006 153.0165017  92.3319987  38.5625006 139.4915017
  93.2889987  38.5625006 139.4915017  92.0919987  39.4895006 139.4915017
  80.3159987  47.3465006 141.5285017  81.2729987  47.3465006 141.5285017
  80.0759987  48.2735006 141.5285017  93.4439987  52.9075006 137.9805017
  94.4009987  52.9075006 137.9805017  93.2039987  53.8345006 137.9805017
  76.4179987  49.7515006 150.3895017  77.3749987  49.7515006 150.3895017
  76.1779987  50.6785006 150.3895017  76.1759987  52.4945006 147.1905017
  77.1329987  52.4945006 147.1905017  75.9359987  53.4215006 147.1905017
  94.4129987  53.1905006 152.8795017  95.3699987  53.1905006 152.8795017
  94.1729987  54.1175006 152.8795017  85.3699987  52.7355006 151.7445017
  86.3269987  52.7355006 151.7445017  85.1299987  53.6625006 151.7445017
  85.8239987  56.5005006 141.5275017  86.7809987  56.5005006 141.5275017
  85.5839987  57.4275006 141.5275017  79.4449987  55.3405006 143.3545017
  80.4019987  55.3405006 143.3545017  79.2049987  56.2675006 143.3545017
  88.7719987  55.7805006 138.4735017  89.7289987  55.7805006 138.4735017
  88.5319987  56.7075006 138.4735017  88.5539987  55.5905006 141.2885017
  89.5109987  55.5905006 141.2885017  88.3139987  56.5175006 141.2885017
  91.5529987  44.6655006 153.3615017  92.5099987  44.6655006 153.3615017
  91.3129987  45.5925006 153.3615017  78.6919987  51.0705006 151.3555017
  79.6489987  51.0705006 151.3555017  78.4519987  51.9975006 151.3555017
  81.3619987  39.5315006 147.3205017  82.3189987  39.5315006 147.3205017
  81.1219987  40.4585006 147.3205017  86.0079987  39.2225006 150.6855017
  86.9649987  39.2225006 150.6855017  85.7679987  40.1495006 150.6855017
  89.3089987  43.0395006 151.5735017  90.2659987  43.0395006 151.5735017
  89.0689987  43.9665006 151.5735017  90.2059987  47.9395006 137.8345017
  91.1629987  47.9395006 137.8345017  89.9659987  48.8665006 137.8345017
  85.6619987  41.7775006 138.0105017  86.6189987  41.7775006 138.0105017
  85.4219987  42.7045006 138.0105017  81.4629987  44.5015006 148.5295017
  82.4199987  44.5015006 148.5295017  81.2229987  45.4285006 148.5295017
  81.4259987  44.6615006 143.4105017  82.3829987  44.6615006 143.4105017
  81.1859987  45.5885006 143.4105017  86.9439987  45.1185006 142.1685017
  87.9009987  45.1185006 142.1685017  86.7039987  46.0455006 142.1685017
  86.0229987  45.3365006 153.6415017  86.9799987  45.3365006 153.6415017
  85.7829987  46.2635006 153.6415017  87.9769987  44.6105006 145.0305017
  88.9339987  44.6105006 145.0305017  87.7369987  45.5375006 145.0305017
  79.1099987  44.7855006 150.2615017  80.0669987  44.7855006 150.2615017
  78.8699987  45.7125006 150.2615017  82.5369987  42.1305006 137.2615017
  83.4939987  42.1305006 137.2615017  82.2969987  43.0575006 137.2615017
  75.7509987  41.8945006 144.2015017  76.7079987  41.8945006 144.2015017
  75.5109987  42.8215006 144.2015017  77.0129987  42.5935006 139.5485017
  77.9699987  42.5935006 139.5485017  76.7729987  43.5205006 139.5485017
  87.1929987  46.2155006 149.6165017  88.1499987  46.2155006 149.6165017
  86.9529987  47.1425006 149.6165017  83.9899987  42.1715006 144.4305017
  84.9469987  42.1715006 144.4305017  83.7499987  43.0985006 144.4305017
  78.8049987  43.7465006 143.2955017  79.7619987  43.7465006 143.2955017
  78.5649987  44.6735006 143.2955017  82.4459987  43.7995006 140.9485017
  83.4029987  43.7995006 140.9485017  82.2059987  44.7265006 140.9485017
  88.3939987  41.4095006 147.6825017  89.3509987  41.4095006 147.6825017
  88.1539987  42.3365006 147.6825017  81.1059987  44.9925006 138.4985017
  82.0629987  44.9925006 138.4985017  80.8659987  45.9195006 138.4985017
  91.6109987  57.0595006 153.9965017  92.5679987  57.0595006 153.9965017
  91.3709987  57.9865006 153.9965017  79.2809987  49.5245006 153.5675017
  80.2379987  49.5245006 153.5675017  79.0409987  50.4515006 153.5675017
  85.2789987  44.9375006 146.3265017  86.2359987  44.9375006 146.3265017
  85.0389987  45.8645006 146.3265017  80.2889987  41.0845006 142.7605017
  81.2459987  41.0845006 142.7605017  80.0489987  42.0115006 142.7605017
  83.9179987  43.2765006 148.7395017  84.8749987  43.2765006 148.7395017
  83.6779987  44.2035006 148.7395017  84.4989987  49.5025006 140.4255017
  85.4559987  49.5025006 140.4255017  84.2589987  50.4295006 140.4255017
  91.6669987  48.6785006 149.2375017  92.6239987  48.6785006 149.2375017
  91.4269987  49.6055006 149.2375017  88.3619987  42.3325006 138.5665017
  89.3189987  42.3325006 138.5665017  88.1219987  43.2595006 138.5665017
  85.9909987  49.7415006 151.6735017  86.9479987  49.7415006 151.6735017
  85.7509987  50.6685006 151.6735017  89.0709987  44.2005006 140.2815017
  90.0279987  44.2005006 140.2815017  88.8309987  45.1275006 140.2815017
  79.6149987  48.8685006 146.2475017  80.5719987  48.8685006 146.2475017
  79.3749987  49.7955006 146.2475017  86.6129987  50.9635006 139.4665017
  87.5699987  50.9635006 139.4665017  86.3729987  51.8905006 139.4665017
  76.5969987  47.2935006 151.5045017  77.5539987  47.2935006 151.5045017
  76.3569987  48.2205006 151.5045017  83.6129987  46.8455006 153.6945017
  84.5699987  46.8455006 153.6945017  83.3729987  47.7725006 153.6945017
  88.2839987  52.1775006 151.6165017  89.2409987  52.1775006 151.6165017
  88.0439987  53.1045006 151.6165017  93.9909987  44.3785006 140.0475017
  94.9479987  44.3785006 140.0475017  93.7509987  45.3055006 140.0475017
  93.9519987  50.2305006 152.8345017  94.9089987  50.2305006 152.8345017
  93.7119987  51.1575006 152.8345017  92.2339987  53.1825006 140.4045017
  93.1909987  53.1825006 140.4045017  91.9939987  54.1095006 140.4045017
  89.4579987  48.0135006 147.5115017  90.4149987  48.0135006 147.5115017
  89.2179987  48.9405006 147.5115017  81.9819987  52.3385006 143.6165017
  82.9389987  52.3385006 143.6165017  81.7419987  53.2655006 143.6165017
  77.7539987  47.1875006 138.1535017  78.7109987  47.1875006 138.1535017
  77.5139987  48.1145006 138.1535017  83.4059987  50.0015006 143.1415017
  84.3629987  50.0015006 143.1415017  83.1659987  50.9285006 143.1415017
  83.8589987  54.1765006 149.5335017  84.8159987  54.1765006 149.5335017
  83.6189987  55.1035006 149.5335017  82.0799987  55.0135006 142.6865017
  83.0369987  55.0135006 142.6865017  81.8399987  55.9405006 142.6865017
  87.4009987  50.2095006 149.1755017  88.3579987  50.2095006 149.1755017
  87.1609987  51.1365006 149.1755017  89.6539987  51.3055006 138.3225017
  90.6109987  51.3055006 138.3225017  89.4139987  52.2325006 138.3225017
  90.1689987  54.7795006 151.6685017  91.1259987  54.7795006 151.6685017
  89.9289987  55.7065006 151.6685017  94.1679987  55.6285006 138.5405017
  95.1249987  55.6285006 138.5405017  93.9279987  56.5555006 138.5405017
  78.2509987  42.0305006 151.0515017  79.2079987  42.0305006 151.0515017
  78.0109987  42.9575006 151.0515017  90.4979987  49.9135006 140.5155017
  91.4549987  49.9135006 140.5155017  90.2579987  50.8405006 140.5155017
  77.8729987  53.8235006 149.4815017  78.8299987  53.8235006 149.4815017
  77.6329987  54.7505006 149.4815017  83.9179987  52.3105006 136.7905017
  84.8749987  52.3105006 136.7905017  83.6779987  53.2375006 136.7905017
  82.6399987  51.8685006 139.1825017  83.5969987  51.8685006 139.1825017
  82.3999987  52.7955006 139.1825017  79.0919987  49.1315006 139.6205017
  80.0489987  49.1315006 139.6205017  78.8519987  50.0585006 139.6205017
  86.9769987  41.7955006 149.9895017  87.9339987  41.7955006 149.9895017
  86.7369987  42.7225006 149.9895017  87.7209987  41.4055006 141.0835017
  88.6779987  41.4055006 141.0835017  87.4809987  42.3325006 141.0835017
  85.4369987  53.5545006 139.9625017  86.3939987  53.5545006 139.9625017
  85.1969987  54.4815006 139.9625017  84.9519987  43.1365006 141.8975017
  85.9089987  43.1365006 141.8975017  84.7119987  44.0635006 141.8975017
  85.5059987  44.1435006 151.0945017  86.4629987  44.1435006 151.0945017
  85.2659987  45.0705006 151.0945017  85.8179987  40.1905006 142.8095017
  86.7749987  40.1905006 142.8095017  85.5779987  41.1175006 142.8095017
  82.7899987  54.5775006 139.9275017  83.7469987  54.5775006 139.9275017
  82.5499987  55.5045006 139.9275017  81.4519987  41.2795006 139.5365017
  82.4089987  41.2795006 139.5365017  81.2119987  42.2065006 139.5365017
  91.6999987  42.0205006 151.9425017  92.6569987  42.0205006 151.9425017
  91.4599987  42.9475006 151.9425017  90.2999987  45.8045006 145.9735017
  91.2569987  45.8045006 145.9735017  90.0599987  46.7315006 145.9735017
  79.7339987  51.6685006 138.6035017  80.6909987  51.6685006 138.6035017
  79.4939987  52.5955006 138.6035017  78.0609987  44.3885006 137.7245017
  79.0179987  44.3885006 137.7245017  77.8209987  45.3155006 137.7245017
  91.3669987  55.0505006 147.6395017  92.3239987  55.0505006 147.6395017
  91.1269987  55.9775006 147.6395017  78.8669987  39.1845006 146.4175017
  79.8239987  39.1845006 146.4175017  78.6269987  40.1115006 146.4175017
  77.7999987  53.0815006 142.5265017  78.7569987  53.0815006 142.5265017
  77.5599987  54.0085006 142.5265017  77.0389987  55.7525006 153.8665017
  77.9959987  55.7525006 153.8665017  76.7989987  56.6795006 153.8665017
  81.6949987  54.6685006 155.4805017  82.6519987  54.6685006 155.4805017
  81.4549987  55.5955006 155.4805017  86.0149987  53.7855006 137.3735017
  86.9719987  53.7855006 137.3735017  85.7749987  54.7125006 137.3735017
  88.2259987  53.0505006 154.2135017  89.1829987  53.0505006 154.2135017
  87.9859987  53.9775006 154.2135017  90.2119987  53.9035006 137.3015017
  91.1689987  53.9035006 137.3015017  89.9719987  54.8305006 137.3015017
  76.9579987  49.5345006 154.8525017  77.9149987  49.5345006 154.8525017
  76.7179987  50.4615006 154.8525017  81.4369987  49.8985006 137.0545017
  82.3939987  49.8985006 137.0545017  81.1969987  50.8255006 137.0545017
  83.6549987  49.5145006 154.2495017  84.6119987  49.5145006 154.2495017
  83.4149987  50.4415006 154.2495017  86.6569987  50.9445006 136.6675017
  87.6139987  50.9445006 136.6675017  86.4169987  51.8715006 136.6675017
  89.3589987  49.3845006 151.6355017  90.3159987  49.3845006 151.6355017
  89.1189987  50.3115006 151.6355017  77.8489987  46.7535006 154.2375017
  78.8059987  46.7535006 154.2375017  77.6089987  47.6805006 154.2375017
  82.4899987  47.8775006 139.2705017  83.4469987  47.8775006 139.2705017
  82.2499987  48.8045006 139.2705017  81.7619987  45.7105006 151.6035017
  82.7189987  45.7105006 151.6035017  81.5219987  46.6375006 151.6035017
  83.6049987  45.7965006 137.7995017  84.5619987  45.7965006 137.7995017
  83.3649987  46.7235006 137.7995017  86.8179987  48.2555006 154.9185017
  87.7749987  48.2555006 154.9185017  86.5779987  49.1825006 154.9185017
  92.9919987  48.6395006 137.2895017  93.9489987  48.6395006 137.2895017
  92.7519987  49.5665006 137.2895017  82.1469987  43.0845006 152.6725017
  83.1039987  43.0845006 152.6725017  81.9069987  44.0115006 152.6725017
  82.5549987  41.4615006 150.2045017  83.5119987  41.4615006 150.2045017
  82.3149987  42.3885006 150.2045017  84.1049987  46.9305006 150.4505017
  85.0619987  46.9305006 150.4505017  83.8649987  47.8575006 150.4505017
  88.5039987  44.7095006 155.4275017  89.4609987  44.7095006 155.4275017
  88.2639987  45.6365006 155.4275017  89.8309987  47.4895006 153.5615017
  90.7879987  47.4895006 153.5615017  89.5909987  48.4165006 153.5615017
  80.6139987  44.3275006 154.5855017  81.5709987  44.3275006 154.5855017
  80.3739987  45.2545006 154.5855017  83.3499987  38.9005006 150.6105017
  84.3069987  38.9005006 150.6105017  83.1099987  39.8275006 150.6105017
  84.6209987  43.2295006 154.2105017  85.5779987  43.2295006 154.2105017
  84.3809987  44.1565006 154.2105017  87.3379987  42.3655006 153.2865017
  88.2949987  42.3655006 153.2865017  87.0979987  43.2925006 153.2865017
  88.9339987  40.9955006 155.2265017  89.8909987  40.9955006 155.2265017
  88.6939987  41.9225006 155.2265017  78.7259987  42.2495006 154.3155017
  79.6829987  42.2495006 154.3155017  78.4859987  43.1765006 154.3155017
  83.5599987  38.2685006 153.3025017  84.5169987  38.2685006 153.3025017
  83.3199987  39.1955006 153.3025017  83.9269987  39.9025006 155.3915017
  84.8839987  39.9025006 155.3915017  83.6869987  40.8295006 155.3915017
  83.4119987  56.8525006 138.5965017  84.3689987  56.8525006 138.5965017
  83.1719987  57.7795006 138.5965017  76.9809987  51.2675006 138.1655017
  77.9379987  51.2675006 138.1655017  76.7409987  52.1945006 138.1655017
  75.7329987  56.7915006 143.0295017  76.6899987  56.7915006 143.0295017
  75.4929987  57.7185006 143.0295017  76.5519987  54.9055006 144.8835017
  77.5089987  54.9055006 144.8835017  76.3119987  55.8325006 144.8835017
  94.0859987  55.7035006 147.8355017  95.0429987  55.7035006 147.8355017
  93.8459987  56.6305006 147.8355017  93.6659987  55.2975006 150.7825017
  94.6229987  55.2975006 150.7825017  93.4259987  56.2245006 150.7825017
  92.1069987  51.0315006 155.4345017  93.0639987  51.0315006 155.4345017
  91.8669987  51.9585006 155.4345017  93.4099987  49.3655006 140.8955017
  94.3669987  49.3655006 140.8955017  93.1699987  50.2925006 140.8955017
  93.7779987  47.4195006 142.7515017  94.7349987  47.4195006 142.7515017
  93.5379987  48.3465006 142.7515017  93.5439987  50.1295006 147.7405017
  94.5009987  50.1295006 147.7405017  93.3039987  51.0565006 147.7405017
  92.0899987  53.0305006 150.0185017  93.0469987  53.0305006 150.0185017
  91.8499987  53.9575006 150.0185017  94.0979987  47.2335006 139.1845017
  95.0549987  47.2335006 139.1845017  93.8579987  48.1605006 139.1845017
  92.5479987  44.4105006 137.9065017  93.5049987  44.4105006 137.9065017
  92.3079987  45.3375006 137.9065017  91.6009987  45.9005006 143.3225017
  92.5579987  45.9005006 143.3225017  91.3609987  46.8275006 143.3225017
  76.6069987  47.9815006 147.3745017  77.5639987  47.9815006 147.3745017
  76.3669987  48.9085006 147.3745017  92.4529987  47.8675006 153.0005017
  93.4099987  47.8675006 153.0005017  92.2129987  48.7945006 153.0005017
  93.9609987  45.7605006 153.6655017  94.9179987  45.7605006 153.6655017
  93.7209987  46.6875006 153.6655017  91.6279987  41.9735006 136.9715017
  92.5849987  41.9735006 136.9715017  91.3879987  42.9005006 136.9715017
  91.2679987  43.4885006 141.7885017  92.2249987  43.4885006 141.7885017
  91.0279987  44.4155006 141.7885017  91.9049987  44.0295006 147.2265017
  92.8619987  44.0295006 147.2265017  91.6649987  44.9565006 147.2265017
  91.9769987  44.7555006 150.0135017  92.9339987  44.7555006 150.0135017
  91.7369987  45.6825006 150.0135017  76.2089987  43.2865006 153.5375017
  77.1659987  43.2865006 153.5375017  75.9689987  44.2135006 153.5375017
  94.2369987  38.7955006 155.3615017  95.1939987  38.7955006 155.3615017
  93.9969987  39.7225006 155.3615017  91.9339987  40.7625006 141.8375017
  92.8909987  40.7625006 141.8375017  91.6939987  41.6895006 141.8375017
  77.4229987  41.5715006 146.3825017  78.3799987  41.5715006 146.3825017
  77.1829987  42.4985006 146.3825017  75.7119987  44.5645006 147.4325017
  76.6689987  44.5645006 147.4325017  75.4719987  45.4915006 147.4325017
  93.7669987  40.9025006 153.7135017  94.7239987  40.9025006 153.7135017
  93.5269987  41.8295006 153.7135017  93.8279987  40.7345006 138.5885017
  94.7849987  40.7345006 138.5885017  93.5879987  41.6615006 138.5885017
  76.0759987  40.8315006 141.5065017  77.0329987  40.8315006 141.5065017
  75.8359987  41.7585006 141.5065017  90.7989987  55.8305006 143.4195017
  91.7559987  55.8305006 143.4195017  90.5589987  56.7575006 143.4195017
  76.0289987  39.5105006 149.8095017  76.9859987  39.5105006 149.8095017
  75.7889987  40.4375006 149.8095017  78.2499987  52.6955006 153.9665017
  79.2069987  52.6955006 153.9665017  78.0099987  53.6225006 153.9665017
  81.1609987  53.6905006 150.2415017  82.1179987  53.6905006 150.2415017
  80.9209987  54.6175006 150.2415017  85.4809987  55.1155006 153.1565017
  86.4379987  55.1155006 153.1565017  85.2409987  56.0425006 153.1565017
  87.7789987  56.3855006 152.4455017  88.7359987  56.3855006 152.4455017
  87.5389987  57.3125006 152.4455017  92.7799987  38.9985006 151.5495017
  93.7369987  38.9985006 151.5495017  92.5399987  39.9255006 151.5495017
  78.5869987  56.9375006 150.2495017  79.5439987  56.9375006 150.2495017
  78.3469987  57.8645006 150.2495017  81.0579987  56.5205006 149.3115017
  82.0149987  56.5205006 149.3115017  80.8179987  57.4475006 149.3115017
  85.7589987  56.4255006 148.4825017  86.7159987  56.4255006 148.4825017
  85.5189987  57.3525006 148.4825017  88.0649987  55.2585006 149.4785017
  89.0219987  55.2585006 149.4785017  87.8249987  56.1855006 149.4785017
  90.6349987  56.8205006 149.7285017  91.5919987  56.8205006 149.7285017
  90.3949987  57.7475006 149.7285017  78.0209987  55.5855006 147.1795017
  78.9779987  55.5855006 147.1795017  77.7809987  56.5125006 147.1795017
  80.1149987  54.2925006 145.8245017  81.0719987  54.2925006 145.8245017
  79.8749987  55.2195006 145.8245017  82.7049987  54.7795006 146.7055017
  83.6619987  54.7795006 146.7055017  82.4649987  55.7065006 146.7055017
  86.1769987  40.4335006 145.8445017  87.1339987  40.4335006 145.8445017
  85.9369987  41.3605006 145.8445017  91.3119987  38.4895006 145.9325017
  92.2689987  38.4895006 145.9325017  91.0719987  39.4165006 145.9325017
  92.9969987  39.7005006 144.2355017  93.9539987  39.7005006 144.2355017
  92.7569987  40.6275006 144.2355017  78.5379987  39.0615006 143.6855017
  79.4949987  39.0615006 143.6855017  78.2979987  39.9885006 143.6855017
  77.3019987  38.8245006 139.3905017  78.2589987  38.8245006 139.3905017
  77.0619987  39.7515006 139.3905017  83.0389987  38.9805006 143.4765017
  83.9959987  38.9805006 143.4765017  82.7989987  39.9075006 143.4765017
  88.7059987  39.0045006 145.1155017  89.6629987  39.0045006 145.1155017
  88.4659987  39.9315006 145.1155017  90.0089987  39.0375006 140.7495017
  90.9659987  39.0375006 140.7495017  89.7689987  39.9645006 140.7495017
  77.2629987  54.7745006 140.3715017  78.2199987  54.7745006 140.3715017
  77.0229987  55.7015006 140.3715017  79.1529987  40.7655006 137.9555017
  80.1099987  40.7655006 137.9555017  78.9129987  41.6925006 137.9555017
  84.1949987  41.0205006 140.3435017  85.1519987  41.0205006 140.3435017
  83.9549987  41.9475006 140.3435017  86.0859987  56.1085006 138.7555017
  87.0429987  56.1085006 138.7555017  85.8459987  57.0355006 138.7555017
  92.7779987  55.5825006 141.4845017  93.7349987  55.5825006 141.4845017
  92.5379987  56.5095006 141.4845017  78.4359987  39.5935006 153.1495017
  79.3929987  39.5935006 153.1495017  78.1959987  40.5205006 153.1495017
  80.4369987  38.9695006 154.7655017  81.3939987  38.9695006 154.7655017
  80.1969987  39.8965006 154.7655017  79.1769987  55.7985006 137.4775017
  80.1339987  55.7985006 137.4775017  78.9369987  56.7255006 137.4775017
  88.8429987  38.2745006 154.9275017  89.7999987  38.2745006 154.9275017
  88.6029987  39.2015006 154.9275017  92.0489987  54.3125006 153.5805017
  93.0059987  54.3125006 153.5805017  91.8089987  55.2395006 153.5805017
 106.4699987  48.1635006 143.5765017 107.4269987  48.1635006 143.5765017
 106.2299987  49.0905006 143.5765017 105.2799987  47.4725006 147.0685017
 106.2369987  47.4725006 147.0685017 105.0399987  48.3995006 147.0685017
  97.7609987  47.0875006 148.5625017  98.7179987  47.0875006 148.5625017
  97.5209987  48.0145006 148.5625017  98.6389987  51.5575006 147.1305017
  99.5959987  51.5575006 147.1305017  98.3989987  52.4845006 147.1305017
  95.2769987  45.1465006 142.5975017  96.2339987  45.1465006 142.5975017
  95.0369987  46.0735006 142.5975017  96.0019987  47.3685006 144.7415017
  96.9589987  47.3685006 144.7415017  95.7619987  48.2955006 144.7415017
 106.2109987  55.5315006 145.5785017 107.1679987  55.5315006 145.5785017
 105.9709987  56.4585006 145.5785017 103.7129987  49.8775006 147.4715017
 104.6699987  49.8775006 147.4715017 103.4729987  50.8045006 147.4715017
 106.2169987  44.0545006 147.7505017 107.1739987  44.0545006 147.7505017
 105.9769987  44.9815006 147.7505017 100.0049987  42.4175006 145.0645017
 100.9619987  42.4175006 145.0645017  99.7649987  43.3445006 145.0645017
 107.7189987  42.9905006 143.0275017 108.6759987  42.9905006 143.0275017
 107.4789987  43.9175006 143.0275017  96.7159987  44.8675006 145.7775017
  97.6729987  44.8675006 145.7775017  96.4759987  45.7945006 145.7775017
 101.8099987  46.3615006 145.0695017 102.7669987  46.3615006 145.0695017
 101.5699987  47.2885006 145.0695017  98.9019987  41.3035006 149.1025017
  99.8589987  41.3035006 149.1025017  98.6619987  42.2305006 149.1025017
 106.1799987  50.7935006 142.6375017 107.1369987  50.7935006 142.6375017
 105.9399987  51.7205006 142.6375017 101.2989987  49.1895006 148.9855017
 102.2559987  49.1895006 148.9855017 101.0589987  50.1165006 148.9855017
  98.4479987  43.2195006 147.0635017  99.4049987  43.2195006 147.0635017
  98.2079987  44.1465006 147.0635017  99.8619987  50.9585006 150.1865017
 100.8189987  50.9585006 150.1865017  99.6219987  51.8855006 150.1865017
  96.0039987  50.5815006 140.9805017  96.9609987  50.5815006 140.9805017
  95.7639987  51.5085006 140.9805017 102.8779987  38.6365006 146.5665017
 103.8349987  38.6365006 146.5665017 102.6379987  39.5635006 146.5665017
 107.4919987  53.8405006 143.9525017 108.4489987  53.8405006 143.9525017
 107.2519987  54.7675006 143.9525017 105.1309987  47.4485006 141.0665017
 106.0879987  47.4485006 141.0665017 104.8909987  48.3755006 141.0665017
 105.2189987  45.9855006 138.3295017 106.1759987  45.9855006 138.3295017
 104.9789987  46.9125006 138.3295017 100.2059987  48.2985006 143.9125017
 101.1629987  48.2985006 143.9125017  99.9659987  49.2255006 143.9125017
 101.5499987  51.7325006 146.5665017 102.5069987  51.7325006 146.5665017
 101.3099987  52.6595006 146.5665017 100.5359987  47.0545006 147.5155017
 101.4929987  47.0545006 147.5155017 100.2959987  47.9815006 147.5155017
 106.5819987  52.6785006 148.3145017 107.5389987  52.6785006 148.3145017
 106.3419987  53.6055006 148.3145017 101.4909987  51.4665006 152.2575017
 102.4479987  51.4665006 152.2575017 101.2509987  52.3935006 152.2575017
 107.4589987  46.8175006 139.6915017 108.4159987  46.8175006 139.6915017
 107.2189987  47.7445006 139.6915017  98.4149987  47.6425006 151.4415017
  99.3719987  47.6425006 151.4415017  98.1749987  48.5695006 151.4415017
 105.0559987  53.5475006 143.1455017 106.0129987  53.5475006 143.1455017
 104.8159987  54.4745006 143.1455017  99.7259987  53.5225006 153.0165017
 100.6829987  53.5225006 153.0165017  99.4859987  54.4495006 153.0165017
  99.1699987  47.3565006 141.5515017 100.1269987  47.3565006 141.5515017
  98.9299987  48.2835006 141.5515017  95.2749987  49.7505006 150.3885017
  96.2319987  49.7505006 150.3885017  95.0349987  50.6775006 150.3885017
  95.0319987  52.4925006 147.1945017  95.9889987  52.4925006 147.1945017
  94.7919987  53.4195006 147.1945017 104.2429987  52.7385006 151.7635017
 105.1999987  52.7385006 151.7635017 104.0029987  53.6655006 151.7635017
 104.6429987  56.4825006 141.5205017 105.5999987  56.4825006 141.5205017
 104.4029987  57.4095006 141.5205017  98.3159987  55.3335006 143.3575017
  99.2729987  55.3335006 143.3575017  98.0759987  56.2605006 143.3575017
 107.6629987  55.6525006 138.5145017 108.6199987  55.6525006 138.5145017
 107.4229987  56.5795006 138.5145017 107.2509987  55.4465006 141.1475017
 108.2079987  55.4465006 141.1475017 107.0109987  56.3735006 141.1475017
  97.5459987  51.0645006 151.3555017  98.5029987  51.0645006 151.3555017
  97.3059987  51.9915006 151.3555017 100.2179987  39.5315006 147.3205017
 101.1749987  39.5315006 147.3205017  99.9779987  40.4585006 147.3205017
 104.8999987  39.2045006 150.6945017 105.8569987  39.2045006 150.6945017
 104.6599987  40.1315006 150.6945017 104.5409987  41.7675006 138.0185017
 105.4979987  41.7675006 138.0185017 104.3009987  42.6945006 138.0185017
 100.2559987  44.4945006 148.4615017 101.2129987  44.4945006 148.4615017
 100.0159987  45.4215006 148.4615017 100.2609987  44.6755006 143.4145017
 101.2179987  44.6755006 143.4145017 100.0209987  45.6025006 143.4145017
 105.7799987  45.1265006 142.1685017 106.7369987  45.1265006 142.1685017
 105.5399987  46.0535006 142.1685017 104.8869987  45.3895006 153.7545017
 105.8439987  45.3895006 153.7545017 104.6469987  46.3165006 153.7545017
 106.7799987  44.5945006 145.0225017 107.7369987  44.5945006 145.0225017
 106.5399987  45.5215006 145.0225017  97.9749987  44.7885006 150.2475017
  98.9319987  44.7885006 150.2475017  97.7349987  45.7155006 150.2475017
 101.3929987  42.1275006 137.2605017 102.3499987  42.1275006 137.2605017
 101.1529987  43.0545006 137.2605017  94.6049987  41.8945006 144.2015017
  95.5619987  41.8945006 144.2015017  94.3649987  42.8215006 144.2015017
  95.8679987  42.5965006 139.5495017  96.8249987  42.5965006 139.5495017
  95.6279987  43.5235006 139.5495017 106.9019987  46.1285006 149.5015017
 107.8589987  46.1285006 149.5015017 106.6619987  47.0555006 149.5015017
 102.8409987  42.1895006 144.4315017 103.7979987  42.1895006 144.4315017
 102.6009987  43.1165006 144.4315017  97.6689987  43.7595006 143.2985017
  98.6259987  43.7595006 143.2985017  97.4289987  44.6865006 143.2985017
 101.2959987  43.8275006 140.9795017 102.2529987  43.8275006 140.9795017
 101.0559987  44.7545006 140.9795017 107.2389987  41.3655006 147.7305017
 108.1959987  41.3655006 147.7305017 106.9989987  42.2925006 147.7305017
  99.9619987  44.9915006 138.4985017 100.9189987  44.9915006 138.4985017
  99.7219987  45.9185006 138.4985017  98.1239987  49.5345006 153.5705017
  99.0809987  49.5345006 153.5705017  97.8839987  50.4615006 153.5705017
 104.0599987  44.9125006 146.2595017 105.0169987  44.9125006 146.2595017
 103.8199987  45.8395006 146.2595017  99.1489987  41.0995006 142.7725017
 100.1059987  41.0995006 142.7725017  98.9089987  42.0265006 142.7725017
 102.7409987  43.2815006 148.7275017 103.6979987  43.2815006 148.7275017
 102.5009987  44.2085006 148.7275017 103.3079987  49.5575006 140.4185017
 104.2649987  49.5575006 140.4185017 103.0679987  50.4845006 140.4185017
 107.1759987  42.3295006 138.5695017 108.1329987  42.3295006 138.5695017
 106.9359987  43.2565006 138.5695017 104.8439987  49.7235006 151.6685017
 105.8009987  49.7235006 151.6685017 104.6039987  50.6505006 151.6685017
   0.1189987  44.3225006 140.3345017   1.0759987  44.3225006 140.3345017
  -0.1210013  45.2495006 140.3345017  98.4239987  48.8305006 146.1825017
  99.3809987  48.8305006 146.1825017  98.1839987  49.7575006 146.1825017
 105.4529987  50.9495006 139.4695017 106.4099987  50.9495006 139.4695017
 105.2129987  51.8765006 139.4695017  95.4559987  47.2935006 151.5015017
  96.4129987  47.2935006 151.5015017  95.2159987  48.2205006 151.5015017
 102.4759987  46.8485006 153.6885017 103.4329987  46.8485006 153.6885017
 102.2359987  47.7755006 153.6885017 107.1499987  52.2405006 151.5935017
 108.1069987  52.2405006 151.5935017 106.9099987  53.1675006 151.5935017
 100.8479987  52.3105006 143.5265017 101.8049987  52.3105006 143.5265017
 100.6079987  53.2375006 143.5265017  96.6089987  47.1835006 138.1525017
  97.5659987  47.1835006 138.1525017  96.3689987  48.1105006 138.1525017
 102.2299987  49.9985006 143.1395017 103.1869987  49.9985006 143.1395017
 101.9899987  50.9255006 143.1395017 102.7179987  54.1745006 149.5205017
 103.6749987  54.1745006 149.5205017 102.4779987  55.1015006 149.5205017
 100.9449987  54.9875006 142.7025017 101.9019987  54.9875006 142.7025017
 100.7049987  55.9145006 142.7025017 106.3099987  50.2345006 149.1965017
 107.2669987  50.2345006 149.1965017 106.0699987  51.1615006 149.1965017
  97.1119987  42.0265006 151.0465017  98.0689987  42.0265006 151.0465017
  96.8719987  42.9535006 151.0465017  96.7369987  53.8235006 149.4775017
  97.6939987  53.8235006 149.4775017  96.4969987  54.7505006 149.4775017
 102.8009987  52.3195006 136.7445017 103.7579987  52.3195006 136.7445017
 102.5609987  53.2465006 136.7445017 101.4119987  52.0025006 138.8725017
 102.3689987  52.0025006 138.8725017 101.1719987  52.9295006 138.8725017
  98.0039987  49.1225006 139.6575017  98.9609987  49.1225006 139.6575017
  97.7639987  50.0495006 139.6575017 105.8799987  41.7625006 149.9665017
 106.8369987  41.7625006 149.9665017 105.6399987  42.6895006 149.9665017
 106.3199987  41.6345006 141.0545017 107.2769987  41.6345006 141.0545017
 106.0799987  42.5615006 141.0545017 104.2489987  53.5095006 139.9485017
 105.2059987  53.5095006 139.9485017 104.0089987  54.4365006 139.9485017
 103.7889987  43.1595006 141.8895017 104.7459987  43.1595006 141.8895017
 103.5489987  44.0865006 141.8895017 104.2459987  43.5335006 151.5295017
 105.2029987  43.5335006 151.5295017 104.0059987  44.4605006 151.5295017
 104.7009987  40.1905006 142.8135017 105.6579987  40.1905006 142.8135017
 104.4609987  41.1175006 142.8135017 101.6309987  54.5525006 139.9405017
 102.5879987  54.5525006 139.9405017 101.3909987  55.4795006 139.9405017
 100.3089987  41.2795006 139.5375017 101.2659987  41.2795006 139.5375017
 100.0689987  42.2065006 139.5375017  98.6309987  51.6525006 138.6305017
  99.5879987  51.6525006 138.6305017  98.3909987  52.5795006 138.6305017
  96.9219987  44.3845006 137.7145017  97.8789987  44.3845006 137.7145017
  96.6819987  45.3115006 137.7145017  97.7209987  39.1855006 146.4165017
  98.6779987  39.1855006 146.4165017  97.4809987  40.1125006 146.4165017
  96.6799987  53.0945006 142.5465017  97.6369987  53.0945006 142.5465017
  96.4399987  54.0215006 142.5465017  95.8949987  55.7515006 153.8665017
  96.8519987  55.7515006 153.8665017  95.6549987  56.6785006 153.8665017
 100.5549987  54.6755006 155.4785017 101.5119987  54.6755006 155.4785017
 100.3149987  55.6025006 155.4785017 104.8509987  53.8155006 137.3685017
 105.8079987  53.8155006 137.3685017 104.6109987  54.7425006 137.3685017
 107.1339987  53.0535006 154.2105017 108.0909987  53.0535006 154.2105017
 106.8939987  53.9805006 154.2105017  95.8109987  49.5355006 154.8545017
  96.7679987  49.5355006 154.8545017  95.5709987  50.4625006 154.8545017
 100.3159987  49.8965006 137.0695017 101.2729987  49.8965006 137.0695017
 100.0759987  50.8235006 137.0695017 102.4959987  49.5175006 154.2565017
 103.4529987  49.5175006 154.2565017 102.2559987  50.4445006 154.2565017
 105.4199987  50.9705006 136.6615017 106.3769987  50.9705006 136.6615017
 105.1799987  51.8975006 136.6615017  96.7059987  46.7535006 154.2385017
  97.6629987  46.7535006 154.2385017  96.4659987  47.6805006 154.2385017
 101.3589987  47.9005006 139.2835017 102.3159987  47.9005006 139.2835017
 101.1189987  48.8275006 139.2835017 100.5679987  45.6595006 151.6085017
 101.5249987  45.6595006 151.6085017 100.3279987  46.5865006 151.6085017
 102.4519987  45.7895006 137.8015017 103.4089987  45.7895006 137.8015017
 102.2119987  46.7165006 137.8015017 105.6799987  48.2615006 154.9735017
 106.6369987  48.2615006 154.9735017 105.4399987  49.1885006 154.9735017
 100.9689987  43.0725006 152.6755017 101.9259987  43.0725006 152.6755017
 100.7289987  43.9995006 152.6755017 101.3999987  41.4295006 150.1955017
 102.3569987  41.4295006 150.1955017 101.1599987  42.3565006 150.1955017
 102.0559987  47.2785006 150.2465017 103.0129987  47.2785006 150.2465017
 101.8159987  48.2055006 150.2465017 107.3929987  44.7295006 155.5285017
 108.3499987  44.7295006 155.5285017 107.1529987  45.6565006 155.5285017
  99.4589987  44.3145006 154.6105017 100.4159987  44.3145006 154.6105017
  99.2189987  45.2415006 154.6105017 102.2199987  38.9025006 150.6115017
 103.1769987  38.9025006 150.6115017 101.9799987  39.8295006 150.6115017
 103.4799987  43.2255006 154.2365017 104.4369987  43.2255006 154.2365017
 103.2399987  44.1525006 154.2365017 106.1579987  42.3235006 153.2795017
 107.1149987  42.3235006 153.2795017 105.9179987  43.2505006 153.2795017
 107.7979987  41.0255006 155.2215017 108.7549987  41.0255006 155.2215017
 107.5579987  41.9525006 155.2215017  97.5639987  42.2515006 154.3185017
  98.5209987  42.2515006 154.3185017  97.3239987  43.1785006 154.3185017
 102.4049987  38.2565006 153.3035017 103.3619987  38.2565006 153.3035017
 102.1649987  39.1835006 153.3035017 102.7689987  39.8845006 155.4015017
 103.7259987  39.8845006 155.4015017 102.5289987  40.8115006 155.4015017
 102.2719987  56.8145006 138.5725017 103.2289987  56.8145006 138.5725017
 102.0319987  57.7415006 138.5725017  95.8139987  51.3445006 138.1235017
  96.7709987  51.3445006 138.1235017  95.5739987  52.2715006 138.1235017
  94.5789987  56.7895006 143.0345017  95.5359987  56.7895006 143.0345017
  94.3389987  57.7165006 143.0345017  95.4079987  54.9055006 144.8835017
  96.3649987  54.9055006 144.8835017  95.1679987  55.8325006 144.8835017
  95.4739987  47.9765006 147.3765017  96.4309987  47.9765006 147.3765017
  95.2339987  48.9035006 147.3765017  95.0719987  43.2815006 153.5225017
  96.0289987  43.2815006 153.5225017  94.8319987  44.2085006 153.5225017
  96.2919987  41.5825006 146.3705017  97.2489987  41.5825006 146.3705017
  96.0519987  42.5095006 146.3705017  94.5819987  44.5635006 147.4305017
  95.5389987  44.5635006 147.4305017  94.3419987  45.4905006 147.4305017
  94.9319987  40.8315006 141.5065017  95.8889987  40.8315006 141.5065017
  94.6919987  41.7585006 141.5065017  94.8859987  39.5095006 149.8095017
  95.8429987  39.5095006 149.8095017  94.6459987  40.4365006 149.8095017
  97.1059987  52.6955006 153.9665017  98.0629987  52.6955006 153.9665017
  96.8659987  53.6225006 153.9665017 100.0179987  53.6925006 150.2405017
 100.9749987  53.6925006 150.2405017  99.7779987  54.6195006 150.2405017
 104.3309987  55.1265006 153.1845017 105.2879987  55.1265006 153.1845017
 104.0909987  56.0535006 153.1845017 106.6989987  56.4465006 152.4095017
 107.6559987  56.4465006 152.4095017 106.4589987  57.3735006 152.4095017
  97.4399987  56.9295006 150.2475017  98.3969987  56.9295006 150.2475017
  97.1999987  57.8565006 150.2475017  99.9139987  56.5195006 149.3145017
 100.8709987  56.5195006 149.3145017  99.6739987  57.4465006 149.3145017
 104.6759987  56.4515006 148.4535017 105.6329987  56.4515006 148.4535017
 104.4359987  57.3785006 148.4535017 106.7569987  55.3005006 149.8535017
 107.7139987  55.3005006 149.8535017 106.5169987  56.2275006 149.8535017
  96.8769987  55.5855006 147.1795017  97.8339987  55.5855006 147.1795017
  96.6369987  56.5125006 147.1795017  98.9719987  54.2925006 145.8335017
  99.9289987  54.2925006 145.8335017  98.7319987  55.2195006 145.8335017
 101.5369987  54.7765006 146.7025017 102.4939987  54.7765006 146.7025017
 101.2969987  55.7035006 146.7025017 105.0109987  40.4245006 145.8295017
 105.9679987  40.4245006 145.8295017 104.7709987  41.3515006 145.8295017
  97.3949987  39.0615006 143.6845017  98.3519987  39.0615006 143.6845017
  97.1549987  39.9885006 143.6845017  96.1579987  38.8235006 139.3905017
  97.1149987  38.8235006 139.3905017  95.9179987  39.7505006 139.3905017
 101.8999987  38.9715006 143.4755017 102.8569987  38.9715006 143.4755017
 101.6599987  39.8985006 143.4755017 107.4669987  38.9265006 145.2755017
 108.4239987  38.9265006 145.2755017 107.2269987  39.8535006 145.2755017
  96.1319987  54.7805006 140.3745017  97.0889987  54.7805006 140.3745017
  95.8919987  55.7075006 140.3745017  98.0089987  40.7665006 137.9565017
  98.9659987  40.7665006 137.9565017  97.7689987  41.6935006 137.9565017
 103.0539987  41.0165006 140.3445017 104.0109987  41.0165006 140.3445017
 102.8139987  41.9435006 140.3445017 104.9139987  56.1265006 138.7395017
 105.8709987  56.1265006 138.7395017 104.6739987  57.0535006 138.7395017
  97.2909987  39.5945006 153.1495017  98.2479987  39.5945006 153.1495017
  97.0509987  40.5215006 153.1495017  99.2939987  38.9655006 154.7625017
 100.2509987  38.9655006 154.7625017  99.0539987  39.8925006 154.7625017
  98.0359987  55.8155006 137.4735017  98.9929987  55.8155006 137.4735017
  97.7959987  56.7425006 137.4735017  -0.0910013  38.3305006 154.9535017
   0.8659987  38.3305006 154.9535017  -0.3310013  39.2575006 154.9535017
  12.1989987  67.0575006 143.5905017  13.1559987  67.0575006 143.5905017
  11.9589987  67.9845006 143.5905017  11.0649987  66.3165006 147.0615017
  12.0219987  66.3165006 147.0615017  10.8249987  67.2435006 147.0615017
   3.4999987  65.9315006 148.5925017   4.4569987  65.9315006 148.5925017
   3.2599987  66.8585006 148.5925017  14.7719987  69.2565006 145.3325017
  15.7289987  69.2565006 145.3325017  14.5319987  70.1835006 145.3325017
   4.3539987  70.4225006 147.1435017   5.3109987  70.4225006 147.1435017
   4.1139987  71.3495006 147.1435017   1.0679987  64.0835006 142.5215017
   2.0249987  64.0835006 142.5215017   0.8279987  65.0105006 142.5215017
   1.7819987  65.9795006 144.6035017   2.7389987  65.9795006 144.6035017
   1.5419987  66.9065006 144.6035017  11.8829987  74.4055006 145.5685017
  12.8399987  74.4055006 145.5685017  11.6429987  75.3325006 145.5685017
   9.4479987  68.7235006 147.4975017  10.4049987  68.7235006 147.4975017
   9.2079987  69.6505006 147.4975017  18.0679987  60.3565006 148.2665017
  19.0249987  60.3565006 148.2665017  17.8279987  61.2835006 148.2665017
  12.6129987  63.1765006 147.8235017  13.5699987  63.1765006 147.8235017
  12.3729987  64.1035006 147.8235017   5.7349987  61.2565006 145.0455017
   6.6919987  61.2565006 145.0455017   5.4949987  62.1835006 145.0455017
  13.4669987  61.3525006 143.4255017  14.4239987  61.3525006 143.4255017
  13.2269987  62.2795006 143.4255017   2.5419987  63.6865006 145.7125017
   3.4989987  63.6865006 145.7125017   2.3019987  64.6135006 145.7125017
   7.5199987  65.2255006 145.0785017   8.4769987  65.2255006 145.0785017
   7.2799987  66.1525006 145.0785017  18.5019987  61.7895006 150.5265017
  19.4589987  61.7895006 150.5265017  18.2619987  62.7165006 150.5265017
   4.6289987  60.1665006 149.1125017   5.5859987  60.1665006 149.1125017
   4.3889987  61.0935006 149.1125017  11.9329987  69.6555006 142.6355017
  12.8899987  69.6555006 142.6355017  11.6929987  70.5825006 142.6355017
   7.1539987  67.8095006 149.3565017   8.1109987  67.8095006 149.3565017
   6.9139987  68.7365006 149.3565017  15.2619987  60.6875006 145.4195017
  16.2189987  60.6875006 145.4195017  15.0219987  61.6145006 145.4195017
   4.2059987  61.9985006 147.1295017   5.1629987  61.9985006 147.1295017
   3.9659987  62.9255006 147.1295017   5.5909987  69.7975006 150.1595017
   6.5479987  69.7975006 150.1595017   5.3509987  70.7245006 150.1595017
   1.7339987  69.4525006 140.9405017   2.6909987  69.4525006 140.9405017
   1.4939987  70.3795006 140.9405017  15.2939987  71.0905006 147.7025017
  16.2509987  71.0905006 147.7025017  15.0539987  72.0175006 147.7025017
  15.6099987  59.3805006 149.0995017  16.5669987  59.3805006 149.0995017
  15.3699987  60.3075006 149.0995017   8.5909987  57.4915006 146.5585017
   9.5479987  57.4915006 146.5585017   8.3509987  58.4185006 146.5585017
  13.5469987  72.8755006 144.3045017  14.5039987  72.8755006 144.3045017
  13.3069987  73.8025006 144.3045017  14.7449987  70.7985006 142.8225017
  15.7019987  70.7985006 142.8225017  14.5049987  71.7255006 142.8225017
  16.3839987  69.3835006 151.3075017  17.3409987  69.3835006 151.3075017
  16.1439987  70.3105006 151.3075017  10.8819987  66.2965006 141.0815017
  11.8389987  66.2965006 141.0815017  10.6419987  67.2235006 141.0815017
  10.9349987  64.8525006 138.3345017  11.8919987  64.8525006 138.3345017
  10.6949987  65.7795006 138.3345017  18.2589987  65.6975006 149.3605017
  19.2159987  65.6975006 149.3605017  18.0189987  66.6245006 149.3605017
  14.3049987  66.5135006 142.0135017  15.2619987  66.5135006 142.0135017
  14.0649987  67.4405006 142.0135017  14.2349987  64.6655006 151.1055017
  15.1919987  64.6655006 151.1055017  13.9949987  65.5925006 151.1055017
   5.9409987  67.1725006 143.9085017   6.8979987  67.1725006 143.9085017
   5.7009987  68.0995006 143.9085017   7.2609987  70.5625006 146.5865017
   8.2179987  70.5625006 146.5865017   7.0209987  71.4895006 146.5865017
   6.2839987  65.9065006 147.5585017   7.2409987  65.9065006 147.5585017
   6.0439987  66.8335006 147.5585017  12.6469987  71.4695006 148.2635017
  13.6039987  71.4695006 148.2635017  12.4069987  72.3965006 148.2635017
   7.2049987  70.3285006 152.2625017   8.1619987  70.3285006 152.2625017
   6.9649987  71.2555006 152.2625017  13.1669987  65.6755006 139.6725017
  14.1239987  65.6755006 139.6725017  12.9269987  66.6025006 139.6725017
   4.1249987  66.4995006 151.4535017   5.0819987  66.4995006 151.4535017
   3.8849987  67.4265006 151.4535017  10.8929987  72.4135006 143.1505017
  11.8499987  72.4135006 143.1505017  10.6529987  73.3405006 143.1505017
   5.4409987  72.3775006 153.0185017   6.3979987  72.3775006 153.0185017
   5.2009987  73.3045006 153.0185017  16.9079987  57.4175006 139.4905017
  17.8649987  57.4175006 139.4905017  16.6679987  58.3445006 139.4905017
   4.9219987  66.2075006 141.5275017   5.8789987  66.2075006 141.5275017
   4.6819987  67.1345006 141.5275017  18.0339987  71.7555006 137.9545017
  18.9909987  71.7555006 137.9545017  17.7939987  72.6825006 137.9545017
   1.1179987  68.5905006 150.3535017   2.0749987  68.5905006 150.3535017
   0.8779987  69.5175006 150.3535017   1.0149987  71.5115006 146.9185017
   1.9719987  71.5115006 146.9185017   0.7749987  72.4385006 146.9185017
  18.9889987  72.0475006 152.8805017  19.9459987  72.0475006 152.8805017
  18.7489987  72.9745006 152.8805017   9.9449987  71.5915006 151.7445017
  10.9019987  71.5915006 151.7445017   9.7049987  72.5185006 151.7445017
  10.3579987  75.3425006 141.5195017  11.3149987  75.3425006 141.5195017
  10.1179987  76.2695006 141.5195017   4.0199987  74.1975006 143.3415017
   4.9769987  74.1975006 143.3415017   3.7799987  75.1245006 143.3415017
  13.3959987  74.5535006 138.5315017  14.3529987  74.5535006 138.5315017
  13.1559987  75.4805006 138.5315017  13.1249987  74.4825006 141.3115017
  14.0819987  74.4825006 141.3115017  12.8849987  75.4095006 141.3115017
  16.1289987  63.5215006 153.3615017  17.0859987  63.5215006 153.3615017
  15.8889987  64.4485006 153.3615017   3.2629987  69.9565006 151.3695017
   4.2199987  69.9565006 151.3695017   3.0229987  70.8835006 151.3695017
   5.9389987  58.3975006 147.3105017   6.8959987  58.3975006 147.3105017
   5.6989987  59.3245006 147.3105017  10.5819987  58.0785006 150.6855017
  11.5389987  58.0785006 150.6855017  10.3419987  59.0055006 150.6855017
  13.8849987  61.8955006 151.5735017  14.8419987  61.8955006 151.5735017
  13.6449987  62.8225006 151.5735017  14.7829987  66.7905006 137.8345017
  15.7399987  66.7905006 137.8345017  14.5429987  67.7175006 137.8345017
  10.2379987  60.6325006 138.0095017  11.1949987  60.6325006 138.0095017
   9.9979987  61.5595006 138.0095017   6.0549987  63.3545006 148.5365017
   7.0119987  63.3545006 148.5365017   5.8149987  64.2815006 148.5365017
   5.9849987  63.5165006 143.4125017   6.9419987  63.5165006 143.4125017
   5.7449987  64.4435006 143.4125017  11.5199987  63.9745006 142.1685017
  12.4769987  63.9745006 142.1685017  11.2799987  64.9015006 142.1685017
  10.5989987  64.1935006 153.6415017  11.5559987  64.1935006 153.6415017
  10.3589987  65.1205006 153.6415017  12.5529987  63.4665006 145.0305017
  13.5099987  63.4665006 145.0305017  12.3129987  64.3935006 145.0305017
   3.6989987  63.6315006 150.2685017   4.6559987  63.6315006 150.2685017
   3.4589987  64.5585006 150.2685017   7.1199987  60.9795006 137.2575017
   8.0769987  60.9795006 137.2575017   6.8799987  61.9065006 137.2575017
   0.4309987  60.0415006 144.5485017   1.3879987  60.0415006 144.5485017
   0.1909987  60.9685006 144.5485017   1.8039987  61.4725006 139.6785017
   2.7609987  61.4725006 139.6785017   1.5639987  62.3995006 139.6785017
  11.7689987  65.0715006 149.6165017  12.7259987  65.0715006 149.6165017
  11.5289987  65.9985006 149.6165017   8.5659987  61.0275006 144.4305017
   9.5229987  61.0275006 144.4305017   8.3259987  61.9545006 144.4305017
   3.3939987  62.5855006 143.2845017   4.3509987  62.5855006 143.2845017
   3.1539987  63.5125006 143.2845017   7.0169987  62.6575006 140.9495017
   7.9739987  62.6575006 140.9495017   6.7769987  63.5845006 140.9495017
  12.9709987  60.2645006 147.6825017  13.9279987  60.2645006 147.6825017
  12.7309987  61.1915006 147.6825017   5.6889987  63.8485006 138.4995017
   6.6459987  63.8485006 138.4995017   5.4489987  64.7755006 138.4995017
  16.1869987  75.9155006 153.9965017  17.1439987  75.9155006 153.9965017
  15.9469987  76.8425006 153.9965017   3.8569987  68.3615006 153.5805017
   4.8139987  68.3615006 153.5805017   3.6169987  69.2885006 153.5805017
   9.8569987  63.7945006 146.3275017  10.8139987  63.7945006 146.3275017
   9.6169987  64.7215006 146.3275017   4.8549987  59.9455006 142.7445017
   5.8119987  59.9455006 142.7445017   4.6149987  60.8725006 142.7445017
   8.4939987  62.1325006 148.7395017   9.4509987  62.1325006 148.7395017
   8.2539987  63.0595006 148.7395017   9.0789987  68.3565006 140.4265017
  10.0359987  68.3565006 140.4265017   8.8389987  69.2835006 140.4265017
  16.2429987  67.5345006 149.2375017  17.1999987  67.5345006 149.2375017
  16.0029987  68.4615006 149.2375017  12.9379987  61.1865006 138.5645017
  13.8949987  61.1865006 138.5645017  12.6979987  62.1135006 138.5645017
  10.5669987  68.5975006 151.6735017  11.5239987  68.5975006 151.6735017
  10.3269987  69.5245006 151.6735017  13.6469987  63.0565006 140.2815017
  14.6039987  63.0565006 140.2815017  13.4069987  63.9835006 140.2815017
   4.2199987  67.7425006 146.2555017   5.1769987  67.7425006 146.2555017
   3.9799987  68.6695006 146.2555017  11.1809987  69.8045006 139.4615017
  12.1379987  69.8045006 139.4615017  10.9409987  70.7315006 139.4615017
   1.1629987  66.1485006 151.5115017   2.1199987  66.1485006 151.5115017
   0.9229987  67.0755006 151.5115017   8.1889987  65.7025006 153.6945017
   9.1459987  65.7025006 153.6945017   7.9489987  66.6295006 153.6945017
  12.8599987  71.0335006 151.6165017  13.8169987  71.0335006 151.6165017
  12.6199987  71.9605006 151.6165017  18.5669987  63.2345006 140.0485017
  19.5239987  63.2345006 140.0485017  18.3269987  64.1615006 140.0485017
  18.5279987  69.0865006 152.8345017  19.4849987  69.0865006 152.8345017
  18.2879987  70.0135006 152.8345017  16.8669987  72.0425006 140.4285017
  17.8239987  72.0425006 140.4285017  16.6269987  72.9695006 140.4285017
  14.0339987  66.8695006 147.5115017  14.9909987  66.8695006 147.5115017
  13.7939987  67.7965006 147.5115017   6.5689987  71.1855006 143.6155017
   7.5259987  71.1855006 143.6155017   6.3289987  72.1125006 143.6155017
   2.3069987  66.0225006 138.2065017   3.2639987  66.0225006 138.2065017
   2.0669987  66.9495006 138.2065017   7.9799987  68.8555006 143.1425017
   8.9369987  68.8555006 143.1425017   7.7399987  69.7825006 143.1425017
   8.4319987  73.0375006 149.5335017   9.3889987  73.0375006 149.5335017
   8.1919987  73.9645006 149.5335017   6.6609987  73.8585006 142.6945017
   7.6179987  73.8585006 142.6945017   6.4209987  74.7855006 142.6945017
  11.9779987  69.0655006 149.1755017  12.9349987  69.0655006 149.1755017
  11.7379987  69.9925006 149.1755017  14.2339987  70.0925006 138.2625017
  15.1909987  70.0925006 138.2625017  13.9939987  71.0195006 138.2625017
  14.7449987  73.6355006 151.6685017  15.7019987  73.6355006 151.6685017
  14.5049987  74.5625006 151.6685017  18.7589987  74.4835006 138.5395017
  19.7159987  74.4835006 138.5395017  18.5189987  75.4105006 138.5395017
   2.8099987  60.8875006 151.0615017   3.7669987  60.8875006 151.0615017
   2.5699987  61.8145006 151.0615017  15.0749987  68.7455006 140.5045017
  16.0319987  68.7455006 140.5045017  14.8349987  69.6725006 140.5045017
   2.4779987  72.6705006 149.4645017   3.4349987  72.6705006 149.4645017
   2.2379987  73.5975006 149.4645017   8.4919987  71.1665006 136.7905017
   9.4489987  71.1665006 136.7905017   8.2519987  72.0935006 136.7905017
   7.2249987  70.7255006 139.1805017   8.1819987  70.7255006 139.1805017
   6.9849987  71.6525006 139.1805017   3.6709987  67.9565006 139.6365017
   4.6279987  67.9565006 139.6365017   3.4309987  68.8835006 139.6365017
  11.5529987  60.6515006 149.9895017  12.5099987  60.6515006 149.9895017
  11.3129987  61.5785006 149.9895017  12.2969987  60.2615006 141.0835017
  13.2539987  60.2615006 141.0835017  12.0569987  61.1885006 141.0835017
   9.9949987  72.3955006 139.9535017  10.9519987  72.3955006 139.9535017
   9.7549987  73.3225006 139.9535017   9.5269987  61.9935006 141.8975017
  10.4839987  61.9935006 141.8975017   9.2869987  62.9205006 141.8975017
  10.0819987  62.9995006 151.0945017  11.0389987  62.9995006 151.0945017
   9.8419987  63.9265006 151.0945017  10.3939987  59.0465006 142.8095017
  11.3509987  59.0465006 142.8095017  10.1539987  59.9735006 142.8095017
   7.3679987  73.4315006 139.9235017   8.3249987  73.4315006 139.9235017
   7.1279987  74.3585006 139.9235017   6.0319987  60.1385006 139.5355017
   6.9889987  60.1385006 139.5355017   5.7919987  61.0655006 139.5355017
  16.2759987  60.8765006 151.9425017  17.2329987  60.8765006 151.9425017
  16.0359987  61.8035006 151.9425017  14.8759987  64.6605006 145.9735017
  15.8329987  64.6605006 145.9735017  14.6359987  65.5875006 145.9735017
   4.3119987  70.5575006 138.5725017   5.2689987  70.5575006 138.5725017
   4.0719987  71.4845006 138.5725017   2.6029987  63.2385006 137.7905017
   3.5599987  63.2385006 137.7905017   2.3629987  64.1655006 137.7905017
  15.9419987  73.9085006 147.6355017  16.8989987  73.9085006 147.6355017
  15.7019987  74.8355006 147.6355017   3.4329987  58.0415006 146.4185017
   4.3899987  58.0415006 146.4185017   3.1929987  58.9685006 146.4185017
   2.3989987  71.9785006 142.5535017   3.3559987  71.9785006 142.5535017
   2.1589987  72.9055006 142.5535017   1.7139987  74.5515006 153.7995017
   2.6709987  74.5515006 153.7995017   1.4739987  75.4785006 153.7995017
   6.2699987  73.5165006 155.4795017   7.2269987  73.5165006 155.4795017
   6.0299987  74.4435006 155.4795017  10.5859987  72.6255006 137.3825017
  11.5429987  72.6255006 137.3825017  10.3459987  73.5525006 137.3825017
  12.8019987  71.9065006 154.2135017  13.7589987  71.9065006 154.2135017
  12.5619987  72.8335006 154.2135017  14.7699987  72.7445006 137.2595017
  15.7269987  72.7445006 137.2595017  14.5299987  73.6715006 137.2595017
   1.5089987  68.3945006 154.8535017   2.4659987  68.3945006 154.8535017
   1.2689987  69.3215006 154.8535017   6.0209987  68.7535006 137.0485017
   6.9779987  68.7535006 137.0485017   5.7809987  69.6805006 137.0485017
   8.2309987  68.3705006 154.2485017   9.1879987  68.3705006 154.2485017
   7.9909987  69.2975006 154.2485017  11.2099987  69.7935006 136.6555017
  12.1669987  69.7935006 136.6555017  10.9699987  70.7205006 136.6555017
  13.9349987  68.2405006 151.6355017  14.8919987  68.2405006 151.6355017
  13.6949987  69.1675006 151.6355017   2.3629987  65.5895006 154.2325017
   3.3199987  65.5895006 154.2325017   2.1229987  66.5165006 154.2325017
   7.0639987  66.7335006 139.2715017   8.0209987  66.7335006 139.2715017
   6.8239987  67.6605006 139.2715017   6.3379987  64.5665006 151.6045017
   7.2949987  64.5665006 151.6045017   6.0979987  65.4935006 151.6045017
   8.1819987  64.6415006 137.7975017   9.1389987  64.6415006 137.7975017
   7.9419987  65.5685006 137.7975017  11.3939987  67.1115006 154.9185017
  12.3509987  67.1115006 154.9185017  11.1539987  68.0385006 154.9185017
  17.5689987  67.4985006 137.2885017  18.5259987  67.4985006 137.2885017
  17.3289987  68.4255006 137.2885017   6.7329987  61.9405006 152.6725017
   7.6899987  61.9405006 152.6725017   6.4929987  62.8675006 152.6725017
   7.1319987  60.3175006 150.2045017   8.0889987  60.3175006 150.2045017
   6.8919987  61.2445006 150.2045017   8.6809987  65.7865006 150.4515017
   9.6379987  65.7865006 150.4515017   8.4409987  66.7135006 150.4515017
  13.0799987  63.5655006 155.4275017  14.0369987  63.5655006 155.4275017
  12.8399987  64.4925006 155.4275017  14.4069987  66.3455006 153.5625017
  15.3639987  66.3455006 153.5625017  14.1669987  67.2725006 153.5625017
   5.1809987  63.1895006 154.5815017   6.1379987  63.1895006 154.5815017
   4.9409987  64.1165006 154.5815017   7.9129987  57.7625006 150.6165017
   8.8699987  57.7625006 150.6165017   7.6729987  58.6895006 150.6165017
   9.1959987  62.0875006 154.2115017  10.1529987  62.0875006 154.2115017
   8.9559987  63.0145006 154.2115017  11.9139987  61.2205006 153.2865017
  12.8709987  61.2205006 153.2865017  11.6739987  62.1475006 153.2865017
  13.5099987  59.8515006 155.2265017  14.4669987  59.8515006 155.2265017
  13.2699987  60.7785006 155.2265017   3.3229987  61.1125006 154.3235017
   4.2799987  61.1125006 154.3235017   3.0829987  62.0395006 154.3235017
   8.1359987  57.1245006 153.3025017   9.0929987  57.1245006 153.3025017
   7.8959987  58.0515006 153.3025017   8.5029987  58.7575006 155.3915017
   9.4599987  58.7575006 155.3915017   8.2629987  59.6845006 155.3915017
   7.9799987  75.6745006 138.5855017   8.9369987  75.6745006 138.5855017
   7.7399987  76.6015006 138.5855017   1.5669987  70.1685006 138.1145017
   2.5239987  70.1685006 138.1145017   1.3269987  71.0955006 138.1145017
 108.0999987  75.6905006 143.0315017 109.0569987  75.6905006 143.0315017
 107.8599987  76.6175006 143.0315017   1.5139987  73.9065006 144.9945017
   2.4709987  73.9065006 144.9945017   1.2739987  74.8335006 144.9945017
  18.6619987  74.5585006 147.8355017  19.6189987  74.5585006 147.8355017
  18.4219987  75.4855006 147.8355017  18.2379987  74.1565006 150.7785017
  19.1949987  74.1565006 150.7785017  17.9979987  75.0835006 150.7785017
  16.6829987  69.8875006 155.4345017  17.6399987  69.8875006 155.4345017
  16.4429987  70.8145006 155.4345017  17.9959987  68.2045006 140.8935017
  18.9529987  68.2045006 140.8935017  17.7559987  69.1315006 140.8935017
  18.3609987  66.2775006 142.7585017  19.3179987  66.2775006 142.7585017
  18.1209987  67.2045006 142.7585017  18.1189987  68.9855006 147.7395017
  19.0759987  68.9855006 147.7395017  17.8789987  69.9125006 147.7395017
  16.6659987  71.8825006 150.0215017  17.6229987  71.8825006 150.0215017
  16.4259987  72.8095006 150.0215017  18.6749987  66.0885006 139.1835017
  19.6319987  66.0885006 139.1835017  18.4349987  67.0155006 139.1835017
  17.1219987  63.2655006 137.9055017  18.0789987  63.2655006 137.9055017
  16.8819987  64.1925006 137.9055017  16.1759987  64.7565006 143.3215017
  17.1329987  64.7565006 143.3215017  15.9359987  65.6835006 143.3215017
   1.2059987  66.7075006 147.4535017   2.1629987  66.7075006 147.4535017
   0.9659987  67.6345006 147.4535017  17.0289987  66.7235006 153.0005017
  17.9859987  66.7235006 153.0005017  16.7889987  67.6505006 153.0005017
  18.5369987  64.6165006 153.6655017  19.4939987  64.6165006 153.6655017
  18.2969987  65.5435006 153.6655017  16.2049987  60.8295006 136.9705017
  17.1619987  60.8295006 136.9705017  15.9649987  61.7565006 136.9705017
  15.8439987  62.3445006 141.7885017  16.8009987  62.3445006 141.7885017
  15.6039987  63.2715006 141.7885017  16.4809987  62.8855006 147.2255017
  17.4379987  62.8855006 147.2255017  16.2409987  63.8125006 147.2255017
  16.5499987  63.6105006 150.0145017  17.5069987  63.6105006 150.0145017
  16.3099987  64.5375006 150.0145017   0.8799987  62.0985006 153.4455017
   1.8369987  62.0985006 153.4455017   0.6399987  63.0255006 153.4455017
  18.8129987  57.6525006 155.3615017  19.7699987  57.6525006 155.3615017
  18.5729987  58.5795006 155.3615017  16.5099987  59.6175006 141.8365017
  17.4669987  59.6175006 141.8365017  16.2699987  60.5445006 141.8365017
   2.0719987  60.4385006 146.3935017   3.0289987  60.4385006 146.3935017
   1.8319987  61.3655006 146.3935017   0.8859987  63.3865006 147.5895017
   1.8429987  63.3865006 147.5895017   0.6459987  64.3135006 147.5895017
  18.3429987  59.7585006 153.7135017  19.2999987  59.7585006 153.7135017
  18.1029987  60.6855006 153.7135017  18.4039987  59.5905006 138.5885017
  19.3609987  59.5905006 138.5885017  18.1639987  60.5175006 138.5885017
   0.8869987  59.6435006 141.5095017   1.8439987  59.6435006 141.5095017
   0.6469987  60.5705006 141.5095017  15.3869987  74.6395006 143.4475017
  16.3439987  74.6395006 143.4475017  15.1469987  75.5665006 143.4475017
 108.2909987  58.2815006 149.7865017 109.2479987  58.2815006 149.7865017
 108.0509987  59.2085006 149.7865017   2.8149987  71.5755006 153.9835017
   3.7719987  71.5755006 153.9835017   2.5749987  72.5025006 153.9835017
   5.7329987  72.5485006 150.2415017   6.6899987  72.5485006 150.2415017
   5.4929987  73.4755006 150.2415017  10.0569987  73.9715006 153.1565017
  11.0139987  73.9715006 153.1565017   9.8169987  74.8985006 153.1565017
  12.3549987  75.2415006 152.4455017  13.3119987  75.2415006 152.4455017
  12.1149987  76.1685006 152.4455017  17.3559987  57.8545006 151.5495017
  18.3129987  57.8545006 151.5495017  17.1159987  58.7815006 151.5495017
   3.1559987  75.7985006 150.2685017   4.1129987  75.7985006 150.2685017
   2.9159987  76.7255006 150.2685017   5.6489987  75.3825006 149.3205017
   6.6059987  75.3825006 149.3205017   5.4089987  76.3095006 149.3205017
  10.3349987  75.2835006 148.4805017  11.2919987  75.2835006 148.4805017
  10.0949987  76.2105006 148.4805017  12.6419987  74.1145006 149.4785017
  13.5989987  74.1145006 149.4785017  12.4019987  75.0415006 149.4785017
  15.2219987  75.6805006 149.7365017  16.1789987  75.6805006 149.7365017
  14.9819987  76.6075006 149.7365017   2.6249987  74.4455006 147.2315017
   3.5819987  74.4455006 147.2315017   2.3849987  75.3725006 147.2315017
   4.6829987  73.1505006 145.8315017   5.6399987  73.1505006 145.8315017
   4.4429987  74.0775006 145.8315017   7.2689987  73.6305006 146.7045017
   8.2259987  73.6305006 146.7045017   7.0289987  74.5575006 146.7045017
  10.7529987  59.2895006 145.8445017  11.7099987  59.2895006 145.8445017
  10.5129987  60.2165006 145.8445017  15.8879987  57.3455006 145.9325017
  16.8449987  57.3455006 145.9325017  15.6479987  58.2725006 145.9325017
  17.5729987  58.5565006 144.2355017  18.5299987  58.5565006 144.2355017
  17.3329987  59.4835006 144.2355017   3.1139987  57.9025006 143.6755017
   4.0709987  57.9025006 143.6755017   2.8739987  58.8295006 143.6755017
   1.9499987  57.6865006 139.4735017   2.9069987  57.6865006 139.4735017
   1.7099987  58.6135006 139.4735017   7.6139987  57.8365006 143.4765017
   8.5709987  57.8365006 143.4765017   7.3739987  58.7635006 143.4765017
  13.2819987  57.8605006 145.1155017  14.2389987  57.8605006 145.1155017
  13.0419987  58.7875006 145.1155017  14.5849987  57.8935006 140.7485017
  15.5419987  57.8935006 140.7485017  14.3449987  58.8205006 140.7485017
   1.9529987  73.6615006 140.3585017   2.9099987  73.6615006 140.3585017
   1.7129987  74.5885006 140.3585017   3.7439987  59.6135006 137.9585017
   4.7009987  59.6135006 137.9585017   3.5039987  60.5405006 137.9585017
   8.7699987  59.8775006 140.3445017   9.7269987  59.8775006 140.3445017
   8.5299987  60.8045006 140.3445017  10.6699987  74.9425006 138.7735017
  11.6269987  74.9425006 138.7735017  10.4299987  75.8695006 138.7735017
  17.3969987  74.4425006 141.4825017  18.3539987  74.4425006 141.4825017
  17.1569987  75.3695006 141.4825017   2.9949987  58.4495006 153.1425017
   3.9519987  58.4495006 153.1425017   2.7549987  59.3765006 153.1425017
   5.0119987  57.8305006 154.7605017   5.9689987  57.8305006 154.7605017
   4.7719987  58.7575006 154.7605017   3.7589987  74.6545006 137.4665017
   4.7159987  74.6545006 137.4665017   3.5189987  75.5815006 137.4665017
  13.4179987  57.1295006 154.9265017  14.3749987  57.1295006 154.9265017
  13.1779987  58.0565006 154.9265017  16.6249987  73.1685006 153.5805017
  17.5819987  73.1685006 153.5805017  16.3849987  74.0955006 153.5805017
  31.0549987  67.0575006 143.5895017  32.0119987  67.0575006 143.5895017
  30.8149987  67.9845006 143.5895017  29.9209987  66.3175006 147.0605017
  30.8779987  66.3175006 147.0605017  29.6809987  67.2445006 147.0605017
  22.2839987  65.9705006 148.6095017  23.2409987  65.9705006 148.6095017
  22.0439987  66.8975006 148.6095017  33.6279987  69.2565006 145.3315017
  34.5849987  69.2565006 145.3315017  33.3879987  70.1835006 145.3315017
  23.2119987  70.4205006 147.1315017  24.1689987  70.4205006 147.1315017
  22.9719987  71.3475006 147.1315017  19.8579987  64.0015006 142.5935017
  20.8149987  64.0015006 142.5935017  19.6179987  64.9285006 142.5935017
  20.5509987  66.2135006 144.7235017  21.5079987  66.2135006 144.7235017
  20.3109987  67.1405006 144.7235017  30.7399987  74.4065006 145.5675017
  31.6969987  74.4065006 145.5675017  30.4999987  75.3335006 145.5675017
  28.3039987  68.7235006 147.4975017  29.2609987  68.7235006 147.4975017
  28.0639987  69.6505006 147.4975017  36.9239987  60.3565006 148.2655017
  37.8809987  60.3565006 148.2655017  36.6839987  61.2835006 148.2655017
  31.4689987  63.1765006 147.8235017  32.4259987  63.1765006 147.8235017
  31.2289987  64.1035006 147.8235017  24.5929987  61.2615006 145.0565017
  25.5499987  61.2615006 145.0565017  24.3529987  62.1885006 145.0565017
  32.3209987  61.3515006 143.4265017  33.2779987  61.3515006 143.4265017
  32.0809987  62.2785006 143.4265017  21.2139987  63.6705006 145.7955017
  22.1709987  63.6705006 145.7955017  20.9739987  64.5975006 145.7955017
  26.3779987  65.2275006 145.0805017  27.3349987  65.2275006 145.0805017
  26.1379987  66.1545006 145.0805017  37.3579987  61.7895006 150.5255017
  38.3149987  61.7895006 150.5255017  37.1179987  62.7165006 150.5255017
  23.4779987  60.1615006 149.1015017  24.4349987  60.1615006 149.1015017
  23.2379987  61.0885006 149.1015017  30.7889987  69.6555006 142.6355017
  31.7459987  69.6555006 142.6355017  30.5489987  70.5825006 142.6355017
  26.0099987  67.8095006 149.3555017  26.9669987  67.8095006 149.3555017
  25.7699987  68.7365006 149.3555017  34.1179987  60.6875006 145.4195017
  35.0749987  60.6875006 145.4195017  33.8779987  61.6145006 145.4195017
  23.0399987  62.0305006 147.1095017  23.9969987  62.0305006 147.1095017
  22.7999987  62.9575006 147.1095017  24.4469987  69.7995006 150.1655017
  25.4039987  69.7995006 150.1655017  24.2069987  70.7265006 150.1655017
  20.5349987  69.4295006 140.9905017  21.4919987  69.4295006 140.9905017
  20.2949987  70.3565006 140.9905017  34.1499987  71.0905006 147.7015017
  35.1069987  71.0905006 147.7015017  33.9099987  72.0175006 147.7015017
  34.4659987  59.3805006 149.0995017  35.4229987  59.3805006 149.0995017
  34.2259987  60.3075006 149.0995017  27.4479987  57.4925006 146.5605017
  28.4049987  57.4925006 146.5605017  27.2079987  58.4195006 146.5605017
  32.4029987  72.8755006 144.3045017  33.3599987  72.8755006 144.3045017
  32.1629987  73.8025006 144.3045017  33.6009987  70.7985006 142.8225017
  34.5579987  70.7985006 142.8225017  33.3609987  71.7255006 142.8225017
  35.2399987  69.3835006 151.3075017  36.1969987  69.3835006 151.3075017
  34.9999987  70.3105006 151.3075017  29.7379987  66.2965006 141.0815017
  30.6949987  66.2965006 141.0815017  29.4979987  67.2235006 141.0815017
  29.7909987  64.8525006 138.3345017  30.7479987  64.8525006 138.3345017
  29.5509987  65.7795006 138.3345017  37.1149987  65.6975006 149.3605017
  38.0719987  65.6975006 149.3605017  36.8749987  66.6245006 149.3605017
  33.1619987  66.5135006 142.0155017  34.1189987  66.5135006 142.0155017
  32.9219987  67.4405006 142.0155017  33.0909987  64.6665006 151.1045017
  34.0479987  64.6665006 151.1045017  32.8509987  65.5935006 151.1045017
  24.7849987  67.1645006 143.9065017  25.7419987  67.1645006 143.9065017
  24.5449987  68.0915006 143.9065017  26.1139987  70.5615006 146.5895017
  27.0709987  70.5615006 146.5895017  25.8739987  71.4885006 146.5895017
  25.1239987  65.9055006 147.5585017  26.0809987  65.9055006 147.5585017
  24.8839987  66.8325006 147.5585017  31.5089987  71.4675006 148.2665017
  32.4659987  71.4675006 148.2665017  31.2689987  72.3945006 148.2665017
  26.0619987  70.3285006 152.2625017  27.0189987  70.3285006 152.2625017
  25.8219987  71.2555006 152.2625017  32.0229987  65.6745006 139.6725017
  32.9799987  65.6745006 139.6725017  31.7829987  66.6015006 139.6725017
  22.9959987  66.4965006 151.4385017  23.9529987  66.4965006 151.4385017
  22.7559987  67.4235006 151.4385017  29.7489987  72.4135006 143.1495017
  30.7059987  72.4135006 143.1495017  29.5089987  73.3405006 143.1495017
  24.3029987  72.3795006 153.0165017  25.2599987  72.3795006 153.0165017
  24.0629987  73.3065006 153.0165017  35.7639987  57.4185006 139.4905017
  36.7209987  57.4185006 139.4905017  35.5239987  58.3455006 139.4905017
  23.7559987  66.1965006 141.5235017  24.7129987  66.1965006 141.5235017
  23.5159987  67.1235006 141.5235017  36.8889987  71.7505006 137.9555017
  37.8459987  71.7505006 137.9555017  36.6489987  72.6775006 137.9555017
  19.8499987  68.6085006 150.3895017  20.8069987  68.6085006 150.3895017
  19.6099987  69.5355006 150.3895017  19.6089987  71.3475006 147.1945017
  20.5659987  71.3475006 147.1945017  19.3689987  72.2745006 147.1945017
  37.8399987  72.0435006 152.8615017  38.7969987  72.0435006 152.8615017
  37.5999987  72.9705006 152.8615017  28.8019987  71.5915006 151.7445017
  29.7589987  71.5915006 151.7445017  28.5619987  72.5185006 151.7445017
  29.2149987  75.3415006 141.5255017  30.1719987  75.3415006 141.5255017
  28.9749987  76.2685006 141.5255017  22.8769987  74.2055006 143.3605017
  23.8339987  74.2055006 143.3605017  22.6369987  75.1325006 143.3605017
  32.2369987  74.5635006 138.5235017  33.1939987  74.5635006 138.5235017
  31.9969987  75.4905006 138.5235017  31.9809987  74.4815006 141.3105017
  32.9379987  74.4815006 141.3105017  31.7409987  75.4085006 141.3105017
  34.9849987  63.5215006 153.3615017  35.9419987  63.5215006 153.3615017
  34.7449987  64.4485006 153.3615017  22.1239987  69.9265006 151.3555017
  23.0809987  69.9265006 151.3555017  21.8839987  70.8535006 151.3555017
  24.7939987  58.3875006 147.3205017  25.7509987  58.3875006 147.3205017
  24.5539987  59.3145006 147.3205017  29.4389987  58.0785006 150.6855017
  30.3959987  58.0785006 150.6855017  29.1989987  59.0055006 150.6855017
  32.7409987  61.8965006 151.5735017  33.6979987  61.8965006 151.5735017
  32.5009987  62.8235006 151.5735017  33.6389987  66.7905006 137.8345017
  34.5959987  66.7905006 137.8345017  33.3989987  67.7175006 137.8345017
  29.0969987  60.6375006 138.0085017  30.0539987  60.6375006 138.0085017
  28.8569987  61.5645006 138.0085017  24.8949987  63.3575006 148.5295017
  25.8519987  63.3575006 148.5295017  24.6549987  64.2845006 148.5295017
  24.8579987  63.5165006 143.4105017  25.8149987  63.5165006 143.4105017
  24.6179987  64.4435006 143.4105017  30.3759987  63.9745006 142.1685017
  31.3329987  63.9745006 142.1685017  30.1359987  64.9015006 142.1685017
  29.4549987  64.1935006 153.6415017  30.4119987  64.1935006 153.6415017
  29.2149987  65.1205006 153.6415017  31.4089987  63.4675006 145.0305017
  32.3659987  63.4675006 145.0305017  31.1689987  64.3945006 145.0305017
  22.5419987  63.6415006 150.2615017  23.4989987  63.6415006 150.2615017
  22.3019987  64.5685006 150.2615017  25.9689987  60.9825006 137.2605017
  26.9259987  60.9825006 137.2605017  25.7289987  61.9095006 137.2605017
  19.1819987  60.7495006 144.2025017  20.1389987  60.7495006 144.2025017
  18.9419987  61.6765006 144.2025017  20.4429987  61.4535006 139.5495017
  21.3999987  61.4535006 139.5495017  20.2029987  62.3805006 139.5495017
  30.6249987  65.0715006 149.6165017  31.5819987  65.0715006 149.6165017
  30.3849987  65.9985006 149.6165017  27.4219987  61.0255006 144.4305017
  28.3789987  61.0255006 144.4305017  27.1819987  61.9525006 144.4305017
  22.2369987  62.6025006 143.2945017  23.1939987  62.6025006 143.2945017
  21.9969987  63.5295006 143.2945017  25.8769987  62.6555006 140.9485017
  26.8339987  62.6555006 140.9485017  25.6369987  63.5825006 140.9485017
  31.8289987  60.2645006 147.6815017  32.7859987  60.2645006 147.6815017
  31.5889987  61.1915006 147.6815017  24.5369987  63.8485006 138.4985017
  25.4939987  63.8485006 138.4985017  24.2969987  64.7755006 138.4985017
  35.0439987  75.9145006 153.9915017  36.0009987  75.9145006 153.9915017
  34.8039987  76.8415006 153.9915017  22.7119987  68.3795006 153.5675017
  23.6689987  68.3795006 153.5675017  22.4719987  69.3065006 153.5675017
  28.7109987  63.7935006 146.3265017  29.6679987  63.7935006 146.3265017
  28.4709987  64.7205006 146.3265017  23.7219987  59.9385006 142.7595017
  24.6789987  59.9385006 142.7595017  23.4819987  60.8655006 142.7595017
  27.3499987  62.1325006 148.7395017  28.3069987  62.1325006 148.7395017
  27.1099987  63.0595006 148.7395017  27.9349987  68.3565006 140.4265017
  28.8919987  68.3565006 140.4265017  27.6949987  69.2835006 140.4265017
  35.0989987  67.5345006 149.2375017  36.0559987  67.5345006 149.2375017
  34.8589987  68.4615006 149.2375017  31.7939987  61.1855006 138.5645017
  32.7509987  61.1855006 138.5645017  31.5539987  62.1125006 138.5645017
  29.4229987  68.5975006 151.6735017  30.3799987  68.5975006 151.6735017
  29.1829987  69.5245006 151.6735017  32.5039987  63.0555006 140.2815017
  33.4609987  63.0555006 140.2815017  32.2639987  63.9825006 140.2815017
  23.0389987  67.7275006 146.2325017  23.9959987  67.7275006 146.2325017
  22.7989987  68.6545006 146.2325017  30.0339987  69.8075006 139.4555017
  30.9909987  69.8075006 139.4555017  29.7939987  70.7345006 139.4555017
  20.0319987  66.1495006 151.5015017  20.9889987  66.1495006 151.5015017
  19.7919987  67.0765006 151.5015017  27.0449987  65.7015006 153.6945017
  28.0019987  65.7015006 153.6945017  26.8049987  66.6285006 153.6945017
  31.7159987  71.0335006 151.6165017  32.6729987  71.0335006 151.6165017
  31.4759987  71.9605006 151.6165017  37.4589987  63.2415006 140.0215017
  38.4159987  63.2415006 140.0215017  37.2189987  64.1685006 140.0215017
  37.3859987  69.0815006 152.8315017  38.3429987  69.0815006 152.8315017
  37.1459987  70.0085006 152.8315017  35.7249987  72.0425006 140.4285017
  36.6819987  72.0425006 140.4285017  35.4849987  72.9695006 140.4285017
  32.8899987  66.8695006 147.5115017  33.8469987  66.8695006 147.5115017
  32.6499987  67.7965006 147.5115017  25.4139987  71.1935006 143.6165017
  26.3709987  71.1935006 143.6165017  25.1739987  72.1205006 143.6165017
  21.1839987  66.0385006 138.1525017  22.1409987  66.0385006 138.1525017
  20.9439987  66.9655006 138.1525017  26.8369987  68.8575006 143.1425017
  27.7939987  68.8575006 143.1425017  26.5969987  69.7845006 143.1425017
  27.2919987  73.0345006 149.5325017  28.2489987  73.0345006 149.5325017
  27.0519987  73.9615006 149.5325017  25.5089987  73.8605006 142.6955017
  26.4659987  73.8605006 142.6955017  25.2689987  74.7875006 142.6955017
  30.8329987  69.0655006 149.1755017  31.7899987  69.0655006 149.1755017
  30.5929987  69.9925006 149.1755017  33.0899987  70.0915006 138.2625017
  34.0469987  70.0915006 138.2625017  32.8499987  71.0185006 138.2625017
  33.6009987  73.6355006 151.6685017  34.5579987  73.6355006 151.6685017
  33.3609987  74.5625006 151.6685017  37.6029987  74.5005006 138.5015017
  38.5599987  74.5005006 138.5015017  37.3629987  75.4275006 138.5015017
  21.6829987  60.8865006 151.0505017  22.6399987  60.8865006 151.0505017
  21.4429987  61.8135006 151.0505017  33.9309987  68.7455006 140.5055017
  34.8879987  68.7455006 140.5055017  33.6909987  69.6725006 140.5055017
  21.3059987  72.6795006 149.4815017  22.2629987  72.6795006 149.4815017
  21.0659987  73.6065006 149.4815017  27.3489987  71.1665006 136.7905017
  28.3059987  71.1665006 136.7905017  27.1089987  72.0935006 136.7905017
  26.0719987  70.7245006 139.1825017  27.0289987  70.7245006 139.1825017
  25.8319987  71.6515006 139.1825017  22.5619987  67.9785006 139.6415017
  23.5189987  67.9785006 139.6415017  22.3219987  68.9055006 139.6415017
  30.4089987  60.6515006 149.9895017  31.3659987  60.6515006 149.9895017
  30.1689987  61.5785006 149.9895017  31.1529987  60.2615006 141.0835017
  32.1099987  60.2615006 141.0835017  30.9129987  61.1885006 141.0835017
  28.8509987  72.3955006 139.9515017  29.8079987  72.3955006 139.9515017
  28.6109987  73.3225006 139.9515017  28.3839987  61.9925006 141.8965017
  29.3409987  61.9925006 141.8965017  28.1439987  62.9195006 141.8965017
  28.9379987  62.9995006 151.0945017  29.8949987  62.9995006 151.0945017
  28.6979987  63.9265006 151.0945017  29.2459987  59.0435006 142.8015017
  30.2029987  59.0435006 142.8015017  29.0059987  59.9705006 142.8015017
  26.2229987  73.4275006 139.9265017  27.1799987  73.4275006 139.9265017
  25.9829987  74.3545006 139.9265017  24.8849987  60.1345006 139.5325017
  25.8419987  60.1345006 139.5325017  24.6449987  61.0615006 139.5325017
  35.1319987  60.8765006 151.9425017  36.0889987  60.8765006 151.9425017
  34.8919987  61.8035006 151.9425017  33.7369987  64.6585006 145.9675017
  34.6939987  64.6585006 145.9675017  33.4969987  65.5855006 145.9675017
  23.1749987  70.5375006 138.5995017  24.1319987  70.5375006 138.5995017
  22.9349987  71.4645006 138.5995017  21.4979987  63.2405006 137.7145017
  22.4549987  63.2405006 137.7145017  21.2579987  64.1675006 137.7145017
  34.7979987  73.9085006 147.6355017  35.7549987  73.9085006 147.6355017
  34.5579987  74.8355006 147.6355017  22.2999987  58.0405006 146.4175017
  23.2569987  58.0405006 146.4175017  22.0599987  58.9675006 146.4175017
  21.2459987  71.9525006 142.5475017  22.2029987  71.9525006 142.5475017
  21.0059987  72.8795006 142.5475017  20.4709987  74.6085006 153.8665017
  21.4279987  74.6085006 153.8665017  20.2309987  75.5355006 153.8665017
  25.1269987  73.5255006 155.4815017  26.0839987  73.5255006 155.4815017
  24.8869987  74.4525006 155.4815017  29.4339987  72.6515006 137.3685017
  30.3909987  72.6515006 137.3685017  29.1939987  73.5785006 137.3685017
  31.6579987  71.9075006 154.2145017  32.6149987  71.9075006 154.2145017
  31.4179987  72.8345006 154.2145017  33.6289987  72.7465006 137.2595017
  34.5859987  72.7465006 137.2595017  33.3889987  73.6735006 137.2595017
  20.3909987  68.3915006 154.8515017  21.3479987  68.3915006 154.8515017
  20.1509987  69.3185006 154.8515017  24.8809987  68.7565006 137.0485017
  25.8379987  68.7565006 137.0485017  24.6409987  69.6835006 137.0485017
  27.0869987  68.3705006 154.2495017  28.0439987  68.3705006 154.2495017
  26.8469987  69.2975006 154.2495017  30.0659987  69.7955006 136.6555017
  31.0229987  69.7955006 136.6555017  29.8259987  70.7225006 136.6555017
  32.7909987  68.2405006 151.6355017  33.7479987  68.2405006 151.6355017
  32.5509987  69.1675006 151.6355017  21.2819987  65.6095006 154.2375017
  22.2389987  65.6095006 154.2375017  21.0419987  66.5365006 154.2375017
  25.9209987  66.7335006 139.2725017  26.8779987  66.7335006 139.2725017
  25.6809987  67.6605006 139.2725017  25.1939987  64.5665006 151.6035017
  26.1509987  64.5665006 151.6035017  24.9539987  65.4935006 151.6035017
  27.0369987  64.6445006 137.7985017  27.9939987  64.6445006 137.7985017
  26.7969987  65.5715006 137.7985017  30.2489987  67.1095006 154.9185017
  31.2059987  67.1095006 154.9185017  30.0089987  68.0365006 154.9185017
  36.4259987  67.5005006 137.2895017  37.3829987  67.5005006 137.2895017
  36.1859987  68.4275006 137.2895017  25.5869987  61.9405006 152.6725017
  26.5439987  61.9405006 152.6725017  25.3469987  62.8675006 152.6725017
  25.9869987  60.3175006 150.2045017  26.9439987  60.3175006 150.2045017
  25.7469987  61.2445006 150.2045017  27.5369987  65.7865006 150.4505017
  28.4939987  65.7865006 150.4505017  27.2969987  66.7135006 150.4505017
  31.9339987  63.5665006 155.4195017  32.8909987  63.5665006 155.4195017
  31.6939987  64.4935006 155.4195017  33.2629987  66.3455006 153.5615017
  34.2199987  66.3455006 153.5615017  33.0229987  67.2725006 153.5615017
  24.0459987  63.1825006 154.5855017  25.0029987  63.1825006 154.5855017
  23.8059987  64.1095006 154.5855017  26.7809987  57.7565006 150.6105017
  27.7379987  57.7565006 150.6105017  26.5409987  58.6835006 150.6105017
  28.0539987  62.0855006 154.2085017  29.0109987  62.0855006 154.2085017
  27.8139987  63.0125006 154.2085017  30.7699987  61.2205006 153.2875017
  31.7269987  61.2205006 153.2875017  30.5299987  62.1475006 153.2875017
  32.3659987  59.8505006 155.2265017  33.3229987  59.8505006 155.2265017
  32.1259987  60.7775006 155.2265017  22.1419987  61.1085006 154.3185017
  23.0989987  61.1085006 154.3185017  21.9019987  62.0355006 154.3185017
  26.9919987  57.1245006 153.3025017  27.9489987  57.1245006 153.3025017
  26.7519987  58.0515006 153.3025017  27.3589987  58.7585006 155.3915017
  28.3159987  58.7585006 155.3915017  27.1189987  59.6855006 155.3915017
  26.8419987  75.6765006 138.5745017  27.7989987  75.6765006 138.5745017
  26.6019987  76.6035006 138.5745017  20.3949987  70.1995006 138.1265017
  21.3519987  70.1995006 138.1265017  20.1549987  71.1265006 138.1265017
  19.1559987  75.6445006 143.0325017  20.1129987  75.6445006 143.0325017
  18.9159987  76.5715006 143.0325017  19.9839987  73.7615006 144.8835017
  20.9409987  73.7615006 144.8835017  19.7439987  74.6885006 144.8835017
  37.5179987  74.5585006 147.8355017  38.4749987  74.5585006 147.8355017
  37.2779987  75.4855006 147.8355017  37.0929987  74.1575006 150.7765017
  38.0499987  74.1575006 150.7765017  36.8529987  75.0845006 150.7765017
  35.5389987  69.8755006 155.4265017  36.4959987  69.8755006 155.4265017
  35.2989987  70.8025006 155.4265017  36.8649987  68.1835006 140.8805017
  37.8219987  68.1835006 140.8805017  36.6249987  69.1105006 140.8805017
  37.2379987  66.2425006 142.7485017  38.1949987  66.2425006 142.7485017
  36.9979987  67.1695006 142.7485017  36.9759987  68.9855006 147.7395017
  37.9329987  68.9855006 147.7395017  36.7359987  69.9125006 147.7395017
  35.5219987  71.8825006 150.0215017  36.4789987  71.8825006 150.0215017
  35.2819987  72.8095006 150.0215017  37.5429987  66.0795006 139.1915017
  38.4999987  66.0795006 139.1915017  37.3029987  67.0065006 139.1915017
  35.9929987  63.2615006 137.9055017  36.9499987  63.2615006 137.9055017
  35.7529987  64.1885006 137.9055017  35.0529987  64.7505006 143.3205017
  36.0099987  64.7505006 143.3205017  34.8129987  65.6775006 143.3205017
  20.0379987  66.8385006 147.3765017  20.9949987  66.8385006 147.3765017
  19.7979987  67.7655006 147.3765017  35.8849987  66.7235006 153.0005017
  36.8419987  66.7235006 153.0005017  35.6449987  67.6505006 153.0005017
  37.3929987  64.6165006 153.6655017  38.3499987  64.6165006 153.6655017
  37.1529987  65.5435006 153.6655017  35.0599987  60.8285006 136.9705017
  36.0169987  60.8285006 136.9705017  34.8199987  61.7555006 136.9705017
  34.7059987  62.3455006 141.7895017  35.6629987  62.3455006 141.7895017
  34.4659987  63.2725006 141.7895017  35.3369987  62.8845006 147.2255017
  36.2939987  62.8845006 147.2255017  35.0969987  63.8115006 147.2255017
  35.4059987  63.6115006 150.0135017  36.3629987  63.6115006 150.0135017
  35.1659987  64.5385006 150.0135017  19.6499987  62.1375006 153.5225017
  20.6069987  62.1375006 153.5225017  19.4099987  63.0645006 153.5225017
  37.6689987  57.6525006 155.3615017  38.6259987  57.6525006 155.3615017
  37.4289987  58.5795006 155.3615017  35.3639987  59.6165006 141.8355017
  36.3209987  59.6165006 141.8355017  35.1239987  60.5435006 141.8355017
  20.8549987  60.4265006 146.3825017  21.8119987  60.4265006 146.3825017
  20.6149987  61.3535006 146.3825017  19.1439987  63.4205006 147.4335017
  20.1009987  63.4205006 147.4335017  18.9039987  64.3475006 147.4335017
  37.1989987  59.7585006 153.7135017  38.1559987  59.7585006 153.7135017
  36.9589987  60.6855006 153.7135017  37.2589987  59.5915006 138.5895017
  38.2159987  59.5915006 138.5895017  37.0189987  60.5185006 138.5895017
  19.5079987  59.6875006 141.5055017  20.4649987  59.6875006 141.5055017
  19.2679987  60.6145006 141.5055017  34.2459987  74.6385006 143.4465017
  35.2029987  74.6385006 143.4465017  34.0059987  75.5655006 143.4465017
  19.4619987  58.3655006 149.8095017  20.4189987  58.3655006 149.8095017
  19.2219987  59.2925006 149.8095017  21.6819987  71.5515006 153.9665017
  22.6389987  71.5515006 153.9665017  21.4419987  72.4785006 153.9665017
  24.5929987  72.5465006 150.2415017  25.5499987  72.5465006 150.2415017
  24.3529987  73.4735006 150.2415017  28.9129987  73.9715006 153.1565017
  29.8699987  73.9715006 153.1565017  28.6729987  74.8985006 153.1565017
  31.2109987  75.2415006 152.4455017  32.1679987  75.2415006 152.4455017
  30.9709987  76.1685006 152.4455017  36.2119987  57.8545006 151.5495017
  37.1689987  57.8545006 151.5495017  35.9719987  58.7815006 151.5495017
  22.0189987  75.7925006 150.2495017  22.9759987  75.7925006 150.2495017
  21.7789987  76.7195006 150.2495017  24.4889987  75.3745006 149.3125017
  25.4459987  75.3745006 149.3125017  24.2489987  76.3015006 149.3125017
  29.1909987  75.2835006 148.4805017  30.1479987  75.2835006 148.4805017
  28.9509987  76.2105006 148.4805017  31.4979987  74.1145006 149.4785017
  32.4549987  74.1145006 149.4785017  31.2579987  75.0415006 149.4785017
  34.0779987  75.6805006 149.7365017  35.0349987  75.6805006 149.7365017
  33.8379987  76.6075006 149.7365017  21.4539987  74.4415006 147.1795017
  22.4109987  74.4415006 147.1795017  21.2139987  75.3685006 147.1795017
  23.5489987  73.1535006 145.8325017  24.5059987  73.1535006 145.8325017
  23.3089987  74.0805006 145.8325017  26.1369987  73.6365006 146.7035017
  27.0939987  73.6365006 146.7035017  25.8969987  74.5635006 146.7035017
  29.6069987  59.2875006 145.8365017  30.5639987  59.2875006 145.8365017
  29.3669987  60.2145006 145.8365017  34.7429987  57.3455006 145.9295017
  35.6999987  57.3455006 145.9295017  34.5029987  58.2725006 145.9295017
  36.4279987  58.5625006 144.2295017  37.3849987  58.5625006 144.2295017
  36.1879987  59.4895006 144.2295017  21.9689987  57.9165006 143.6855017
  22.9259987  57.9165006 143.6855017  21.7289987  58.8435006 143.6855017
  20.7319987  57.6795006 139.3905017  21.6889987  57.6795006 139.3905017
  20.4919987  58.6065006 139.3905017  26.5019987  57.7815006 143.4595017
  27.4589987  57.7815006 143.4595017  26.2619987  58.7085006 143.4595017
  32.1379987  57.8605006 145.1155017  33.0949987  57.8605006 145.1155017
  31.8979987  58.7875006 145.1155017  33.4439987  57.8965006 140.7475017
  34.4009987  57.8965006 140.7475017  33.2039987  58.8235006 140.7475017
  20.7049987  73.6365006 140.3705017  21.6619987  73.6365006 140.3705017
  20.4649987  74.5635006 140.3705017  22.5819987  59.6395006 137.9485017
  23.5389987  59.6395006 137.9485017  22.3419987  60.5665006 137.9485017
  27.6259987  59.8725006 140.3455017  28.5829987  59.8725006 140.3455017
  27.3859987  60.7995006 140.3455017  29.5149987  74.9775006 138.7485017
  30.4719987  74.9775006 138.7485017  29.2749987  75.9045006 138.7485017
  36.2539987  74.4425006 141.4815017  37.2109987  74.4425006 141.4815017
  36.0139987  75.3695006 141.4815017  21.8679987  58.4495006 153.1495017
  22.8249987  58.4495006 153.1495017  21.6279987  59.3765006 153.1495017
  23.8719987  57.8235006 154.7625017  24.8289987  57.8235006 154.7625017
  23.6319987  58.7505006 154.7625017  22.6169987  74.6665006 137.4745017
  23.5739987  74.6665006 137.4745017  22.3769987  75.5935006 137.4745017
  32.2759987  57.1255006 154.9215017  33.2329987  57.1255006 154.9215017
  32.0359987  58.0525006 154.9215017  35.4859987  73.1685006 153.5795017
  36.4429987  73.1685006 153.5795017  35.2459987  74.0955006 153.5795017
  49.9109987  67.0575006 143.5905017  50.8679987  67.0575006 143.5905017
  49.6709987  67.9845006 143.5905017  48.7769987  66.3165006 147.0615017
  49.7339987  66.3165006 147.0615017  48.5369987  67.2435006 147.0615017
  41.1399987  65.9705006 148.6095017  42.0969987  65.9705006 148.6095017
  40.8999987  66.8975006 148.6095017  52.4829987  69.2565006 145.3325017
  53.4399987  69.2565006 145.3325017  52.2429987  70.1835006 145.3325017
  42.0679987  70.4205006 147.1315017  43.0249987  70.4205006 147.1315017
  41.8279987  71.3475006 147.1315017  38.7409987  64.0105006 142.5155017
  39.6979987  64.0105006 142.5155017  38.5009987  64.9375006 142.5155017
  39.3959987  66.1945006 144.6995017  40.3529987  66.1945006 144.6995017
  39.1559987  67.1215006 144.6995017  49.5949987  74.4065006 145.5685017
  50.5519987  74.4065006 145.5685017  49.3549987  75.3335006 145.5685017
  47.1599987  68.7235006 147.4985017  48.1169987  68.7235006 147.4985017
  46.9199987  69.6505006 147.4985017  55.7799987  60.3565006 148.2655017
  56.7369987  60.3565006 148.2655017  55.5399987  61.2835006 148.2655017
  50.3249987  63.1765006 147.8235017  51.2819987  63.1765006 147.8235017
  50.0849987  64.1035006 147.8235017  43.4509987  61.2595006 145.0635017
  44.4079987  61.2595006 145.0635017  43.2109987  62.1865006 145.0635017
  51.1789987  61.3525006 143.4255017  52.1359987  61.3525006 143.4255017
  50.9389987  62.2795006 143.4255017  40.0719987  63.6715006 145.7865017
  41.0289987  63.6715006 145.7865017  39.8319987  64.5985006 145.7865017
  45.2339987  65.2265006 145.0815017  46.1909987  65.2265006 145.0815017
  44.9939987  66.1535006 145.0815017  56.2149987  61.7845006 150.5185017
  57.1719987  61.7845006 150.5185017  55.9749987  62.7115006 150.5185017
  42.3339987  60.1615006 149.1015017  43.2909987  60.1615006 149.1015017
  42.0939987  61.0885006 149.1015017  49.6449987  69.6555006 142.6355017
  50.6019987  69.6555006 142.6355017  49.4049987  70.5825006 142.6355017
  44.8659987  67.8095006 149.3555017  45.8229987  67.8095006 149.3555017
  44.6259987  68.7365006 149.3555017  52.9739987  60.6885006 145.4185017
  53.9309987  60.6885006 145.4185017  52.7339987  61.6155006 145.4185017
  41.8949987  62.0325006 147.1085017  42.8519987  62.0325006 147.1085017
  41.6549987  62.9595006 147.1085017  43.3029987  69.7995006 150.1655017
  44.2599987  69.7995006 150.1655017  43.0629987  70.7265006 150.1655017
  39.3919987  69.4195006 140.9895017  40.3489987  69.4195006 140.9895017
  39.1519987  70.3465006 140.9895017  53.0059987  71.0905006 147.7025017
  53.9629987  71.0905006 147.7025017  52.7659987  72.0175006 147.7025017
  53.3199987  59.3785006 149.0995017  54.2769987  59.3785006 149.0995017
  53.0799987  60.3055006 149.0995017  46.3029987  57.4915006 146.5595017
  47.2599987  57.4915006 146.5595017  46.0629987  58.4185006 146.5595017
  51.2589987  72.8755006 144.3045017  52.2159987  72.8755006 144.3045017
  51.0189987  73.8025006 144.3045017  52.4569987  70.7985006 142.8225017
  53.4139987  70.7985006 142.8225017  52.2169987  71.7255006 142.8225017
  54.0959987  69.3845006 151.3065017  55.0529987  69.3845006 151.3065017
  53.8559987  70.3115006 151.3065017  48.5939987  66.2965006 141.0815017
  49.5509987  66.2965006 141.0815017  48.3539987  67.2235006 141.0815017
  48.6469987  64.8525006 138.3345017  49.6039987  64.8525006 138.3345017
  48.4069987  65.7795006 138.3345017  55.9719987  65.6975006 149.3605017
  56.9289987  65.6975006 149.3605017  55.7319987  66.6245006 149.3605017
  52.0169987  66.5135006 142.0135017  52.9739987  66.5135006 142.0135017
  51.7769987  67.4405006 142.0135017  51.9479987  64.6665006 151.1045017
  52.9049987  64.6665006 151.1045017  51.7079987  65.5935006 151.1045017
  43.6479987  67.1705006 143.9115017  44.6049987  67.1705006 143.9115017
  43.4079987  68.0975006 143.9115017  44.9719987  70.5645006 146.5895017
  45.9289987  70.5645006 146.5895017  44.7319987  71.4915006 146.5895017
  43.9809987  65.9065006 147.5585017  44.9379987  65.9065006 147.5585017
  43.7409987  66.8335006 147.5585017  50.3639987  71.4685006 148.2665017
  51.3209987  71.4685006 148.2665017  50.1239987  72.3955006 148.2665017
  44.9179987  70.3285006 152.2615017  45.8749987  70.3285006 152.2615017
  44.6779987  71.2555006 152.2615017  50.8789987  65.6755006 139.6725017
  51.8359987  65.6755006 139.6725017  50.6389987  66.6025006 139.6725017
  41.8519987  66.4965006 151.4385017  42.8089987  66.4965006 151.4385017
  41.6119987  67.4235006 151.4385017  48.6049987  72.4135006 143.1495017
  49.5619987  72.4135006 143.1495017  48.3649987  73.3405006 143.1495017
  43.1589987  72.3785006 153.0165017  44.1159987  72.3785006 153.0165017
  42.9189987  73.3055006 153.0165017  54.6189987  57.4175006 139.4895017
  55.5759987  57.4175006 139.4895017  54.3789987  58.3445006 139.4895017
  42.6159987  66.1965006 141.5215017  43.5729987  66.1965006 141.5215017
  42.3759987  67.1235006 141.5215017  55.7459987  71.7555006 137.9545017
  56.7029987  71.7555006 137.9545017  55.5059987  72.6825006 137.9545017
  38.7059987  68.6075006 150.3895017  39.6629987  68.6075006 150.3895017
  38.4659987  69.5345006 150.3895017  38.4649987  71.3465006 147.1945017
  39.4219987  71.3465006 147.1945017  38.2249987  72.2735006 147.1945017
  56.7009987  72.0475006 152.8805017  57.6579987  72.0475006 152.8805017
  56.4609987  72.9745006 152.8805017  47.6579987  71.5915006 151.7435017
  48.6149987  71.5915006 151.7435017  47.4179987  72.5185006 151.7435017
  48.0699987  75.3415006 141.5255017  49.0269987  75.3415006 141.5255017
  47.8299987  76.2685006 141.5255017  41.7339987  74.2045006 143.3615017
  42.6909987  74.2045006 143.3615017  41.4939987  75.1315006 143.3615017
  51.0919987  74.5625006 138.5225017  52.0489987  74.5625006 138.5225017
  50.8519987  75.4895006 138.5225017  50.8369987  74.4815006 141.3105017
  51.7939987  74.4815006 141.3105017  50.5969987  75.4085006 141.3105017
  53.8399987  63.5235006 153.3605017  54.7969987  63.5235006 153.3605017
  53.5999987  64.4505006 153.3605017  40.9799987  69.9265006 151.3565017
  41.9369987  69.9265006 151.3565017  40.7399987  70.8535006 151.3565017
  43.6489987  58.3925006 147.3135017  44.6059987  58.3925006 147.3135017
  43.4089987  59.3195006 147.3135017  48.2949987  58.0785006 150.6855017
  49.2519987  58.0785006 150.6855017  48.0549987  59.0055006 150.6855017
  51.5929987  61.8925006 151.5715017  52.5499987  61.8925006 151.5715017
  51.3529987  62.8195006 151.5715017  52.4949987  66.7895006 137.8345017
  53.4519987  66.7895006 137.8345017  52.2549987  67.7165006 137.8345017
  47.9499987  60.6335006 138.0095017  48.9069987  60.6335006 138.0095017
  47.7099987  61.5605006 138.0095017  43.7509987  63.3575006 148.5295017
  44.7079987  63.3575006 148.5295017  43.5109987  64.2845006 148.5295017
  43.7059987  63.5325006 143.4005017  44.6629987  63.5325006 143.4005017
  43.4659987  64.4595006 143.4005017  49.2299987  63.9755006 142.1675017
  50.1869987  63.9755006 142.1675017  48.9899987  64.9025006 142.1675017
  48.3109987  64.1935006 153.6415017  49.2679987  64.1935006 153.6415017
  48.0709987  65.1205006 153.6415017  50.2649987  63.4665006 145.0305017
  51.2219987  63.4665006 145.0305017  50.0249987  64.3935006 145.0305017
  41.3979987  63.6415006 150.2615017  42.3549987  63.6415006 150.2615017
  41.1579987  64.5685006 150.2615017  44.8299987  60.9755006 137.2565017
  45.7869987  60.9755006 137.2565017  44.5899987  61.9025006 137.2565017
  38.0549987  60.7795006 144.1865017  39.0119987  60.7795006 144.1865017
  37.8149987  61.7065006 144.1865017  39.2259987  61.3415006 139.4635017
  40.1829987  61.3415006 139.4635017  38.9859987  62.2685006 139.4635017
  49.4809987  65.0715006 149.6165017  50.4379987  65.0715006 149.6165017
  49.2409987  65.9985006 149.6165017  46.2779987  61.0275006 144.4305017
  47.2349987  61.0275006 144.4305017  46.0379987  61.9545006 144.4305017
  41.1039987  62.6245006 143.2215017  42.0609987  62.6245006 143.2215017
  40.8639987  63.5515006 143.2215017  44.7219987  62.6635006 140.9495017
  45.6789987  62.6635006 140.9495017  44.4819987  63.5905006 140.9495017
  50.6819987  60.2655006 147.6825017  51.6389987  60.2655006 147.6825017
  50.4419987  61.1925006 147.6825017  43.3699987  63.8485006 138.5005017
  44.3269987  63.8485006 138.5005017  43.1299987  64.7755006 138.5005017
  53.8989987  75.9155006 153.9965017  54.8559987  75.9155006 153.9965017
  53.6589987  76.8425006 153.9965017  41.5679987  68.3815006 153.5695017
  42.5249987  68.3815006 153.5695017  41.3279987  69.3085006 153.5695017
  47.5659987  63.7935006 146.3265017  48.5229987  63.7935006 146.3265017
  47.3259987  64.7205006 146.3265017  42.5589987  59.9535006 142.7345017
  43.5159987  59.9535006 142.7345017  42.3189987  60.8805006 142.7345017
  46.2059987  62.1335006 148.7395017  47.1629987  62.1335006 148.7395017
  45.9659987  63.0605006 148.7395017  46.7899987  68.3555006 140.4265017
  47.7469987  68.3555006 140.4265017  46.5499987  69.2825006 140.4265017
  53.9549987  67.5345006 149.2375017  54.9119987  67.5345006 149.2375017
  53.7149987  68.4615006 149.2375017  50.6499987  61.1885006 138.5645017
  51.6069987  61.1885006 138.5645017  50.4099987  62.1155006 138.5645017
  48.2789987  68.5975006 151.6735017  49.2359987  68.5975006 151.6735017
  48.0389987  69.5245006 151.6735017  51.3589987  63.0555006 140.2815017
  52.3159987  63.0555006 140.2815017  51.1189987  63.9825006 140.2815017
  41.8949987  67.7275006 146.2325017  42.8519987  67.7275006 146.2325017
  41.6549987  68.6545006 146.2325017  48.8899987  69.8075006 139.4555017
  49.8469987  69.8075006 139.4555017  48.6499987  70.7345006 139.4555017
  38.8869987  66.1505006 151.5015017  39.8439987  66.1505006 151.5015017
  38.6469987  67.0775006 151.5015017  45.9009987  65.7015006 153.6945017
  46.8579987  65.7015006 153.6945017  45.6609987  66.6285006 153.6945017
  50.5719987  71.0335006 151.6165017  51.5289987  71.0335006 151.6165017
  50.3319987  71.9605006 151.6165017  56.2559987  63.2295006 140.0525017
  57.2129987  63.2295006 140.0525017  56.0159987  64.1565006 140.0525017
  56.2399987  69.0865006 152.8345017  57.1969987  69.0865006 152.8345017
  55.9999987  70.0135006 152.8345017  54.5789987  72.0425006 140.4285017
  55.5359987  72.0425006 140.4285017  54.3389987  72.9695006 140.4285017
  51.7459987  66.8695006 147.5115017  52.7029987  66.8695006 147.5115017
  51.5059987  67.7965006 147.5115017  44.2699987  71.1935006 143.6165017
  45.2269987  71.1935006 143.6165017  44.0299987  72.1205006 143.6165017
  40.0449987  65.9895006 138.2195017  41.0019987  65.9895006 138.2195017
  39.8049987  66.9165006 138.2195017  45.6929987  68.8595006 143.1435017
  46.6499987  68.8595006 143.1435017  45.4529987  69.7865006 143.1435017
  46.1479987  73.0345006 149.5325017  47.1049987  73.0345006 149.5325017
  45.9079987  73.9615006 149.5325017  44.3649987  73.8605006 142.6955017
  45.3219987  73.8605006 142.6955017  44.1249987  74.7875006 142.6955017
  49.6889987  69.0655006 149.1755017  50.6459987  69.0655006 149.1755017
  49.4489987  69.9925006 149.1755017  51.9459987  70.0925006 138.2625017
  52.9029987  70.0925006 138.2625017  51.7059987  71.0195006 138.2625017
  52.4569987  73.6355006 151.6685017  53.4139987  73.6355006 151.6685017
  52.2169987  74.5625006 151.6685017  56.4699987  74.4855006 138.5385017
  57.4269987  74.4855006 138.5385017  56.2299987  75.4125006 138.5385017
  40.5389987  60.8855006 151.0505017  41.4959987  60.8855006 151.0505017
  40.2989987  61.8125006 151.0505017  52.7869987  68.7455006 140.5045017
  53.7439987  68.7455006 140.5045017  52.5469987  69.6725006 140.5045017
  40.1619987  72.6795006 149.4805017  41.1189987  72.6795006 149.4805017
  39.9219987  73.6065006 149.4805017  46.2049987  71.1665006 136.7905017
  47.1619987  71.1665006 136.7905017  45.9649987  72.0935006 136.7905017
  44.9269987  70.7245006 139.1825017  45.8839987  70.7245006 139.1825017
  44.6869987  71.6515006 139.1825017  41.4109987  67.9685006 139.6445017
  42.3679987  67.9685006 139.6445017  41.1709987  68.8955006 139.6445017
  49.2629987  60.6515006 149.9875017  50.2199987  60.6515006 149.9875017
  49.0229987  61.5785006 149.9875017  50.0089987  60.2615006 141.0835017
  50.9659987  60.2615006 141.0835017  49.7689987  61.1885006 141.0835017
  47.7069987  72.3975006 139.9535017  48.6639987  72.3975006 139.9535017
  47.4669987  73.3245006 139.9535017  47.2379987  61.9935006 141.8965017
  48.1949987  61.9935006 141.8965017  46.9979987  62.9205006 141.8965017
  47.7939987  62.9995006 151.0945017  48.7509987  62.9995006 151.0945017
  47.5539987  63.9265006 151.0945017  48.1069987  59.0455006 142.8095017
  49.0639987  59.0455006 142.8095017  47.8669987  59.9725006 142.8095017
  45.0789987  73.4275006 139.9265017  46.0359987  73.4275006 139.9265017
  44.8389987  74.3545006 139.9265017  43.7319987  60.1445006 139.5395017
  44.6889987  60.1445006 139.5395017  43.4919987  61.0715006 139.5395017
  53.9679987  60.8795006 151.9325017  54.9249987  60.8795006 151.9325017
  53.7279987  61.8065006 151.9325017  52.5879987  64.6615006 145.9735017
  53.5449987  64.6615006 145.9735017  52.3479987  65.5885006 145.9735017
  42.0309987  70.5365006 138.5995017  42.9879987  70.5365006 138.5995017
  41.7909987  71.4635006 138.5995017  40.3189987  63.2425006 137.7935017
  41.2759987  63.2425006 137.7935017  40.0789987  64.1695006 137.7935017
  53.6509987  73.9155006 147.6375017  54.6079987  73.9155006 147.6375017
  53.4109987  74.8425006 147.6375017  41.1549987  58.0415006 146.4175017
  42.1119987  58.0415006 146.4175017  40.9149987  58.9685006 146.4175017
  40.1019987  71.9515006 142.5475017  41.0589987  71.9515006 142.5475017
  39.8619987  72.8785006 142.5475017  39.3389987  74.5945006 153.8515017
  40.2959987  74.5945006 153.8515017  39.0989987  75.5215006 153.8515017
  43.9859987  73.5265006 155.4775017  44.9429987  73.5265006 155.4775017
  43.7459987  74.4535006 155.4775017  48.2889987  72.6515006 137.3685017
  49.2459987  72.6515006 137.3685017  48.0489987  73.5785006 137.3685017
  50.5139987  71.9065006 154.2135017  51.4709987  71.9065006 154.2135017
  50.2739987  72.8335006 154.2135017  52.4819987  72.7455006 137.2615017
  53.4389987  72.7455006 137.2615017  52.2419987  73.6725006 137.2615017
  39.2499987  68.3805006 154.8335017  40.2069987  68.3805006 154.8335017
  39.0099987  69.3075006 154.8335017  43.7359987  68.7565006 137.0475017
  44.6929987  68.7565006 137.0475017  43.4959987  69.6835006 137.0475017
  45.9439987  68.3695006 154.2485017  46.9009987  68.3695006 154.2485017
  45.7039987  69.2965006 154.2485017  48.9219987  69.7955006 136.6555017
  49.8789987  69.7955006 136.6555017  48.6819987  70.7225006 136.6555017
  51.6469987  68.2405006 151.6355017  52.6039987  68.2405006 151.6355017
  51.4069987  69.1675006 151.6355017  40.1369987  65.6095006 154.2405017
  41.0939987  65.6095006 154.2405017  39.8969987  66.5365006 154.2405017
  44.7629987  66.7305006 139.2665017  45.7199987  66.7305006 139.2665017
  44.5229987  67.6575006 139.2665017  44.0489987  64.5675006 151.6045017
  45.0059987  64.5675006 151.6045017  43.8089987  65.4945006 151.6045017
  45.8909987  64.6435006 137.7985017  46.8479987  64.6435006 137.7985017
  45.6509987  65.5705006 137.7985017  49.1059987  67.1115006 154.9185017
  50.0629987  67.1115006 154.9185017  48.8659987  68.0385006 154.9185017
  55.2789987  67.4985006 137.2875017  56.2359987  67.4985006 137.2875017
  55.0389987  68.4255006 137.2875017  44.4429987  61.9405006 152.6725017
  45.3999987  61.9405006 152.6725017  44.2029987  62.8675006 152.6725017
  44.8429987  60.3175006 150.2045017  45.7999987  60.3175006 150.2045017
  44.6029987  61.2445006 150.2045017  46.3929987  65.7865006 150.4505017
  47.3499987  65.7865006 150.4505017  46.1529987  66.7135006 150.4505017
  50.7939987  63.5625006 155.4255017  51.7509987  63.5625006 155.4255017
  50.5539987  64.4895006 155.4255017  52.1199987  66.3495006 153.5645017
  53.0769987  66.3495006 153.5645017  51.8799987  67.2765006 153.5645017
  42.9019987  63.1825006 154.5855017  43.8589987  63.1825006 154.5855017
  42.6619987  64.1095006 154.5855017  45.6369987  57.7575006 150.6105017
  46.5939987  57.7575006 150.6105017  45.3969987  58.6845006 150.6105017
  46.9089987  62.0865006 154.2105017  47.8659987  62.0865006 154.2105017
  46.6689987  63.0135006 154.2105017  49.6269987  61.2205006 153.2865017
  50.5839987  61.2205006 153.2865017  49.3869987  62.1475006 153.2865017
  51.2209987  59.8515006 155.2265017  52.1779987  59.8515006 155.2265017
  50.9809987  60.7785006 155.2265017  40.9979987  61.1085006 154.3185017
  41.9549987  61.1085006 154.3185017  40.7579987  62.0355006 154.3185017
  45.8479987  57.1245006 153.3025017  46.8049987  57.1245006 153.3025017
  45.6079987  58.0515006 153.3025017  46.2149987  58.7585006 155.3915017
  47.1719987  58.7585006 155.3915017  45.9749987  59.6855006 155.3915017
  45.6979987  75.6765006 138.5755017  46.6549987  75.6765006 138.5755017
  45.4579987  76.6035006 138.5755017  39.2519987  70.1995006 138.1255017
  40.2089987  70.1995006 138.1255017  39.0119987  71.1265006 138.1255017
  38.0119987  75.6445006 143.0315017  38.9689987  75.6445006 143.0315017
  37.7719987  76.5715006 143.0315017  38.8399987  73.7615006 144.8835017
  39.7969987  73.7615006 144.8835017  38.5999987  74.6885006 144.8835017
  56.3739987  74.5585006 147.8355017  57.3309987  74.5585006 147.8355017
  56.1339987  75.4855006 147.8355017  55.9499987  74.1565006 150.7785017
  56.9069987  74.1565006 150.7785017  55.7099987  75.0835006 150.7785017
  54.3949987  69.8875006 155.4345017  55.3519987  69.8875006 155.4345017
  54.1549987  70.8145006 155.4345017  55.6949987  68.2115006 140.8945017
  56.6519987  68.2115006 140.8945017  55.4549987  69.1385006 140.8945017
  56.0559987  66.2955006 142.7655017  57.0129987  66.2955006 142.7655017
  55.8159987  67.2225006 142.7655017  55.8319987  68.9865006 147.7405017
  56.7889987  68.9865006 147.7405017  55.5919987  69.9135006 147.7405017
  54.3779987  71.8835006 150.0205017  55.3349987  71.8835006 150.0205017
  54.1379987  72.8105006 150.0205017  56.3689987  66.0855006 139.1795017
  57.3259987  66.0855006 139.1795017  56.1289987  67.0125006 139.1795017
  54.8289987  63.2655006 137.9045017  55.7859987  63.2655006 137.9045017
  54.5889987  64.1925006 137.9045017  53.8869987  64.7555006 143.3215017
  54.8439987  64.7555006 143.3215017  53.6469987  65.6825006 143.3215017
  38.8949987  66.8375006 147.3745017  39.8519987  66.8375006 147.3745017
  38.6549987  67.7645006 147.3745017  54.7369987  66.7215006 153.0035017
  55.6939987  66.7215006 153.0035017  54.4969987  67.6485006 153.0035017
  56.2469987  64.6245006 153.6595017  57.2039987  64.6245006 153.6595017
  56.0069987  65.5515006 153.6595017  53.9209987  60.8325006 136.9685017
  54.8779987  60.8325006 136.9685017  53.6809987  61.7595006 136.9685017
  53.5559987  62.3445006 141.7885017  54.5129987  62.3445006 141.7885017
  53.3159987  63.2715006 141.7885017  54.1919987  62.8865006 147.2245017
  55.1489987  62.8865006 147.2245017  53.9519987  63.8135006 147.2245017
  54.2609987  63.6115006 150.0135017  55.2179987  63.6115006 150.0135017
  54.0209987  64.5385006 150.0135017  38.5059987  62.1375006 153.5225017
  39.4629987  62.1375006 153.5225017  38.2659987  63.0645006 153.5225017
  56.4169987  57.5885006 155.3475017  57.3739987  57.5885006 155.3475017
  56.1769987  58.5155006 155.3475017  54.2199987  59.6175006 141.8365017
  55.1769987  59.6175006 141.8365017  53.9799987  60.5445006 141.8365017
  39.7109987  60.4265006 146.3825017  40.6679987  60.4265006 146.3825017
  39.4709987  61.3535006 146.3825017  38.0009987  63.4205006 147.4325017
  38.9579987  63.4205006 147.4325017  37.7609987  64.3475006 147.4325017
  55.7789987  59.7615006 153.6835017  56.7359987  59.7615006 153.6835017
  55.5389987  60.6885006 153.6835017  56.1139987  59.5905006 138.5875017
  57.0709987  59.5905006 138.5875017  55.8739987  60.5175006 138.5875017
  38.3629987  59.7195006 141.5275017  39.3199987  59.7195006 141.5275017
  38.1229987  60.6465006 141.5275017  53.1019987  74.6375006 143.4485017
  54.0589987  74.6375006 143.4485017  52.8619987  75.5645006 143.4485017
  38.3179987  58.3645006 149.8105017  39.2749987  58.3645006 149.8105017
  38.0779987  59.2915006 149.8105017  40.5349987  71.5645006 153.9855017
  41.4919987  71.5645006 153.9855017  40.2949987  72.4915006 153.9855017
  43.4489987  72.5455006 150.2415017  44.4059987  72.5455006 150.2415017
  43.2089987  73.4725006 150.2415017  47.7689987  73.9715006 153.1565017
  48.7259987  73.9715006 153.1565017  47.5289987  74.8985006 153.1565017
  50.0669987  75.2415006 152.4455017  51.0239987  75.2415006 152.4455017
  49.8269987  76.1685006 152.4455017  55.0589987  57.8485006 151.5415017
  56.0159987  57.8485006 151.5415017  54.8189987  58.7755006 151.5415017
  40.8749987  75.7935006 150.2495017  41.8319987  75.7935006 150.2495017
  40.6349987  76.7205006 150.2495017  43.3439987  75.3745006 149.3135017
  44.3009987  75.3745006 149.3135017  43.1039987  76.3015006 149.3135017
  48.0489987  75.2905006 148.4805017  49.0059987  75.2905006 148.4805017
  47.8089987  76.2175006 148.4805017  50.3539987  74.1145006 149.4785017
  51.3109987  74.1145006 149.4785017  50.1139987  75.0415006 149.4785017
  52.9389987  75.6855006 149.7375017  53.8959987  75.6855006 149.7375017
  52.6989987  76.6125006 149.7375017  40.3069987  74.4405006 147.1795017
  41.2639987  74.4405006 147.1795017  40.0669987  75.3675006 147.1795017
  42.4049987  73.1535006 145.8325017  43.3619987  73.1535006 145.8325017
  42.1649987  74.0805006 145.8325017  44.9949987  73.6345006 146.7025017
  45.9519987  73.6345006 146.7025017  44.7549987  74.5615006 146.7025017
  48.4649987  59.2895006 145.8445017  49.4219987  59.2895006 145.8445017
  48.2249987  60.2165006 145.8445017  53.5999987  57.3455006 145.9315017
  54.5569987  57.3455006 145.9315017  53.3599987  58.2725006 145.9315017
  55.2849987  58.5565006 144.2355017  56.2419987  58.5565006 144.2355017
  55.0449987  59.4835006 144.2355017  40.8259987  57.9225006 143.6805017
  41.7829987  57.9225006 143.6805017  40.5859987  58.8495006 143.6805017
  39.5979987  57.6735006 139.3975017  40.5549987  57.6735006 139.3975017
  39.3579987  58.6005006 139.3975017  45.3259987  57.8375006 143.4765017
  46.2829987  57.8375006 143.4765017  45.0859987  58.7645006 143.4765017
  50.9939987  57.8605006 145.1155017  51.9509987  57.8605006 145.1155017
  50.7539987  58.7875006 145.1155017  52.2969987  57.8935006 140.7485017
  53.2539987  57.8935006 140.7485017  52.0569987  58.8205006 140.7485017
  39.5619987  73.6345006 140.3725017  40.5189987  73.6345006 140.3725017
  39.3219987  74.5615006 140.3725017  41.4429987  59.6415006 137.9555017
  42.3999987  59.6415006 137.9555017  41.2029987  60.5685006 137.9555017
  46.4819987  59.8765006 140.3435017  47.4389987  59.8765006 140.3435017
  46.2419987  60.8035006 140.3435017  48.3699987  74.9765006 138.7465017
  49.3269987  74.9765006 138.7465017  48.1299987  75.9035006 138.7465017
  55.1089987  74.4425006 141.4825017  56.0659987  74.4425006 141.4825017
  54.8689987  75.3695006 141.4825017  40.7239987  58.4505006 153.1505017
  41.6809987  58.4505006 153.1505017  40.4839987  59.3775006 153.1505017
  42.7279987  57.8235006 154.7625017  43.6849987  57.8235006 154.7625017
  42.4879987  58.7505006 154.7625017  41.4549987  74.6885006 137.4725017
  42.4119987  74.6885006 137.4725017  41.2149987  75.6155006 137.4725017
  51.1329987  57.1325006 154.9265017  52.0899987  57.1325006 154.9265017
  50.8929987  58.0595006 154.9265017  54.3369987  73.1685006 153.5805017
  55.2939987  73.1685006 153.5805017  54.0969987  74.0955006 153.5805017
  68.7669987  67.0575006 143.5895017  69.7239987  67.0575006 143.5895017
  68.5269987  67.9845006 143.5895017  67.6309987  66.3145006 147.0575017
  68.5879987  66.3145006 147.0575017  67.3909987  67.2415006 147.0575017
  59.9989987  65.9685006 148.6045017  60.9559987  65.9685006 148.6045017
  59.7589987  66.8955006 148.6045017  71.3399987  69.2565006 145.3325017
  72.2969987  69.2565006 145.3325017  71.0999987  70.1835006 145.3325017
  60.9229987  70.4175006 147.1295017  61.8799987  70.4175006 147.1295017
  60.6829987  71.3445006 147.1295017  57.5339987  63.9935006 142.6295017
  58.4909987  63.9935006 142.6295017  57.2939987  64.9205006 142.6295017
  58.2659987  66.2225006 144.7335017  59.2229987  66.2225006 144.7335017
  58.0259987  67.1495006 144.7335017  68.4509987  74.4055006 145.5685017
  69.4079987  74.4055006 145.5685017  68.2109987  75.3325006 145.5685017
  66.0159987  68.7235006 147.4985017  66.9729987  68.7235006 147.4985017
  65.7759987  69.6505006 147.4985017  74.6359987  60.3565006 148.2655017
  75.5929987  60.3565006 148.2655017  74.3959987  61.2835006 148.2655017
  69.1809987  63.1755006 147.8235017  70.1379987  63.1755006 147.8235017
  68.9409987  64.1025006 147.8235017  62.3089987  61.2405006 145.0745017
  63.2659987  61.2405006 145.0745017  62.0689987  62.1675006 145.0745017
  70.0349987  61.3525006 143.4255017  70.9919987  61.3525006 143.4255017
  69.7949987  62.2795006 143.4255017  58.9139987  63.6675006 145.8095017
  59.8709987  63.6675006 145.8095017  58.6739987  64.5945006 145.8095017
  64.0949987  65.2285006 145.0875017  65.0519987  65.2285006 145.0875017
  63.8549987  66.1555006 145.0875017  75.0699987  61.7895006 150.5255017
  76.0269987  61.7895006 150.5255017  74.8299987  62.7165006 150.5255017
  61.1929987  60.1635006 149.0985017  62.1499987  60.1635006 149.0985017
  60.9529987  61.0905006 149.0985017  68.5009987  69.6555006 142.6355017
  69.4579987  69.6555006 142.6355017  68.2609987  70.5825006 142.6355017
  63.7219987  67.8095006 149.3565017  64.6789987  67.8095006 149.3565017
  63.4819987  68.7365006 149.3565017  71.8309987  60.6865006 145.4185017
  72.7879987  60.6865006 145.4185017  71.5909987  61.6135006 145.4185017
  60.7529987  62.0315006 147.1065017  61.7099987  62.0315006 147.1065017
  60.5129987  62.9585006 147.1065017  62.1579987  69.8005006 150.1645017
  63.1149987  69.8005006 150.1645017  61.9179987  70.7275006 150.1645017
  58.2379987  69.4325006 140.9925017  59.1949987  69.4325006 140.9925017
  57.9979987  70.3595006 140.9925017  71.8619987  71.0895006 147.7015017
  72.8189987  71.0895006 147.7015017  71.6219987  72.0165006 147.7015017
  72.1779987  59.3805006 149.0995017  73.1349987  59.3805006 149.0995017
  71.9379987  60.3075006 149.0995017  65.1589987  57.4915006 146.5595017
  66.1159987  57.4915006 146.5595017  64.9189987  58.4185006 146.5595017
  70.1139987  72.8755006 144.3045017  71.0709987  72.8755006 144.3045017
  69.8739987  73.8025006 144.3045017  71.3129987  70.7985006 142.8225017
  72.2699987  70.7985006 142.8225017  71.0729987  71.7255006 142.8225017
  72.9519987  69.3835006 151.3065017  73.9089987  69.3835006 151.3065017
  72.7119987  70.3105006 151.3065017  67.4349987  66.2925006 141.0785017
  68.3919987  66.2925006 141.0785017  67.1949987  67.2195006 141.0785017
  67.5039987  64.8525006 138.3345017  68.4609987  64.8525006 138.3345017
  67.2639987  65.7795006 138.3345017  74.8269987  65.6975006 149.3605017
  75.7839987  65.6975006 149.3605017  74.5869987  66.6245006 149.3605017
  70.8729987  66.5135006 142.0145017  71.8299987  66.5135006 142.0145017
  70.6329987  67.4405006 142.0145017  70.8039987  64.6655006 151.1065017
  71.7609987  64.6655006 151.1065017  70.5639987  65.5925006 151.1065017
  62.5199987  67.1715006 143.9625017  63.4769987  67.1715006 143.9625017
  62.2799987  68.0985006 143.9625017  63.8239987  70.5575006 146.5855017
  64.7809987  70.5575006 146.5855017  63.5839987  71.4845006 146.5855017
  62.8359987  65.9075006 147.5585017  63.7929987  65.9075006 147.5585017
  62.5959987  66.8345006 147.5585017  69.2199987  71.4685006 148.2665017
  70.1769987  71.4685006 148.2665017  68.9799987  72.3955006 148.2665017
  63.7739987  70.3275006 152.2625017  64.7309987  70.3275006 152.2625017
  63.5339987  71.2545006 152.2625017  69.7339987  65.6755006 139.6735017
  70.6909987  65.6755006 139.6735017  69.4939987  66.6025006 139.6735017
  60.7109987  66.5095006 151.4275017  61.6679987  66.5095006 151.4275017
  60.4709987  67.4365006 151.4275017  67.4609987  72.4135006 143.1495017
  68.4179987  72.4135006 143.1495017  67.2209987  73.3405006 143.1495017
  62.0149987  72.3795006 153.0165017  62.9719987  72.3795006 153.0165017
  61.7749987  73.3065006 153.0165017  73.4749987  57.4175006 139.4895017
  74.4319987  57.4175006 139.4895017  73.2349987  58.3445006 139.4895017
  61.3469987  66.9205006 141.6795017  62.3039987  66.9205006 141.6795017
  61.1069987  67.8475006 141.6795017  74.6019987  71.7555006 137.9545017
  75.5589987  71.7555006 137.9545017  74.3619987  72.6825006 137.9545017
  57.5619987  68.6075006 150.3895017  58.5189987  68.6075006 150.3895017
  57.3219987  69.5345006 150.3895017  57.3209987  71.3465006 147.1945017
  58.2779987  71.3465006 147.1945017  57.0809987  72.2735006 147.1945017
  75.5529987  72.0475006 152.8675017  76.5099987  72.0475006 152.8675017
  75.3129987  72.9745006 152.8675017  66.5139987  71.5915006 151.7445017
  67.4709987  71.5915006 151.7445017  66.2739987  72.5185006 151.7445017
  66.9269987  75.3415006 141.5255017  67.8839987  75.3415006 141.5255017
  66.6869987  76.2685006 141.5255017  60.5889987  74.2055006 143.3605017
  61.5459987  74.2055006 143.3605017  60.3489987  75.1325006 143.3605017
  69.9479987  74.5625006 138.5235017  70.9049987  74.5625006 138.5235017
  69.7079987  75.4895006 138.5235017  69.6929987  74.4805006 141.3105017
  70.6499987  74.4805006 141.3105017  69.4529987  75.4075006 141.3105017
  72.6969987  63.5215006 153.3615017  73.6539987  63.5215006 153.3615017
  72.4569987  64.4485006 153.3615017  59.8389987  69.9255006 151.3595017
  60.7959987  69.9255006 151.3595017  59.5989987  70.8525006 151.3595017
  62.5049987  58.3895006 147.3235017  63.4619987  58.3895006 147.3235017
  62.2649987  59.3165006 147.3235017  67.1519987  58.0795006 150.6855017
  68.1089987  58.0795006 150.6855017  66.9119987  59.0065006 150.6855017
  70.4529987  61.8965006 151.5735017  71.4099987  61.8965006 151.5735017
  70.2129987  62.8235006 151.5735017  71.3509987  66.7905006 137.8335017
  72.3079987  66.7905006 137.8335017  71.1109987  67.7175006 137.8335017
  66.8069987  60.6335006 138.0105017  67.7639987  60.6335006 138.0105017
  66.5669987  61.5605006 138.0105017  62.6079987  63.3575006 148.5305017
  63.5649987  63.3575006 148.5305017  62.3679987  64.2845006 148.5305017
  62.6509987  63.3605006 143.5495017  63.6079987  63.3605006 143.5495017
  62.4109987  64.2875006 143.5495017  68.0879987  63.9755006 142.1685017
  69.0449987  63.9755006 142.1685017  67.8479987  64.9025006 142.1685017
  67.1669987  64.1945006 153.6415017  68.1239987  64.1945006 153.6415017
  66.9269987  65.1215006 153.6415017  69.1209987  63.4665006 145.0305017
  70.0779987  63.4665006 145.0305017  68.8809987  64.3935006 145.0305017
  60.2529987  63.6255006 150.2725017  61.2099987  63.6255006 150.2725017
  60.0129987  64.5525006 150.2725017  63.6829987  60.9465006 137.2395017
  64.6399987  60.9465006 137.2395017  63.4429987  61.8735006 137.2395017
  56.8939987  60.7475006 144.2025017  57.8509987  60.7475006 144.2025017
  56.6539987  61.6745006 144.2025017  58.1229987  61.4375006 139.5085017
  59.0799987  61.4375006 139.5085017  57.8829987  62.3645006 139.5085017
  68.3369987  65.0715006 149.6165017  69.2939987  65.0715006 149.6165017
  68.0969987  65.9985006 149.6165017  65.1349987  61.0245006 144.4295017
  66.0919987  61.0245006 144.4295017  64.8949987  61.9515006 144.4295017
  59.8519987  62.4905006 143.4295017  60.8089987  62.4905006 143.4295017
  59.6119987  63.4175006 143.4295017  63.6669987  62.5605006 140.8815017
  64.6239987  62.5605006 140.8815017  63.4269987  63.4875006 140.8815017
  69.5399987  60.2655006 147.6815017  70.4969987  60.2655006 147.6815017
  69.2999987  61.1925006 147.6815017  62.2799987  63.8405006 138.4445017
  63.2369987  63.8405006 138.4445017  62.0399987  64.7675006 138.4445017
  72.7529987  75.9125006 153.9945017  73.7099987  75.9125006 153.9945017
  72.5129987  76.8395006 153.9945017  60.4239987  68.3785006 153.5675017
  61.3809987  68.3785006 153.5675017  60.1839987  69.3055006 153.5675017
  66.4239987  63.7935006 146.3275017  67.3809987  63.7935006 146.3275017
  66.1839987  64.7205006 146.3275017  61.4449987  59.9145006 142.7815017
  62.4019987  59.9145006 142.7815017  61.2049987  60.8415006 142.7815017
  65.0649987  62.1285006 148.7535017  66.0219987  62.1285006 148.7535017
  64.8249987  63.0555006 148.7535017  65.6429987  68.3525006 140.4265017
  66.5999987  68.3525006 140.4265017  65.4029987  69.2795006 140.4265017
  72.8109987  67.5345006 149.2375017  73.7679987  67.5345006 149.2375017
  72.5709987  68.4615006 149.2375017  69.5059987  61.1865006 138.5645017
  70.4629987  61.1865006 138.5645017  69.2659987  62.1135006 138.5645017
  67.1349987  68.5975006 151.6735017  68.0919987  68.5975006 151.6735017
  66.8949987  69.5245006 151.6735017  70.2159987  63.0575006 140.2805017
  71.1729987  63.0575006 140.2805017  69.9759987  63.9845006 140.2805017
  60.7529987  67.7265006 146.2305017  61.7099987  67.7265006 146.2305017
  60.5129987  68.6535006 146.2305017  67.7459987  69.8075006 139.4555017
  68.7029987  69.8075006 139.4555017  67.5059987  70.7345006 139.4555017
  57.7439987  66.1505006 151.5015017  58.7009987  66.1505006 151.5015017
  57.5039987  67.0775006 151.5015017  64.7559987  65.6995006 153.6905017
  65.7129987  65.6995006 153.6905017  64.5159987  66.6265006 153.6905017
  69.4249987  71.0335006 151.6145017  70.3819987  71.0335006 151.6145017
  69.1849987  71.9605006 151.6145017  75.1359987  63.2335006 140.0465017
  76.0929987  63.2335006 140.0465017  74.8959987  64.1605006 140.0465017
  75.0979987  69.0815006 152.8305017  76.0549987  69.0815006 152.8305017
  74.8579987  70.0085006 152.8305017  73.4349987  72.0425006 140.4285017
  74.3919987  72.0425006 140.4285017  73.1949987  72.9695006 140.4285017
  70.6019987  66.8695006 147.5115017  71.5589987  66.8695006 147.5115017
  70.3619987  67.7965006 147.5115017  63.1239987  71.1915006 143.6185017
  64.0809987  71.1915006 143.6185017  62.8839987  72.1185006 143.6185017
  58.8829987  66.0575006 138.1265017  59.8399987  66.0575006 138.1265017
  58.6429987  66.9845006 138.1265017  64.5529987  68.8565006 143.1495017
  65.5099987  68.8565006 143.1495017  64.3129987  69.7835006 143.1495017
  65.0039987  73.0345006 149.5325017  65.9609987  73.0345006 149.5325017
  64.7639987  73.9615006 149.5325017  63.2209987  73.8605006 142.6945017
  64.1779987  73.8605006 142.6945017  62.9809987  74.7875006 142.6945017
  68.5449987  69.0655006 149.1755017  69.5019987  69.0655006 149.1755017
  68.3049987  69.9925006 149.1755017  70.8019987  70.0925006 138.2625017
  71.7589987  70.0925006 138.2625017  70.5619987  71.0195006 138.2625017
  71.3129987  73.6355006 151.6685017  72.2699987  73.6355006 151.6685017
  71.0729987  74.5625006 151.6685017  75.3259987  74.4855006 138.5385017
  76.2829987  74.4855006 138.5385017  75.0859987  75.4125006 138.5385017
  59.3959987  60.8815006 151.0415017  60.3529987  60.8815006 151.0415017
  59.1559987  61.8085006 151.0415017  71.6429987  68.7455006 140.5045017
  72.5999987  68.7455006 140.5045017  71.4029987  69.6725006 140.5045017
  59.0189987  72.6795006 149.4805017  59.9759987  72.6795006 149.4805017
  58.7789987  73.6065006 149.4805017  65.0609987  71.1675006 136.7885017
  66.0179987  71.1675006 136.7885017  64.8209987  72.0945006 136.7885017
  63.7819987  70.7165006 139.1835017  64.7389987  70.7165006 139.1835017
  63.5419987  71.6435006 139.1835017  60.2329987  68.0035006 139.5645017
  61.1899987  68.0035006 139.5645017  59.9929987  68.9305006 139.5645017
  68.1239987  60.6535006 149.9865017  69.0809987  60.6535006 149.9865017
  67.8839987  61.5805006 149.9865017  68.8659987  60.2615006 141.0835017
  69.8229987  60.2615006 141.0835017  68.6259987  61.1885006 141.0835017
  66.5629987  72.3955006 139.9515017  67.5199987  72.3955006 139.9515017
  66.3229987  73.3225006 139.9515017  66.1279987  61.9675006 141.9025017
  67.0849987  61.9675006 141.9025017  65.8879987  62.8945006 141.9025017
  66.6589987  63.0005006 151.0855017  67.6159987  63.0005006 151.0855017
  66.4189987  63.9275006 151.0855017  66.9619987  59.0465006 142.8105017
  67.9189987  59.0465006 142.8105017  66.7219987  59.9735006 142.8105017
  63.9349987  73.4275006 139.9265017  64.8919987  73.4275006 139.9265017
  63.6949987  74.3545006 139.9265017  62.5979987  60.1205006 139.5235017
  63.5549987  60.1205006 139.5235017  62.3579987  61.0475006 139.5235017
  72.8439987  60.8755006 151.9425017  73.8009987  60.8755006 151.9425017
  72.6039987  61.8025006 151.9425017  71.4439987  64.6605006 145.9735017
  72.4009987  64.6605006 145.9735017  71.2039987  65.5875006 145.9735017
  60.8899987  70.5425006 138.5995017  61.8469987  70.5425006 138.5995017
  60.6499987  71.4695006 138.5995017  59.2119987  63.2355006 137.6755017
  60.1689987  63.2355006 137.6755017  58.9719987  64.1625006 137.6755017
  72.5099987  73.9085006 147.6355017  73.4669987  73.9085006 147.6355017
  72.2699987  74.8355006 147.6355017  60.0119987  58.0405006 146.4175017
  60.9689987  58.0405006 146.4175017  59.7719987  58.9675006 146.4175017
  58.9539987  71.9675006 142.5575017  59.9109987  71.9675006 142.5575017
  58.7139987  72.8945006 142.5575017  58.1829987  74.6085006 153.8665017
  59.1399987  74.6085006 153.8665017  57.9429987  75.5355006 153.8665017
  62.8419987  73.5235006 155.4835017  63.7989987  73.5235006 155.4835017
  62.6019987  74.4505006 155.4835017  67.1439987  72.6505006 137.3695017
  68.1009987  72.6505006 137.3695017  66.9039987  73.5775006 137.3695017
  69.3829987  71.9075006 154.2165017  70.3399987  71.9075006 154.2165017
  69.1429987  72.8345006 154.2165017  71.3379987  72.7455006 137.2615017
  72.2949987  72.7455006 137.2615017  71.0979987  73.6725006 137.2615017
  58.1029987  68.3915006 154.8515017  59.0599987  68.3915006 154.8515017
  57.8629987  69.3185006 154.8515017  62.5919987  68.7515006 137.0555017
  63.5489987  68.7515006 137.0555017  62.3519987  69.6785006 137.0555017
  64.8209987  68.3775006 154.2555017  65.7779987  68.3775006 154.2555017
  64.5809987  69.3045006 154.2555017  67.7779987  69.7955006 136.6555017
  68.7349987  69.7955006 136.6555017  67.5379987  70.7225006 136.6555017
  70.5029987  68.2405006 151.6345017  71.4599987  68.2405006 151.6345017
  70.2629987  69.1675006 151.6345017  58.9899987  65.6015006 154.2365017
  59.9469987  65.6015006 154.2365017  58.7499987  66.5285006 154.2365017
  63.6439987  66.7365006 139.2735017  64.6009987  66.7365006 139.2735017
  63.4039987  67.6635006 139.2735017  62.8999987  64.5615006 151.6075017
  63.8569987  64.5615006 151.6075017  62.6599987  65.4885006 151.6075017
  64.7659987  64.6395006 137.7865017  65.7229987  64.6395006 137.7865017
  64.5259987  65.5665006 137.7865017  67.9699987  67.1255006 154.9305017
  68.9269987  67.1255006 154.9305017  67.7299987  68.0525006 154.9305017
  74.1369987  67.4985006 137.2885017  75.0939987  67.4985006 137.2885017
  73.8969987  68.4255006 137.2885017  63.3149987  61.9485006 152.6715017
  64.2719987  61.9485006 152.6715017  63.0749987  62.8755006 152.6715017
  63.6979987  60.3175006 150.2045017  64.6549987  60.3175006 150.2045017
  63.4579987  61.2445006 150.2045017  65.2559987  65.7905006 150.4455017
  66.2129987  65.7905006 150.4455017  65.0159987  66.7175006 150.4455017
  69.6459987  63.5665006 155.4205017  70.6029987  63.5665006 155.4205017
  69.4059987  64.4935006 155.4205017  70.9769987  66.3475006 153.5615017
  71.9339987  66.3475006 153.5615017  70.7369987  67.2745006 153.5615017
  61.8029987  63.2785006 154.5885017  62.7599987  63.2785006 154.5885017
  61.5629987  64.2055006 154.5885017  64.4959987  57.7545006 150.6075017
  65.4529987  57.7545006 150.6075017  64.2559987  58.6815006 150.6075017
  65.7659987  62.0875006 154.2105017  66.7229987  62.0875006 154.2105017
  65.5259987  63.0145006 154.2105017  68.4819987  61.2215006 153.2855017
  69.4389987  61.2215006 153.2855017  68.2419987  62.1485006 153.2855017
  70.0779987  59.8505006 155.2255017  71.0349987  59.8505006 155.2255017
  69.8379987  60.7775006 155.2255017  60.3719987  61.2735006 154.3525017
  61.3289987  61.2735006 154.3525017  60.1319987  62.2005006 154.3525017
  64.7039987  57.1305006 153.3025017  65.6609987  57.1305006 153.3025017
  64.4639987  58.0575006 153.3025017  65.0699987  58.7605006 155.3915017
  66.0269987  58.7605006 155.3915017  64.8299987  59.6875006 155.3915017
  64.5539987  75.6765006 138.5745017  65.5109987  75.6765006 138.5745017
  64.3139987  76.6035006 138.5745017  58.1029987  70.2075006 138.1185017
  59.0599987  70.2075006 138.1185017  57.8629987  71.1345006 138.1185017
  56.8679987  75.6445006 143.0325017  57.8249987  75.6445006 143.0325017
  56.6279987  76.5715006 143.0325017  57.6959987  73.7615006 144.8835017
  58.6529987  73.7615006 144.8835017  57.4559987  74.6885006 144.8835017
  75.2299987  74.5585006 147.8355017  76.1869987  74.5585006 147.8355017
  74.9899987  75.4855006 147.8355017  74.8079987  74.1565006 150.7795017
  75.7649987  74.1565006 150.7795017  74.5679987  75.0835006 150.7795017
  73.2579987  69.9175006 155.4085017  74.2149987  69.9175006 155.4085017
  73.0179987  70.8445006 155.4085017  74.5639987  68.2045006 140.8935017
  75.5209987  68.2045006 140.8935017  74.3239987  69.1315006 140.8935017
  74.9299987  66.2775006 142.7585017  75.8869987  66.2775006 142.7585017
  74.6899987  67.2045006 142.7585017  74.6869987  68.9855006 147.7405017
  75.6439987  68.9855006 147.7405017  74.4469987  69.9125006 147.7405017
  73.2339987  71.8835006 150.0175017  74.1909987  71.8835006 150.0175017
  72.9939987  72.8105006 150.0175017  75.2429987  66.0885006 139.1835017
  76.1999987  66.0885006 139.1835017  75.0029987  67.0155006 139.1835017
  73.6909987  63.2655006 137.9065017  74.6479987  63.2655006 137.9065017
  73.4509987  64.1925006 137.9065017  72.7439987  64.7565006 143.3215017
  73.7009987  64.7565006 143.3215017  72.5039987  65.6835006 143.3215017
  57.7529987  66.8375006 147.3715017  58.7099987  66.8375006 147.3715017
  57.5129987  67.7645006 147.3715017  73.5959987  66.7215006 152.9985017
  74.5529987  66.7215006 152.9985017  73.3559987  67.6485006 152.9985017
  75.1049987  64.6155006 153.6655017  76.0619987  64.6155006 153.6655017
  74.8649987  65.5425006 153.6655017  72.7719987  60.8325006 136.9735017
  73.7289987  60.8325006 136.9735017  72.5319987  61.7595006 136.9735017
  72.4119987  62.3445006 141.7885017  73.3689987  62.3445006 141.7885017
  72.1719987  63.2715006 141.7885017  73.0479987  62.8855006 147.2265017
  74.0049987  62.8855006 147.2265017  72.8079987  63.8125006 147.2265017
  73.1189987  63.6115006 150.0145017  74.0759987  63.6115006 150.0145017
  72.8789987  64.5385006 150.0145017  57.3509987  62.1735006 153.5175017
  58.3079987  62.1735006 153.5175017  57.1109987  63.1005006 153.5175017
  75.3809987  57.6515006 155.3615017  76.3379987  57.6515006 155.3615017
  75.1409987  58.5785006 155.3615017  73.0769987  59.6175006 141.8365017
  74.0339987  59.6175006 141.8365017  72.8369987  60.5445006 141.8365017
  58.5679987  60.4265006 146.3835017  59.5249987  60.4265006 146.3835017
  58.3279987  61.3535006 146.3835017  56.8539987  63.4205006 147.4345017
  57.8109987  63.4205006 147.4345017  56.6139987  64.3475006 147.4345017
  74.9109987  59.7585006 153.7135017  75.8679987  59.7585006 153.7135017
  74.6709987  60.6855006 153.7135017  74.9729987  59.5905006 138.5885017
  75.9299987  59.5905006 138.5885017  74.7329987  60.5175006 138.5885017
  57.2139987  59.6795006 141.4995017  58.1709987  59.6795006 141.4995017
  56.9739987  60.6065006 141.4995017  71.9549987  74.6395006 143.4485017
  72.9119987  74.6395006 143.4485017  71.7149987  75.5665006 143.4485017
  57.1739987  58.3645006 149.8045017  58.1309987  58.3645006 149.8045017
  56.9339987  59.2915006 149.8045017  59.3939987  71.5515006 153.9665017
  60.3509987  71.5515006 153.9665017  59.1539987  72.4785006 153.9665017
  62.3049987  72.5465006 150.2415017  63.2619987  72.5465006 150.2415017
  62.0649987  73.4735006 150.2415017  66.6239987  73.9725006 153.1555017
  67.5809987  73.9725006 153.1555017  66.3839987  74.8995006 153.1555017
  68.9229987  75.2415006 152.4455017  69.8799987  75.2415006 152.4455017
  68.6829987  76.1685006 152.4455017  73.9239987  57.8545006 151.5495017
  74.8809987  57.8545006 151.5495017  73.6839987  58.7815006 151.5495017
  59.7299987  75.7975006 150.2505017  60.6869987  75.7975006 150.2505017
  59.4899987  76.7245006 150.2505017  62.2009987  75.3745006 149.3125017
  63.1579987  75.3745006 149.3125017  61.9609987  76.3015006 149.3125017
  66.9029987  75.2835006 148.4805017  67.8599987  75.2835006 148.4805017
  66.6629987  76.2105006 148.4805017  69.2099987  74.1145006 149.4785017
  70.1669987  74.1145006 149.4785017  68.9699987  75.0415006 149.4785017
  71.7899987  75.6805006 149.7365017  72.7469987  75.6805006 149.7365017
  71.5499987  76.6075006 149.7365017  59.1659987  74.4415006 147.1795017
  60.1229987  74.4415006 147.1795017  58.9259987  75.3685006 147.1795017
  61.2609987  73.1535006 145.8325017  62.2179987  73.1535006 145.8325017
  61.0209987  74.0805006 145.8325017  63.8499987  73.6355006 146.7035017
  64.8069987  73.6355006 146.7035017  63.6099987  74.5625006 146.7035017
  67.3219987  59.2895006 145.8445017  68.2789987  59.2895006 145.8445017
  67.0819987  60.2165006 145.8445017  72.4559987  57.3455006 145.9315017
  73.4129987  57.3455006 145.9315017  72.2159987  58.2725006 145.9315017
  74.1479987  58.5585006 144.2355017  75.1049987  58.5585006 144.2355017
  73.9079987  59.4855006 144.2355017  59.6819987  57.9155006 143.6855017
  60.6389987  57.9155006 143.6855017  59.4419987  58.8425006 143.6855017
  58.4449987  57.6815006 139.3915017  59.4019987  57.6815006 139.3915017
  58.2049987  58.6085006 139.3915017  64.1859987  57.8305006 143.4755017
  65.1429987  57.8305006 143.4755017  63.9459987  58.7575006 143.4755017
  69.8499987  57.8605006 145.1155017  70.8069987  57.8605006 145.1155017
  69.6099987  58.7875006 145.1155017  71.1539987  57.8925006 140.7485017
  72.1109987  57.8925006 140.7485017  70.9139987  58.8195006 140.7485017
  58.4139987  73.6445006 140.3725017  59.3709987  73.6445006 140.3725017
  58.1739987  74.5715006 140.3725017  60.2939987  59.6075006 137.9545017
  61.2509987  59.6075006 137.9545017  60.0539987  60.5345006 137.9545017
  65.3349987  59.8795006 140.3445017  66.2919987  59.8795006 140.3445017
  65.0949987  60.8065006 140.3445017  67.2269987  74.9775006 138.7485017
  68.1839987  74.9775006 138.7485017  66.9869987  75.9045006 138.7485017
  73.9649987  74.4425006 141.4825017  74.9219987  74.4425006 141.4825017
  73.7249987  75.3695006 141.4825017  59.9229987  57.9285006 152.8135017
  60.8799987  57.9285006 152.8135017  59.6829987  58.8555006 152.8135017
  61.6059987  57.8465006 154.8265017  62.5629987  57.8465006 154.8265017
  61.3659987  58.7735006 154.8265017  60.3279987  74.6665006 137.4755017
  61.2849987  74.6665006 137.4755017  60.0879987  75.5935006 137.4755017
  69.9869987  57.1335006 154.9315017  70.9439987  57.1335006 154.9315017
  69.7469987  58.0605006 154.9315017  73.1929987  73.1655006 153.5815017
  74.1499987  73.1655006 153.5815017  72.9529987  74.0925006 153.5815017
  87.0029987  67.0405006 143.6195017  87.9599987  67.0405006 143.6195017
  86.7629987  67.9675006 143.6195017  86.5349987  66.3075006 147.0385017
  87.4919987  66.3075006 147.0385017  86.2949987  67.2345006 147.0385017
  78.8519987  65.9705006 148.6095017  79.8089987  65.9705006 148.6095017
  78.6119987  66.8975006 148.6095017  90.2469987  69.3265006 145.4045017
  91.2039987  69.3265006 145.4045017  90.0069987  70.2535006 145.4045017
  79.7799987  70.4205006 147.1315017  80.7369987  70.4205006 147.1315017
  79.5399987  71.3475006 147.1315017  76.4189987  63.9945006 142.5955017
  77.3759987  63.9945006 142.5955017  76.1789987  64.9215006 142.5955017
  77.1189987  66.2135006 144.7235017  78.0759987  66.2135006 144.7235017
  76.8789987  67.1405006 144.7235017  87.3069987  74.4015006 145.5675017
  88.2639987  74.4015006 145.5675017  87.0669987  75.3285006 145.5675017
  84.8809987  68.7295006 147.4885017  85.8379987  68.7295006 147.4885017
  84.6409987  69.6565006 147.4885017  93.4939987  60.3655006 148.2705017
  94.4509987  60.3655006 148.2705017  93.2539987  61.2925006 148.2705017
  88.0509987  63.1755006 147.8135017  89.0079987  63.1755006 147.8135017
  87.8109987  64.1025006 147.8135017  81.2179987  61.2405006 145.0075017
  82.1749987  61.2405006 145.0075017  80.9779987  62.1675006 145.0075017
  89.0669987  61.9955006 143.3785017  90.0239987  61.9955006 143.3785017
  88.8269987  62.9225006 143.3785017  77.7789987  63.6825006 145.8025017
  78.7359987  63.6825006 145.8025017  77.5389987  64.6095006 145.8025017
  82.9439987  65.2215006 145.0715017  83.9009987  65.2215006 145.0715017
  82.7039987  66.1485006 145.0715017  93.9159987  61.7805006 150.5175017
  94.8729987  61.7805006 150.5175017  93.6759987  62.7075006 150.5175017
  80.0459987  60.1605006 149.1005017  81.0029987  60.1605006 149.1005017
  79.8059987  61.0875006 149.1005017  87.3959987  69.6335006 142.6395017
  88.3529987  69.6335006 142.6395017  87.1559987  70.5605006 142.6395017
  82.5769987  67.8105006 149.3555017  83.5339987  67.8105006 149.3555017
  82.3369987  68.7375006 149.3555017  90.6459987  60.6685006 145.4085017
  91.6029987  60.6685006 145.4085017  90.4059987  61.5955006 145.4085017
  79.6119987  62.0355006 147.0915017  80.5689987  62.0355006 147.0915017
  79.3719987  62.9625006 147.0915017  81.0149987  69.7995006 150.1655017
  81.9719987  69.7995006 150.1655017  80.7749987  70.7265006 150.1655017
  77.1029987  69.4295006 140.9915017  78.0599987  69.4295006 140.9915017
  76.8629987  70.3565006 140.9915017  90.7089987  71.0815006 147.6745017
  91.6659987  71.0815006 147.6745017  90.4689987  72.0085006 147.6745017
  91.0209987  59.3715006 149.0695017  91.9779987  59.3715006 149.0695017
  90.7809987  60.2985006 149.0695017  84.0209987  57.5085006 146.5275017
  84.9779987  57.5085006 146.5275017  83.7809987  58.4355006 146.5275017
  88.9739987  72.8525006 144.3255017  89.9309987  72.8525006 144.3255017
  88.7339987  73.7795006 144.3255017  90.1559987  70.7855006 142.8265017
  91.1129987  70.7855006 142.8265017  89.9159987  71.7125006 142.8265017
  91.8049987  69.3835006 151.3045017  92.7619987  69.3835006 151.3045017
  91.5649987  70.3105006 151.3045017  86.3239987  66.3095006 141.0705017
  87.2809987  66.3095006 141.0705017  86.0839987  67.2365006 141.0705017
  86.3939987  64.8745006 138.3115017  87.3509987  64.8745006 138.3115017
  86.1539987  65.8015006 138.3115017  93.6409987  65.6865006 149.3285017
  94.5979987  65.6865006 149.3285017  93.4009987  66.6135006 149.3285017
  89.7359987  66.4935006 142.0005017  90.6929987  66.4935006 142.0005017
  89.4959987  67.4205006 142.0005017  89.6479987  64.6615006 151.1075017
  90.6049987  64.6615006 151.1075017  89.4079987  65.5885006 151.1075017
  81.3319987  67.1675006 143.9115017  82.2889987  67.1675006 143.9115017
  81.0919987  68.0945006 143.9115017  82.6839987  70.5545006 146.5885017
  83.6409987  70.5545006 146.5885017  82.4439987  71.4815006 146.5885017
  81.6959987  65.9065006 147.5535017  82.6529987  65.9065006 147.5535017
  81.4559987  66.8335006 147.5535017  88.0789987  71.4565006 148.2575017
  89.0359987  71.4565006 148.2575017  87.8389987  72.3835006 148.2575017
  82.6299987  70.3285006 152.2615017  83.5869987  70.3285006 152.2615017
  82.3899987  71.2555006 152.2615017  88.6379987  65.6365006 139.6485017
  89.5949987  65.6365006 139.6485017  88.3979987  66.5635006 139.6485017
  79.5639987  66.4955006 151.4385017  80.5209987  66.4955006 151.4385017
  79.3239987  67.4225006 151.4385017  86.3339987  72.4045006 143.1405017
  87.2909987  72.4045006 143.1405017  86.0939987  73.3315006 143.1405017
  80.8619987  72.3685006 153.0095017  81.8189987  72.3685006 153.0095017
  80.6219987  73.2955006 153.0095017  92.3229987  57.4025006 139.4745017
  93.2799987  57.4025006 139.4745017  92.0829987  58.3295006 139.4745017
  80.3399987  66.1765006 141.5145017  81.2969987  66.1765006 141.5145017
  80.0999987  67.1035006 141.5145017  93.4449987  71.7505006 137.9515017
  94.4019987  71.7505006 137.9515017  93.2049987  72.6775006 137.9515017
  76.4179987  68.6075006 150.3895017  77.3749987  68.6075006 150.3895017
  76.1779987  69.5345006 150.3895017  76.1769987  71.3465006 147.1945017
  77.1339987  71.3465006 147.1945017  75.9369987  72.2735006 147.1945017
  94.4099987  72.0575006 152.8825017  95.3669987  72.0575006 152.8825017
  94.1699987  72.9845006 152.8825017  85.3699987  71.5925006 151.7455017
  86.3269987  71.5925006 151.7455017  85.1299987  72.5195006 151.7455017
  85.7739987  75.3465006 141.5435017  86.7309987  75.3465006 141.5435017
  85.5339987  76.2735006 141.5435017  79.4449987  74.2055006 143.3605017
  80.4019987  74.2055006 143.3605017  79.2049987  75.1325006 143.3605017
  89.6929987  74.3705006 139.1615017  90.6499987  74.3705006 139.1615017
  89.4529987  75.2975006 139.1615017  88.5149987  74.5335006 141.4435017
  89.4719987  74.5335006 141.4435017  88.2749987  75.4605006 141.4435017
  91.5479987  63.5185006 153.3605017  92.5049987  63.5185006 153.3605017
  91.3079987  64.4455006 153.3605017  78.6919987  69.9265006 151.3565017
  79.6489987  69.9265006 151.3565017  78.4519987  70.8535006 151.3565017
  81.3679987  58.4075006 147.2915017  82.3249987  58.4075006 147.2915017
  81.1279987  59.3345006 147.2915017  86.0069987  58.0795006 150.6855017
  86.9639987  58.0795006 150.6855017  85.7669987  59.0065006 150.6855017
  89.3089987  61.8955006 151.5725017  90.2659987  61.8955006 151.5725017
  89.0689987  62.8225006 151.5725017  90.2289987  66.7665006 137.8355017
  91.1859987  66.7665006 137.8355017  89.9889987  67.6935006 137.8355017
  85.6669987  60.6435006 138.0185017  86.6239987  60.6435006 138.0185017
  85.4269987  61.5705006 138.0185017  81.4619987  63.3565006 148.5285017
  82.4189987  63.3565006 148.5285017  81.2219987  64.2835006 148.5285017
  81.4389987  63.4485006 143.4225017  82.3959987  63.4485006 143.4225017
  81.1989987  64.3755006 143.4225017  86.9509987  63.9805006 142.1635017
  87.9079987  63.9805006 142.1635017  86.7109987  64.9075006 142.1635017
  86.0229987  64.1915006 153.6425017  86.9799987  64.1915006 153.6425017
  85.7829987  65.1185006 153.6425017  87.9249987  63.5135006 145.0755017
  88.8819987  63.5135006 145.0755017  87.6849987  64.4405006 145.0755017
  79.1099987  63.6415006 150.2615017  80.0669987  63.6415006 150.2615017
  78.8699987  64.5685006 150.2615017  82.5339987  60.9995006 137.2845017
  83.4909987  60.9995006 137.2845017  82.2939987  61.9265006 137.2845017
  75.7469987  60.7525006 144.2045017  76.7039987  60.7525006 144.2045017
  75.5069987  61.6795006 144.2045017  77.0309987  61.4575006 139.5695017
  77.9879987  61.4575006 139.5695017  76.7909987  62.3845006 139.5695017
  87.1929987  65.0705006 149.6175017  88.1499987  65.0705006 149.6175017
  86.9529987  65.9975006 149.6175017  83.9649987  61.0035006 144.4115017
  84.9219987  61.0035006 144.4115017  83.7249987  61.9305006 144.4115017
  78.8309987  62.5995006 143.2685017  79.7879987  62.5995006 143.2685017
  78.5909987  63.5265006 143.2685017  82.4809987  62.7495006 140.8945017
  83.4379987  62.7495006 140.8945017  82.2409987  63.6765006 140.8945017
  88.3919987  60.2615006 147.6645017  89.3489987  60.2615006 147.6645017
  88.1519987  61.1885006 147.6645017  81.1179987  63.8035006 138.5195017
  82.0749987  63.8035006 138.5195017  80.8779987  64.7305006 138.5195017
  91.6109987  75.9155006 153.9965017  92.5679987  75.9155006 153.9965017
  91.3709987  76.8425006 153.9965017  79.2909987  68.3855006 153.5645017
  80.2479987  68.3855006 153.5645017  79.0509987  69.3125006 153.5645017
  85.2869987  63.7965006 146.3215017  86.2439987  63.7965006 146.3215017
  85.0469987  64.7235006 146.3215017  80.0279987  59.7445006 142.8005017
  80.9849987  59.7445006 142.8005017  79.7879987  60.6715006 142.8005017
  83.9169987  62.1335006 148.7395017  84.8739987  62.1335006 148.7395017
  83.6769987  63.0605006 148.7395017  84.4999987  68.3605006 140.4245017
  85.4569987  68.3605006 140.4245017  84.2599987  69.2875006 140.4245017
  91.6609987  67.5285006 149.2265017  92.6179987  67.5285006 149.2265017
  91.4209987  68.4555006 149.2265017  88.3589987  61.1825006 138.5745017
  89.3159987  61.1825006 138.5745017  88.1189987  62.1095006 138.5745017
  85.9909987  68.5975006 151.6745017  86.9479987  68.5975006 151.6745017
  85.7509987  69.5245006 151.6745017  89.0929987  63.0355006 140.2465017
  90.0499987  63.0355006 140.2465017  88.8529987  63.9625006 140.2465017
  79.6069987  67.7275006 146.2325017  80.5639987  67.7275006 146.2325017
  79.3669987  68.6545006 146.2325017  86.6169987  69.7865006 139.4935017
  87.5739987  69.7865006 139.4935017  86.3769987  70.7135006 139.4935017
  76.5999987  66.1495006 151.5015017  77.5569987  66.1495006 151.5015017
  76.3599987  67.0765006 151.5015017  83.6129987  65.7015006 153.6945017
  84.5699987  65.7015006 153.6945017  83.3729987  66.6285006 153.6945017
  88.2849987  71.0285006 151.6095017  89.2419987  71.0285006 151.6095017
  88.0449987  71.9555006 151.6095017  93.9789987  63.2355006 140.0445017
  94.9359987  63.2355006 140.0445017  93.7389987  64.1625006 140.0445017
  93.9529987  69.1175006 152.8365017  94.9099987  69.1175006 152.8365017
  93.7129987  70.0445006 152.8365017  92.2969987  72.0385006 140.4295017
  93.2539987  72.0385006 140.4295017  92.0569987  72.9655006 140.4295017
  89.4509987  66.8955006 147.4125017  90.4079987  66.8955006 147.4125017
  89.2109987  67.8225006 147.4125017  81.9799987  71.1905006 143.6175017
  82.9369987  71.1905006 143.6175017  81.7399987  72.1175006 143.6175017
  77.7529987  66.0385006 138.1525017  78.7099987  66.0385006 138.1525017
  77.5129987  66.9655006 138.1525017  83.4069987  68.8575006 143.1415017
  84.3639987  68.8575006 143.1415017  83.1669987  69.7845006 143.1415017
  83.8599987  73.0345006 149.5325017  84.8169987  73.0345006 149.5325017
  83.6199987  73.9615006 149.5325017  82.0769987  73.8585006 142.6965017
  83.0339987  73.8585006 142.6965017  81.8369987  74.7855006 142.6965017
  87.3989987  69.0565006 149.1485017  88.3559987  69.0565006 149.1485017
  87.1589987  69.9835006 149.1485017  89.6629987  70.0325006 138.2255017
  90.6199987  70.0325006 138.2255017  89.4229987  70.9595006 138.2255017
  90.1689987  73.6345006 151.6685017  91.1259987  73.6345006 151.6685017
  89.9289987  74.5615006 151.6685017  94.1579987  74.4825006 138.5775017
  95.1149987  74.4825006 138.5775017  93.9179987  75.4095006 138.5775017
  78.2499987  60.8865006 151.0505017  79.2069987  60.8865006 151.0505017
  78.0099987  61.8135006 151.0505017  90.4859987  68.7245006 140.5275017
  91.4429987  68.7245006 140.5275017  90.2459987  69.6515006 140.5275017
  77.8759987  72.6795006 149.4795017  78.8329987  72.6795006 149.4795017
  77.6359987  73.6065006 149.4795017  83.8859987  71.1685006 136.7755017
  84.8429987  71.1685006 136.7755017  83.6459987  72.0955006 136.7755017
  82.6399987  70.7245006 139.1815017  83.5969987  70.7245006 139.1815017
  82.3999987  71.6515006 139.1815017  79.1289987  67.9785006 139.6425017
  80.0859987  67.9785006 139.6425017  78.8889987  68.9055006 139.6425017
  86.9799987  60.6495006 149.9865017  87.9369987  60.6495006 149.9865017
  86.7399987  61.5765006 149.9865017  87.7369987  60.2645006 141.1295017
  88.6939987  60.2645006 141.1295017  87.4969987  61.1915006 141.1295017
  85.4129987  72.3865006 139.9685017  86.3699987  72.3865006 139.9685017
  85.1729987  73.3135006 139.9685017  84.9449987  61.9675006 141.9135017
  85.9019987  61.9675006 141.9135017  84.7049987  62.8945006 141.9135017
  85.5039987  62.9985006 151.0925017  86.4609987  62.9985006 151.0925017
  85.2639987  63.9255006 151.0925017  85.8619987  59.0615006 142.8515017
  86.8189987  59.0615006 142.8515017  85.6219987  59.9885006 142.8515017
  82.7749987  73.4275006 139.9255017  83.7319987  73.4275006 139.9255017
  82.5349987  74.3545006 139.9255017  81.4389987  60.1255006 139.6205017
  82.3959987  60.1255006 139.6205017  81.1989987  61.0525006 139.6205017
  91.6999987  60.8755006 151.9485017  92.6569987  60.8755006 151.9485017
  91.4599987  61.8025006 151.9485017  90.2929987  64.6695006 145.9425017
  91.2499987  64.6695006 145.9425017  90.0529987  65.5965006 145.9425017
  79.7449987  70.5385006 138.5995017  80.7019987  70.5385006 138.5995017
  79.5049987  71.4655006 138.5995017  78.0659987  63.2405006 137.7135017
  79.0229987  63.2405006 137.7135017  77.8259987  64.1675006 137.7135017
  91.3679987  73.9055006 147.6365017  92.3249987  73.9055006 147.6365017
  91.1279987  74.8325006 147.6365017  78.8789987  58.0445006 146.4095017
  79.8359987  58.0445006 146.4095017  78.6389987  58.9715006 146.4095017
  77.8139987  71.9525006 142.5475017  78.7709987  71.9525006 142.5475017
  77.5739987  72.8795006 142.5475017  77.0419987  74.6055006 153.8635017
  77.9989987  74.6055006 153.8635017  76.8019987  75.5325006 153.8635017
  81.7069987  73.5325006 155.4795017  82.6639987  73.5325006 155.4795017
  81.4669987  74.4595006 155.4795017  85.9219987  72.5685006 137.3975017
  86.8789987  72.5685006 137.3975017  85.6819987  73.4955006 137.3975017
  88.2249987  71.9065006 154.2135017  89.1819987  71.9065006 154.2135017
  87.9849987  72.8335006 154.2135017  90.2169987  72.6635006 137.2155017
  91.1739987  72.6635006 137.2155017  89.9769987  73.5905006 137.2155017
  76.9709987  68.3815006 154.8385017  77.9279987  68.3815006 154.8385017
  76.7309987  69.3085006 154.8385017  81.4369987  68.7465006 137.0445017
  82.3939987  68.7465006 137.0445017  81.1969987  69.6735006 137.0445017
  83.6569987  68.3725006 154.2485017  84.6139987  68.3725006 154.2485017
  83.4169987  69.2995006 154.2485017  86.6379987  69.8085006 136.6515017
  87.5949987  69.8085006 136.6515017  86.3979987  70.7355006 136.6515017
  89.3509987  68.2425006 151.6325017  90.3079987  68.2425006 151.6325017
  89.1109987  69.1695006 151.6325017  77.8499987  65.6095006 154.2375017
  78.8069987  65.6095006 154.2375017  77.6099987  66.5365006 154.2375017
  82.4919987  66.7385006 139.2695017  83.4489987  66.7385006 139.2695017
  82.2519987  67.6655006 139.2695017  81.7609987  64.5675006 151.6045017
  82.7179987  64.5675006 151.6045017  81.5209987  65.4945006 151.6045017
  83.5989987  64.6385006 137.7955017  84.5559987  64.6385006 137.7955017
  83.3589987  65.5655006 137.7955017  86.8189987  67.1095006 154.9195017
  87.7759987  67.1095006 154.9195017  86.5789987  68.0365006 154.9195017
  92.9599987  67.4985006 137.2965017  93.9169987  67.4985006 137.2965017
  92.7199987  68.4255006 137.2965017  82.1549987  61.9405006 152.6725017
  83.1119987  61.9405006 152.6725017  81.9149987  62.8675006 152.6725017
  82.5549987  60.3165006 150.2015017  83.5119987  60.3165006 150.2015017
  82.3149987  61.2435006 150.2015017  84.1039987  65.7865006 150.4505017
  85.0609987  65.7865006 150.4505017  83.8639987  66.7135006 150.4505017
  88.5049987  63.5675006 155.4275017  89.4619987  63.5675006 155.4275017
  88.2649987  64.4945006 155.4275017  89.8289987  66.3465006 153.5625017
  90.7859987  66.3465006 153.5625017  89.5889987  67.2735006 153.5625017
  80.6139987  63.1825006 154.5855017  81.5709987  63.1825006 154.5855017
  80.3739987  64.1095006 154.5855017  83.3499987  57.7565006 150.6105017
  84.3069987  57.7565006 150.6105017  83.1099987  58.6835006 150.6105017
  84.6209987  62.0855006 154.2095017  85.5779987  62.0855006 154.2095017
  84.3809987  63.0125006 154.2095017  87.3369987  61.2205006 153.2865017
  88.2939987  61.2205006 153.2865017  87.0969987  62.1475006 153.2865017
  88.9339987  59.8515006 155.2265017  89.8909987  59.8515006 155.2265017
  88.6939987  60.7785006 155.2265017  78.7099987  61.1085006 154.3195017
  79.6669987  61.1085006 154.3195017  78.4699987  62.0355006 154.3195017
  83.5599987  57.1245006 153.3025017  84.5169987  57.1245006 153.3025017
  83.3199987  58.0515006 153.3025017  83.9269987  58.7585006 155.3915017
  84.8839987  58.7585006 155.3915017  83.6869987  59.6855006 155.3915017
  83.4019987  75.6885006 138.5775017  84.3589987  75.6885006 138.5775017
  83.1619987  76.6155006 138.5775017  76.9629987  70.1995006 138.1265017
  77.9199987  70.1995006 138.1265017  76.7229987  71.1265006 138.1265017
  75.7239987  75.6445006 143.0325017  76.6809987  75.6445006 143.0325017
  75.4839987  76.5715006 143.0325017  76.5519987  73.7615006 144.8835017
  77.5089987  73.7615006 144.8835017  76.3119987  74.6885006 144.8835017
  94.0859987  74.5585006 147.8355017  95.0429987  74.5585006 147.8355017
  93.8459987  75.4855006 147.8355017  93.6629987  74.1515006 150.7735017
  94.6199987  74.1515006 150.7735017  93.4229987  75.0785006 150.7735017
  92.1009987  69.8955006 155.4405017  93.0579987  69.8955006 155.4405017
  91.8609987  70.8225006 155.4405017  93.3999987  68.2135006 140.9115017
  94.3569987  68.2135006 140.9115017  93.1599987  69.1405006 140.9115017
  93.7629987  66.2875006 142.7705017  94.7199987  66.2875006 142.7705017
  93.5229987  67.2145006 142.7705017  93.5319987  68.9805006 147.7315017
  94.4889987  68.9805006 147.7315017  93.2919987  69.9075006 147.7315017
  92.0889987  71.8795006 150.0225017  93.0459987  71.8795006 150.0225017
  91.8489987  72.8065006 150.0225017  94.0599987  66.0645006 139.1935017
  95.0169987  66.0645006 139.1935017  93.8199987  66.9915006 139.1935017
  92.4589987  63.2905006 137.9195017  93.4159987  63.2905006 137.9195017
  92.2189987  64.2175006 137.9195017  91.5459987  64.7695006 143.3245017
  92.5029987  64.7695006 143.3245017  91.3059987  65.6965006 143.3245017
  76.6059987  66.8385006 147.3765017  77.5629987  66.8385006 147.3765017
  76.3659987  67.7655006 147.3765017  92.4279987  66.7265006 153.0415017
  93.3849987  66.7265006 153.0415017  92.1879987  67.6535006 153.0415017
  93.9329987  64.5975006 153.7375017  94.8899987  64.5975006 153.7375017
  93.6929987  65.5245006 153.7375017  91.6169987  60.8545006 136.9965017
  92.5739987  60.8545006 136.9965017  91.3769987  61.7815006 136.9965017
  91.2589987  62.3255006 141.7505017  92.2159987  62.3255006 141.7505017
  91.0189987  63.2525006 141.7505017  91.8969987  62.8695006 147.2165017
  92.8539987  62.8695006 147.2165017  91.6569987  63.7965006 147.2165017
  91.9559987  63.6085006 149.9895017  92.9129987  63.6085006 149.9895017
  91.7159987  64.5355006 149.9895017  76.2189987  62.1345006 153.5175017
  77.1759987  62.1345006 153.5175017  75.9789987  63.0615006 153.5175017
  94.2369987  57.6525006 155.3615017  95.1939987  57.6525006 155.3615017
  93.9969987  58.5795006 155.3615017  91.8729987  59.6425006 141.8735017
  92.8299987  59.6425006 141.8735017  91.6329987  60.5695006 141.8735017
  77.4229987  60.4275006 146.3835017  78.3799987  60.4275006 146.3835017
  77.1829987  61.3545006 146.3835017  75.7119987  63.4205006 147.4335017
  76.6689987  63.4205006 147.4335017  75.4719987  64.3475006 147.4335017
  93.7669987  59.7585006 153.7125017  94.7239987  59.7585006 153.7125017
  93.5269987  60.6855006 153.7125017  93.8289987  59.5895006 138.5905017
  94.7859987  59.5895006 138.5905017  93.5889987  60.5165006 138.5905017
  76.0749987  59.6895006 141.5065017  77.0319987  59.6895006 141.5065017
  75.8349987  60.6165006 141.5065017  90.8079987  74.6125006 143.4635017
  91.7649987  74.6125006 143.4635017  90.5679987  75.5395006 143.4635017
  76.0299987  58.3645006 149.8105017  76.9869987  58.3645006 149.8105017
  75.7899987  59.2915006 149.8105017  78.2489987  71.5495006 153.9695017
  79.2059987  71.5495006 153.9695017  78.0089987  72.4765006 153.9695017
  81.1609987  72.5455006 150.2405017  82.1179987  72.5455006 150.2405017
  80.9209987  73.4725006 150.2405017  85.4739987  73.9885006 153.1715017
  86.4309987  73.9885006 153.1715017  85.2339987  74.9155006 153.1715017
  87.7799987  75.2395006 152.4455017  88.7369987  75.2395006 152.4455017
  87.5399987  76.1665006 152.4455017  92.7789987  57.8545006 151.5495017
  93.7359987  57.8545006 151.5495017  92.5389987  58.7815006 151.5495017
  78.5869987  75.7935006 150.2495017  79.5439987  75.7935006 150.2495017
  78.3469987  76.7205006 150.2495017  81.0579987  75.3755006 149.3155017
  82.0149987  75.3755006 149.3155017  80.8179987  76.3025006 149.3155017
  85.7589987  75.2835006 148.4805017  86.7159987  75.2835006 148.4805017
  85.5189987  76.2105006 148.4805017  88.0659987  74.1135006 149.4775017
  89.0229987  74.1135006 149.4775017  87.8259987  75.0405006 149.4775017
  90.6479987  75.6825006 149.7365017  91.6049987  75.6825006 149.7365017
  90.4079987  76.6095006 149.7365017  78.0219987  74.4415006 147.1795017
  78.9789987  74.4415006 147.1795017  77.7819987  75.3685006 147.1795017
  80.1169987  73.1535006 145.8325017  81.0739987  73.1535006 145.8325017
  79.8769987  74.0805006 145.8325017  82.7069987  73.6355006 146.7035017
  83.6639987  73.6355006 146.7035017  82.4669987  74.5625006 146.7035017
  86.1879987  59.2935006 145.7875017  87.1449987  59.2935006 145.7875017
  85.9479987  60.2205006 145.7875017  91.3129987  57.3485006 145.9285017
  92.2699987  57.3485006 145.9285017  91.0729987  58.2755006 145.9285017
  92.9829987  58.5655006 144.2125017  93.9399987  58.5655006 144.2125017
  92.7429987  59.4925006 144.2125017  78.5169987  57.8795006 143.7045017
  79.4739987  57.8795006 143.7045017  78.2769987  58.8065006 143.7045017
  77.3019987  57.6765006 139.3925017  78.2589987  57.6765006 139.3925017
  77.0619987  58.6035006 139.3925017  83.0179987  57.9155006 143.4795017
  83.9749987  57.9155006 143.4795017  82.7779987  58.8425006 143.4795017
  88.7109987  57.7735006 145.1605017  89.6679987  57.7735006 145.1605017
  88.4709987  58.7005006 145.1605017  89.9979987  57.8925006 140.7785017
  90.9549987  57.8925006 140.7785017  89.7579987  58.8195006 140.7785017
  77.2729987  73.6365006 140.3715017  78.2299987  73.6365006 140.3715017
  77.0329987  74.5635006 140.3715017  79.1569987  59.6175006 137.9615017
  80.1139987  59.6175006 137.9615017  78.9169987  60.5445006 137.9615017
  84.1589987  59.8865006 140.3835017  85.1159987  59.8865006 140.3835017
  83.9189987  60.8135006 140.3835017  85.9469987  74.9915006 138.8815017
  86.9039987  74.9915006 138.8815017  85.7069987  75.9185006 138.8815017
  92.8279987  74.4355006 141.4845017  93.7849987  74.4355006 141.4845017
  92.5879987  75.3625006 141.4845017  78.4359987  58.4495006 153.1505017
  79.3929987  58.4495006 153.1505017  78.1959987  59.3765006 153.1505017
  80.4399987  57.8235006 154.7625017  81.3969987  57.8235006 154.7625017
  80.1999987  58.7505006 154.7625017  79.1839987  74.6665006 137.4755017
  80.1409987  74.6665006 137.4755017  78.9439987  75.5935006 137.4755017
  88.8429987  57.1295006 154.9255017  89.7999987  57.1295006 154.9255017
  88.6029987  58.0565006 154.9255017  92.0479987  73.1685006 153.5815017
  93.0049987  73.1685006 153.5815017  91.8079987  74.0955006 153.5815017
 106.2349987  66.8565006 143.3415017 107.1919987  66.8565006 143.3415017
 105.9949987  67.7835006 143.3415017 105.2299987  66.3255006 147.0825017
 106.1869987  66.3255006 147.0825017 104.9899987  67.2525006 147.0825017
  97.8839987  66.0245006 148.2735017  98.8409987  66.0245006 148.2735017
  97.6439987  66.9515006 148.2735017  98.6359987  70.4255006 147.1205017
  99.5929987  70.4255006 147.1205017  98.3959987  71.3525006 147.1205017
  95.2789987  64.0015006 142.5935017  96.2359987  64.0015006 142.5935017
  95.0389987  64.9285006 142.5935017  95.9719987  66.2115006 144.7215017
  96.9289987  66.2115006 144.7215017  95.7319987  67.1385006 144.7215017
 106.1769987  74.3505006 145.5435017 107.1339987  74.3505006 145.5435017
 105.9369987  75.2775006 145.5435017 103.6899987  68.7015006 147.5025017
 104.6469987  68.7015006 147.5025017 103.4499987  69.6285006 147.5025017
 106.2229987  62.9345006 147.7815017 107.1799987  62.9345006 147.7815017
 105.9829987  63.8615006 147.7815017 100.0309987  61.2555006 145.0425017
 100.9879987  61.2555006 145.0425017  99.7909987  62.1825006 145.0425017
 107.7209987  61.8375006 143.0335017 108.6779987  61.8375006 143.0335017
 107.4809987  62.7645006 143.0335017  96.6319987  63.6645006 145.7875017
  97.5889987  63.6645006 145.7875017  96.3919987  64.5915006 145.7875017
 101.7949987  65.2315006 145.0745017 102.7519987  65.2315006 145.0745017
 101.5549987  66.1585006 145.0745017  98.8889987  60.1405006 149.0835017
  99.8459987  60.1405006 149.0835017  98.6489987  61.0675006 149.0835017
 106.2159987  69.6745006 142.6155017 107.1729987  69.6745006 142.6155017
 105.9759987  70.6015006 142.6155017 101.4489987  67.8195006 149.3515017
 102.4059987  67.8195006 149.3515017 101.2089987  68.7465006 149.3515017
  98.4599987  62.0305006 147.0905017  99.4169987  62.0305006 147.0905017
  98.2199987  62.9575006 147.0905017  99.8669987  69.8055006 150.1665017
 100.8239987  69.8055006 150.1665017  99.6269987  70.7325006 150.1665017
  95.9469987  69.4205006 141.0135017  96.9039987  69.4205006 141.0135017
  95.7069987  70.3475006 141.0135017 102.8949987  57.4795006 146.5795017
 103.8519987  57.4795006 146.5795017 102.6549987  58.4065006 146.5795017
 107.4999987  72.7095006 143.8855017 108.4569987  72.7095006 143.8855017
 107.2599987  73.6365006 143.8855017 105.0919987  66.2475006 141.0145017
 106.0489987  66.2475006 141.0145017 104.8519987  67.1745006 141.0145017
 105.2199987  64.8405006 138.3185017 106.1769987  64.8405006 138.3185017
 104.9799987  65.7675006 138.3185017 100.2069987  67.1645006 143.9125017
 101.1639987  67.1645006 143.9125017  99.9669987  68.0915006 143.9125017
 101.5379987  70.5585006 146.5905017 102.4949987  70.5585006 146.5905017
 101.2979987  71.4855006 146.5905017 100.5739987  65.8985006 147.5525017
 101.5309987  65.8985006 147.5525017 100.3339987  66.8255006 147.5525017
 106.5269987  71.5105006 148.3225017 107.4839987  71.5105006 148.3225017
 106.2869987  72.4375006 148.3225017 101.4899987  70.3335006 152.2635017
 102.4469987  70.3335006 152.2635017 101.2499987  71.2605006 152.2635017
 107.4639987  65.6775006 139.6765017 108.4209987  65.6775006 139.6765017
 107.2239987  66.6045006 139.6765017  98.6559987  66.9285006 151.4745017
  99.6129987  66.9285006 151.4745017  98.4159987  67.8555006 151.4745017
 105.0689987  72.4225006 143.1345017 106.0259987  72.4225006 143.1345017
 104.8289987  73.3495006 143.1345017  99.7259987  72.4025006 153.0175017
 100.6829987  72.4025006 153.0175017  99.4859987  73.3295006 153.0175017
  99.1839987  66.1925006 141.5295017 100.1409987  66.1925006 141.5295017
  98.9439987  67.1195006 141.5295017  95.2859987  68.6045006 150.3795017
  96.2429987  68.6045006 150.3795017  95.0459987  69.5315006 150.3795017
  95.0349987  71.3395006 147.2025017  95.9919987  71.3395006 147.2025017
  94.7949987  72.2665006 147.2025017 104.2419987  71.5895006 151.7655017
 105.1989987  71.5895006 151.7655017 104.0019987  72.5165006 151.7655017
  98.2999987  74.2045006 143.3595017  99.2569987  74.2045006 143.3595017
  98.0599987  75.1315006 143.3595017 107.6779987  74.5075006 138.5255017
 108.6349987  74.5075006 138.5255017 107.4379987  75.4345006 138.5255017
 107.2479987  74.2935006 141.1455017 108.2049987  74.2935006 141.1455017
 107.0079987  75.2205006 141.1455017  97.5309987  69.9675006 151.3675017
  98.4879987  69.9675006 151.3675017  97.2909987  70.8945006 151.3675017
 100.2219987  58.3805006 147.3125017 101.1789987  58.3805006 147.3125017
  99.9819987  59.3075006 147.3125017 104.9009987  58.0355006 150.6845017
 105.8579987  58.0355006 150.6845017 104.6609987  58.9625006 150.6845017
 104.5159987  60.6265006 137.9985017 105.4729987  60.6265006 137.9985017
 104.2759987  61.5535006 137.9985017 100.3179987  63.3545006 148.5025017
 101.2749987  63.3545006 148.5025017 100.0779987  64.2815006 148.5025017
 100.2849987  63.5155006 143.4065017 101.2419987  63.5155006 143.4065017
 100.0449987  64.4425006 143.4065017 105.7579987  63.9515006 142.1465017
 106.7149987  63.9515006 142.1465017 105.5179987  64.8785006 142.1465017
 104.8979987  64.2195006 153.6745017 105.8549987  64.2195006 153.6745017
 104.6579987  65.1465006 153.6745017 106.7659987  63.4335006 145.0275017
 107.7229987  63.4335006 145.0275017 106.5259987  64.3605006 145.0275017
  98.5219987  62.8105006 150.4215017  99.4789987  62.8105006 150.4215017
  98.2819987  63.7375006 150.4215017 101.3889987  60.9245006 137.2205017
 102.3459987  60.9245006 137.2205017 101.1489987  61.8515006 137.2205017
  94.6039987  60.7455006 144.2025017  95.5609987  60.7455006 144.2025017
  94.3639987  61.6725006 144.2025017  95.8719987  61.4535006 139.5475017
  96.8289987  61.4535006 139.5475017  95.6319987  62.3805006 139.5475017
 106.0539987  65.0615006 149.6555017 107.0109987  65.0615006 149.6555017
 105.8139987  65.9885006 149.6555017 102.8469987  61.0175006 144.4275017
 103.8039987  61.0175006 144.4275017 102.6069987  61.9445006 144.4275017
  97.6619987  62.6025006 143.2945017  98.6189987  62.6025006 143.2945017
  97.4219987  63.5295006 143.2945017 101.3029987  62.6555006 140.9485017
 102.2599987  62.6555006 140.9485017 101.0629987  63.5825006 140.9485017
 107.2449987  60.1685006 147.7375017 108.2019987  60.1685006 147.7375017
 107.0049987  61.0955006 147.7375017  99.9609987  63.8475006 138.5005017
 100.9179987  63.8475006 138.5005017  99.7209987  64.7745006 138.5005017
  98.1239987  68.4035006 153.5865017  99.0809987  68.4035006 153.5865017
  97.8839987  69.3305006 153.5865017 104.0769987  63.7685006 146.2805017
 105.0339987  63.7685006 146.2805017 103.8369987  64.6955006 146.2805017
  99.1439987  59.9405006 142.7595017 100.1009987  59.9405006 142.7595017
  98.9039987  60.8675006 142.7595017 102.7599987  62.1265006 148.7385017
 103.7169987  62.1265006 148.7385017 102.5199987  63.0535006 148.7385017
 103.3639987  68.3585006 140.4255017 104.3209987  68.3585006 140.4255017
 103.1239987  69.2855006 140.4255017 107.1809987  61.1815006 138.5725017
 108.1379987  61.1815006 138.5725017 106.9409987  62.1085006 138.5725017
 104.8409987  68.5785006 151.6685017 105.7979987  68.5785006 151.6685017
 104.6009987  69.5055006 151.6685017   0.1169987  63.1765006 140.3295017
   1.0739987  63.1765006 140.3295017  -0.1230013  64.1035006 140.3295017
  98.4659987  67.7335006 146.2075017  99.4229987  67.7335006 146.2075017
  98.2259987  68.6605006 146.2075017 105.4639987  69.8015006 139.4585017
 106.4209987  69.8015006 139.4585017 105.2239987  70.7285006 139.4585017
  94.9329987  66.3375006 151.8385017  95.8899987  66.3375006 151.8385017
  94.6929987  67.2645006 151.8385017 102.4749987  65.7035006 153.6945017
 103.4319987  65.7035006 153.6945017 102.2349987  66.6305006 153.6945017
 107.1529987  71.0805006 151.6025017 108.1099987  71.0805006 151.6025017
 106.9129987  72.0075006 151.6025017 100.8369987  71.1925006 143.6175017
 101.7939987  71.1925006 143.6175017 100.5969987  72.1195006 143.6175017
  96.6049987  66.0405006 138.1525017  97.5619987  66.0405006 138.1525017
  96.3649987  66.9675006 138.1525017 102.2339987  68.8635006 143.1265017
 103.1909987  68.8635006 143.1265017 101.9939987  69.7905006 143.1265017
 102.7059987  73.0325006 149.5325017 103.6629987  73.0325006 149.5325017
 102.4659987  73.9595006 149.5325017 100.9389987  73.8545006 142.7185017
 101.8959987  73.8545006 142.7185017 100.6989987  74.7815006 142.7185017
 106.2739987  69.0485006 149.1925017 107.2309987  69.0485006 149.1925017
 106.0339987  69.9755006 149.1925017  97.0629987  60.8095006 151.0495017
  98.0199987  60.8095006 151.0495017  96.8229987  61.7365006 151.0495017
  96.7279987  72.6795006 149.4815017  97.6849987  72.6795006 149.4815017
  96.4879987  73.6065006 149.4815017 102.7459987  71.1805006 136.7905017
 103.7029987  71.1805006 136.7905017 102.5059987  72.1075006 136.7905017
 101.5149987  70.7165006 139.1915017 102.4719987  70.7165006 139.1915017
 101.2749987  71.6435006 139.1915017  97.9959987  67.9685006 139.6585017
  98.9529987  67.9685006 139.6585017  97.7559987  68.8955006 139.6585017
 105.8699987  60.6235006 149.9825017 106.8269987  60.6235006 149.9825017
 105.6299987  61.5505006 149.9825017 106.3229987  60.4875006 141.0545017
 107.2799987  60.4875006 141.0545017 106.0829987  61.4145006 141.0545017
 104.2839987  72.3895006 139.9575017 105.2409987  72.3895006 139.9575017
 104.0439987  73.3165006 139.9575017 103.7859987  62.0095006 141.8935017
 104.7429987  62.0095006 141.8935017 103.5459987  62.9365006 141.8935017
 104.3459987  62.9625006 151.1125017 105.3029987  62.9625006 151.1125017
 104.1059987  63.8895006 151.1125017 104.7029987  59.0445006 142.8125017
 105.6599987  59.0445006 142.8125017 104.4629987  59.9715006 142.8125017
 101.6479987  73.4215006 139.9285017 102.6049987  73.4215006 139.9285017
 101.4079987  74.3485006 139.9285017 100.3229987  60.1465006 139.5025017
 101.2799987  60.1465006 139.5025017 100.0829987  61.0735006 139.5025017
  98.6179987  70.5115006 138.6205017  99.5749987  70.5115006 138.6205017
  98.3779987  71.4385006 138.6205017  96.9219987  63.2435006 137.7145017
  97.8789987  63.2435006 137.7145017  96.6819987  64.1705006 137.7145017
  97.7239987  58.0415006 146.4175017  98.6809987  58.0415006 146.4175017
  97.4839987  58.9685006 146.4175017  96.6759987  71.9565006 142.5415017
  97.6329987  71.9565006 142.5415017  96.4359987  72.8835006 142.5415017
  95.8959987  74.6055006 153.8695017  96.8529987  74.6055006 153.8695017
  95.6559987  75.5325006 153.8695017 100.5549987  73.5325006 155.4785017
 101.5119987  73.5325006 155.4785017 100.3149987  74.4595006 155.4785017
 104.8699987  72.6365006 137.3725017 105.8269987  72.6365006 137.3725017
 104.6299987  73.5635006 137.3725017 107.1339987  71.9105006 154.2105017
 108.0909987  71.9105006 154.2105017 106.8939987  72.8375006 154.2105017
  95.8049987  68.3885006 154.8645017  96.7619987  68.3885006 154.8645017
  95.5649987  69.3155006 154.8645017 100.3119987  68.7535006 137.0535017
 101.2689987  68.7535006 137.0535017 100.0719987  69.6805006 137.0535017
 102.4959987  68.3685006 154.2525017 103.4529987  68.3685006 154.2525017
 102.2559987  69.2955006 154.2525017 105.5659987  69.7905006 136.6545017
 106.5229987  69.7905006 136.6545017 105.3259987  70.7175006 136.6545017
  96.7239987  65.6235006 154.2425017  97.6809987  65.6235006 154.2425017
  96.4839987  66.5505006 154.2425017 101.3469987  66.7325006 139.2715017
 102.3039987  66.7325006 139.2715017 101.1069987  67.6595006 139.2715017
 100.6489987  64.5855006 151.6235017 101.6059987  64.5855006 151.6235017
 100.4089987  65.5125006 151.6235017 102.4599987  64.6245006 137.7935017
 103.4169987  64.6245006 137.7935017 102.2199987  65.5515006 137.7935017
 105.6769987  67.1075006 154.9505017 106.6339987  67.1075006 154.9505017
 105.4369987  68.0345006 154.9505017 101.0299987  61.9425006 152.6755017
 101.9869987  61.9425006 152.6755017 100.7899987  62.8695006 152.6755017
 101.4079987  60.3085006 150.2015017 102.3649987  60.3085006 150.2015017
 101.1679987  61.2355006 150.2015017 102.9789987  65.7895006 150.4555017
 103.9359987  65.7895006 150.4555017 102.7389987  66.7165006 150.4555017
 107.3909987  63.5835006 155.5305017 108.3479987  63.5835006 155.5305017
 107.1509987  64.5105006 155.5305017  99.4739987  63.1695006 154.6085017
 100.4309987  63.1695006 154.6085017  99.2339987  64.0965006 154.6085017
 102.2159987  57.7645006 150.6085017 103.1729987  57.7645006 150.6085017
 101.9759987  58.6915006 150.6085017 103.4719987  62.0915006 154.2075017
 104.4289987  62.0915006 154.2075017 103.2319987  63.0185006 154.2075017
 106.1369987  61.1925006 153.2645017 107.0939987  61.1925006 153.2645017
 105.8969987  62.1195006 153.2645017 107.7729987  59.8905006 155.2055017
 108.7299987  59.8905006 155.2055017 107.5329987  60.8175006 155.2055017
  97.5669987  61.0995006 154.3345017  98.5239987  61.0995006 154.3345017
  97.3269987  62.0265006 154.3345017 102.3999987  57.1255006 153.3095017
 103.3569987  57.1255006 153.3095017 102.1599987  58.0525006 153.3095017
 102.7809987  58.7555006 155.3875017 103.7379987  58.7555006 155.3875017
 102.5409987  59.6825006 155.3875017 102.2709987  75.6805006 138.5945017
 103.2279987  75.6805006 138.5945017 102.0309987  76.6075006 138.5945017
  95.7499987  69.9955006 138.4665017  96.7069987  69.9955006 138.4665017
  95.5099987  70.9225006 138.4665017  94.5959987  75.6235006 143.0285017
  95.5529987  75.6235006 143.0285017  94.3559987  76.5505006 143.0285017
  95.4089987  73.7605006 144.8855017  96.3659987  73.7605006 144.8855017
  95.1689987  74.6875006 144.8855017  95.4589987  66.8565006 147.3705017
  96.4159987  66.8565006 147.3705017  95.2189987  67.7835006 147.3705017
  95.0769987  62.1395006 153.5385017  96.0339987  62.1395006 153.5385017
  94.8369987  63.0665006 153.5385017  96.2829987  60.4365006 146.3895017
  97.2399987  60.4365006 146.3895017  96.0429987  61.3635006 146.3895017
  94.5529987  63.4275006 147.4115017  95.5099987  63.4275006 147.4115017
  94.3129987  64.3545006 147.4115017  94.9269987  59.6905006 141.5075017
  95.8839987  59.6905006 141.5075017  94.6869987  60.6175006 141.5075017
  94.8699987  58.3445006 149.7985017  95.8269987  58.3445006 149.7985017
  94.6299987  59.2715006 149.7985017  97.1099987  71.5515006 153.9655017
  98.0669987  71.5515006 153.9655017  96.8699987  72.4785006 153.9655017
 100.0199987  72.5575006 150.2395017 100.9769987  72.5575006 150.2395017
  99.7799987  73.4845006 150.2395017 104.3249987  73.9695006 153.1855017
 105.2819987  73.9695006 153.1855017 104.0849987  74.8965006 153.1855017
 106.6619987  75.2505006 152.4325017 107.6189987  75.2505006 152.4325017
 106.4219987  76.1775006 152.4325017  97.4419987  75.7935006 150.2495017
  98.3989987  75.7935006 150.2495017  97.2019987  76.7205006 150.2495017
  99.9129987  75.3755006 149.3135017 100.8699987  75.3755006 149.3135017
  99.6729987  76.3025006 149.3135017 104.5729987  75.2735006 148.4935017
 105.5299987  75.2735006 148.4935017 104.3329987  76.2005006 148.4935017
 106.9299987  74.1455006 149.5055017 107.8869987  74.1455006 149.5055017
 106.6899987  75.0725006 149.5055017  96.8779987  74.4405006 147.1805017
  97.8349987  74.4405006 147.1805017  96.6379987  75.3675006 147.1805017
  98.9709987  73.1535006 145.8325017  99.9279987  73.1535006 145.8325017
  98.7309987  74.0805006 145.8325017 101.5369987  73.6335006 146.6995017
 102.4939987  73.6335006 146.6995017 101.2969987  74.5605006 146.6995017
 105.0329987  59.2675006 145.8565017 105.9899987  59.2675006 145.8565017
 104.7929987  60.1945006 145.8565017  97.3919987  57.9165006 143.6855017
  98.3489987  57.9165006 143.6855017  97.1519987  58.8435006 143.6855017
  96.1559987  57.6815006 139.3905017  97.1129987  57.6815006 139.3905017
  95.9159987  58.6085006 139.3905017 101.8999987  57.8255006 143.4755017
 102.8569987  57.8255006 143.4755017 101.6599987  58.7525006 143.4755017
 107.4969987  57.7615006 145.2935017 108.4539987  57.7615006 145.2935017
 107.2569987  58.6885006 145.2935017  96.1079987  73.6325006 140.3945017
  97.0649987  73.6325006 140.3945017  95.8679987  74.5595006 140.3945017
  98.0179987  59.6335006 137.9395017  98.9749987  59.6335006 137.9395017
  97.7779987  60.5605006 137.9395017 103.0559987  59.8725006 140.3325017
 104.0129987  59.8725006 140.3325017 102.8159987  60.7995006 140.3325017
 104.9249987  74.9545006 138.7605017 105.8819987  74.9545006 138.7605017
 104.6849987  75.8815006 138.7605017  97.2889987  58.4505006 153.1505017
  98.2459987  58.4505006 153.1505017  97.0489987  59.3775006 153.1505017
  99.2959987  57.8225006 154.7625017 100.2529987  57.8225006 154.7625017
  99.0559987  58.7495006 154.7625017  98.3319987  75.2355006 137.8005017
  99.2889987  75.2355006 137.8005017  98.0919987  76.1625006 137.8005017
  -0.0890013  57.1885006 154.9555017   0.8679987  57.1885006 154.9555017
  -0.3290013  58.1155006 154.9555017  12.1979987  85.9115006 143.5905017
  13.1549987  85.9115006 143.5905017  11.9579987  86.8385006 143.5905017
  11.0649987  85.1735006 147.0615017  12.0219987  85.1735006 147.0615017
  10.8249987  86.1005006 147.0615017   3.4779987  84.8045006 148.5855017
   4.4349987  84.8045006 148.5855017   3.2379987  85.7315006 148.5855017
  14.7709987  88.1125006 145.3325017  15.7279987  88.1125006 145.3325017
  14.5309987  89.0395006 145.3325017   4.3409987  89.2745006 147.1355017
   5.2979987  89.2745006 147.1355017   4.1009987  90.2015006 147.1355017
   1.0659987  82.9495006 142.5395017   2.0229987  82.9495006 142.5395017
   0.8259987  83.8765006 142.5395017   1.6869987  85.0455006 144.7205017
   2.6439987  85.0455006 144.7205017   1.4469987  85.9725006 144.7205017
  12.0639987  93.2635006 145.5625017  13.0209987  93.2635006 145.5625017
  11.8239987  94.1905006 145.5625017   9.4469987  87.5845006 147.4965017
  10.4039987  87.5845006 147.4965017   9.2069987  88.5115006 147.4965017
  18.0679987  79.2125006 148.2655017  19.0249987  79.2125006 148.2655017
  17.8279987  80.1395006 148.2655017  12.6129987  82.0315006 147.8235017
  13.5699987  82.0315006 147.8235017  12.3729987  82.9585006 147.8235017
   5.7389987  80.1115006 145.0445017   6.6959987  80.1115006 145.0445017
   5.4989987  81.0385006 145.0445017  13.4659987  80.2095006 143.4265017
  14.4229987  80.2095006 143.4265017  13.2259987  81.1365006 143.4265017
   2.5739987  82.5945006 145.6845017   3.5309987  82.5945006 145.6845017
   2.3339987  83.5215006 145.6845017   7.5199987  84.0815006 145.0785017
   8.4769987  84.0815006 145.0785017   7.2799987  85.0085006 145.0785017
  18.5019987  80.6455006 150.5265017  19.4589987  80.6455006 150.5265017
  18.2619987  81.5725006 150.5265017   4.6419987  79.0405006 149.1205017
   5.5989987  79.0405006 149.1205017   4.4019987  79.9675006 149.1205017
  11.9349987  88.5075006 142.6335017  12.8919987  88.5075006 142.6335017
  11.6949987  89.4345006 142.6335017   7.1539987  86.6705006 149.3535017
   8.1109987  86.6705006 149.3535017   6.9139987  87.5975006 149.3535017
  15.2619987  79.5435006 145.4195017  16.2189987  79.5435006 145.4195017
  15.0219987  80.4705006 145.4195017   4.2189987  80.8685006 147.1535017
   5.1759987  80.8685006 147.1535017   3.9789987  81.7955006 147.1535017
   5.5919987  88.6545006 150.1605017   6.5489987  88.6545006 150.1605017
   5.3519987  89.5815006 150.1605017   1.7069987  88.3025006 140.9615017
   2.6639987  88.3025006 140.9615017   1.4669987  89.2295006 140.9615017
  15.2989987  89.9445006 147.7025017  16.2559987  89.9445006 147.7025017
  15.0589987  90.8715006 147.7025017  15.6099987  78.2365006 149.0995017
  16.5669987  78.2365006 149.0995017  15.3699987  79.1635006 149.0995017
   8.5899987  76.3465006 146.5575017   9.5469987  76.3465006 146.5575017
   8.3499987  77.2735006 146.5575017  13.5479987  91.7135006 144.2805017
  14.5049987  91.7135006 144.2805017  13.3079987  92.6405006 144.2805017
  14.7459987  89.6565006 142.8255017  15.7029987  89.6565006 142.8255017
  14.5059987  90.5835006 142.8255017  16.3839987  88.2395006 151.3075017
  17.3409987  88.2395006 151.3075017  16.1439987  89.1665006 151.3075017
  10.8809987  85.1525006 141.0815017  11.8379987  85.1525006 141.0815017
  10.6409987  86.0795006 141.0815017  10.9379987  83.7065006 138.3345017
  11.8949987  83.7065006 138.3345017  10.6979987  84.6335006 138.3345017
  18.2589987  84.5535006 149.3605017  19.2159987  84.5535006 149.3605017
  18.0189987  85.4805006 149.3605017  14.3059987  85.3705006 142.0165017
  15.2629987  85.3705006 142.0165017  14.0659987  86.2975006 142.0165017
  14.2349987  83.5215006 151.1055017  15.1919987  83.5215006 151.1055017
  13.9949987  84.4485006 151.1055017   5.9529987  86.0335006 143.9085017
   6.9099987  86.0335006 143.9085017   5.7129987  86.9605006 143.9085017
   7.2879987  89.4525006 146.5705017   8.2449987  89.4525006 146.5705017
   7.0479987  90.3795006 146.5705017   6.2839987  84.7665006 147.5595017
   7.2409987  84.7665006 147.5595017   6.0439987  85.6935006 147.5595017
  12.6449987  90.3265006 148.2605017  13.6019987  90.3265006 148.2605017
  12.4049987  91.2535006 148.2605017   7.2049987  89.1845006 152.2615017
   8.1619987  89.1845006 152.2615017   6.9649987  90.1115006 152.2615017
  13.1669987  84.5575006 139.6865017  14.1239987  84.5575006 139.6865017
  12.9269987  85.4845006 139.6865017   4.1249987  85.3555006 151.4525017
   5.0819987  85.3555006 151.4525017   3.8849987  86.2825006 151.4525017
  10.8609987  91.2715006 143.1825017  11.8179987  91.2715006 143.1825017
  10.6209987  92.1985006 143.1825017   5.4409987  91.2335006 153.0185017
   6.3979987  91.2335006 153.0185017   5.2009987  92.1605006 153.0185017
  16.9079987  76.2735006 139.4905017  17.8649987  76.2735006 139.4905017
  16.6679987  77.2005006 139.4905017   4.9219987  85.0635006 141.5275017
   5.8789987  85.0635006 141.5275017   4.6819987  85.9905006 141.5275017
  18.0339987  90.6115006 137.9545017  18.9909987  90.6115006 137.9545017
  17.7939987  91.5385006 137.9545017   1.1249987  87.4395006 150.3405017
   2.0819987  87.4395006 150.3405017   0.8849987  88.3665006 150.3405017
   1.0089987  90.3395006 146.9155017   1.9659987  90.3395006 146.9155017
   0.7689987  91.2665006 146.9155017  18.9889987  90.9035006 152.8805017
  19.9459987  90.9035006 152.8805017  18.7489987  91.8305006 152.8805017
   9.9449987  90.4485006 151.7445017  10.9019987  90.4485006 151.7445017
   9.7049987  91.3755006 151.7445017  10.3639987  94.1955006 141.5425017
  11.3209987  94.1955006 141.5425017  10.1239987  95.1225006 141.5425017
   4.0029987  93.0865006 143.3205017   4.9599987  93.0865006 143.3205017
   3.7629987  94.0135006 143.3205017  13.3799987  93.4185006 138.5225017
  14.3369987  93.4185006 138.5225017  13.1399987  94.3455006 138.5225017
  13.1229987  93.3445006 141.3245017  14.0799987  93.3445006 141.3245017
  12.8829987  94.2715006 141.3245017  16.1289987  82.3775006 153.3615017
  17.0859987  82.3775006 153.3615017  15.8889987  83.3045006 153.3615017
   3.2629987  88.8125006 151.3705017   4.2199987  88.8125006 151.3705017
   3.0229987  89.7395006 151.3705017   5.9429987  77.2525006 147.3215017
   6.8999987  77.2525006 147.3215017   5.7029987  78.1795006 147.3215017
  10.5819987  76.9345006 150.6855017  11.5389987  76.9345006 150.6855017
  10.3419987  77.8615006 150.6855017  13.8849987  80.7515006 151.5735017
  14.8419987  80.7515006 151.5735017  13.6449987  81.6785006 151.5735017
  14.7829987  85.6465006 137.8335017  15.7399987  85.6465006 137.8335017
  14.5429987  86.5735006 137.8335017  10.2559987  79.5715006 138.1665017
  11.2129987  79.5715006 138.1665017  10.0159987  80.4985006 138.1665017
   6.0499987  82.2185006 148.5365017   7.0069987  82.2185006 148.5365017
   5.8099987  83.1455006 148.5365017   5.9879987  82.3755006 143.4105017
   6.9449987  82.3755006 143.4105017   5.7479987  83.3025006 143.4105017
  11.5209987  82.8305006 142.1685017  12.4779987  82.8305006 142.1685017
  11.2809987  83.7575006 142.1685017  10.5989987  83.0495006 153.6415017
  11.5559987  83.0495006 153.6415017  10.3589987  83.9765006 153.6415017
  12.5529987  82.3225006 145.0305017  13.5099987  82.3225006 145.0305017
  12.3129987  83.2495006 145.0305017   3.6929987  82.4845006 150.2675017
   4.6499987  82.4845006 150.2675017   3.4529987  83.4115006 150.2675017
   7.1059987  79.8725006 137.2735017   8.0629987  79.8725006 137.2735017
   6.8659987  80.7995006 137.2735017   0.4209987  78.9185006 144.5495017
   1.3779987  78.9185006 144.5495017   0.1809987  79.8455006 144.5495017
   1.8079987  80.3305006 139.6815017   2.7649987  80.3305006 139.6815017
   1.5679987  81.2575006 139.6815017  11.7689987  83.9275006 149.6175017
  12.7259987  83.9275006 149.6175017  11.5289987  84.8545006 149.6175017
   8.5669987  79.8835006 144.4305017   9.5239987  79.8835006 144.4305017
   8.3269987  80.8105006 144.4305017   3.3929987  81.4395006 143.2765017
   4.3499987  81.4395006 143.2765017   3.1529987  82.3665006 143.2765017
   7.0169987  81.5145006 140.9495017   7.9739987  81.5145006 140.9495017
   6.7769987  82.4415006 140.9495017  12.9709987  79.1205006 147.6825017
  13.9279987  79.1205006 147.6825017  12.7309987  80.0475006 147.6825017
   5.6879987  82.7045006 138.4995017   6.6449987  82.7045006 138.4995017
   5.4479987  83.6315006 138.4995017  16.1869987  94.7715006 153.9965017
  17.1439987  94.7715006 153.9965017  15.9469987  95.6985006 153.9965017
   3.8579987  87.2205006 153.5805017   4.8149987  87.2205006 153.5805017
   3.6179987  88.1475006 153.5805017   9.8589987  82.6515006 146.3285017
  10.8159987  82.6515006 146.3285017   9.6189987  83.5785006 146.3285017
   4.8559987  78.8025006 142.7425017   5.8129987  78.8025006 142.7425017
   4.6159987  79.7295006 142.7425017   8.4939987  80.9895006 148.7395017
   9.4509987  80.9895006 148.7395017   8.2539987  81.9165006 148.7395017
   9.0789987  87.2125006 140.4265017  10.0359987  87.2125006 140.4265017
   8.8389987  88.1395006 140.4265017  16.2429987  86.3905006 149.2375017
  17.1999987  86.3905006 149.2375017  16.0029987  87.3175006 149.2375017
  12.9489987  80.0335006 138.5915017  13.9059987  80.0335006 138.5915017
  12.7089987  80.9605006 138.5915017  10.5669987  87.4535006 151.6735017
  11.5239987  87.4535006 151.6735017  10.3269987  88.3805006 151.6735017
  13.6459987  81.9195006 140.2865017  14.6029987  81.9195006 140.2865017
  13.4059987  82.8465006 140.2865017   4.1859987  86.5905006 146.2335017
   5.1429987  86.5905006 146.2335017   3.9459987  87.5175006 146.2335017
  11.1789987  88.6645006 139.4555017  12.1359987  88.6645006 139.4555017
  10.9389987  89.5915006 139.4555017   1.1629987  85.0065006 151.5105017
   2.1199987  85.0065006 151.5105017   0.9229987  85.9335006 151.5105017
   8.1889987  84.5585006 153.6945017   9.1459987  84.5585006 153.6945017
   7.9489987  85.4855006 153.6945017  12.8599987  89.8905006 151.6155017
  13.8169987  89.8905006 151.6155017  12.6199987  90.8175006 151.6155017
  18.5669987  82.0905006 140.0475017  19.5239987  82.0905006 140.0475017
  18.3269987  83.0175006 140.0475017  18.5279987  87.9425006 152.8345017
  19.4849987  87.9425006 152.8345017  18.2879987  88.8695006 152.8345017
  16.8669987  90.8985006 140.4285017  17.8239987  90.8985006 140.4285017
  16.6269987  91.8255006 140.4285017  14.0339987  85.7255006 147.5115017
  14.9909987  85.7255006 147.5115017  13.7939987  86.6525006 147.5115017
   6.5789987  90.0435006 143.6415017   7.5359987  90.0435006 143.6415017
   6.3389987  90.9705006 143.6415017   2.3069987  84.8775006 138.2075017
   3.2639987  84.8775006 138.2075017   2.0669987  85.8045006 138.2075017
   7.9829987  87.7135006 143.1405017   8.9399987  87.7135006 143.1405017
   7.7429987  88.6405006 143.1405017   8.4519987  91.8875006 149.5015017
   9.4089987  91.8875006 149.5015017   8.2119987  92.8145006 149.5015017
   6.6719987  92.7315006 142.7085017   7.6289987  92.7315006 142.7085017
   6.4319987  93.6585006 142.7085017  11.9789987  87.9225006 149.1765017
  12.9359987  87.9225006 149.1765017  11.7389987  88.8495006 149.1765017
  14.2339987  88.9485006 138.2635017  15.1909987  88.9485006 138.2635017
  13.9939987  89.8755006 138.2635017  14.7439987  92.4915006 151.6685017
  15.7009987  92.4915006 151.6685017  14.5039987  93.4185006 151.6685017
  18.7579987  93.3415006 138.5385017  19.7149987  93.3415006 138.5385017
  18.5179987  94.2685006 138.5385017   2.8159987  79.7545006 151.0835017
   3.7729987  79.7545006 151.0835017   2.5759987  80.6815006 151.0835017
  15.0749987  87.6015006 140.5045017  16.0319987  87.6015006 140.5045017
  14.8349987  88.5285006 140.5045017   2.4779987  91.5415006 149.4625017
   3.4349987  91.5415006 149.4625017   2.2379987  92.4685006 149.4625017
   8.4929987  90.0225006 136.7905017   9.4499987  90.0225006 136.7905017
   8.2529987  90.9495006 136.7905017   7.2259987  89.5815006 139.1805017
   8.1829987  89.5815006 139.1805017   6.9859987  90.5085006 139.1805017
   3.6709987  86.8215006 139.6325017   4.6279987  86.8215006 139.6325017
   3.4309987  87.7485006 139.6325017  11.5529987  79.5075006 149.9895017
  12.5099987  79.5075006 149.9895017  11.3129987  80.4345006 149.9895017
  12.2999987  79.1185006 141.0975017  13.2569987  79.1185006 141.0975017
  12.0599987  80.0455006 141.0975017   9.9939987  91.2525006 139.9525017
  10.9509987  91.2525006 139.9525017   9.7539987  92.1795006 139.9525017
   9.5269987  80.8495006 141.8965017  10.4839987  80.8495006 141.8965017
   9.2869987  81.7765006 141.8965017  10.0819987  81.8555006 151.0945017
  11.0389987  81.8555006 151.0945017   9.8419987  82.7825006 151.0945017
  10.3959987  77.9015006 142.8095017  11.3529987  77.9015006 142.8095017
  10.1559987  78.8285006 142.8095017   7.3379987  92.2905006 139.9215017
   8.2949987  92.2905006 139.9215017   7.0979987  93.2175006 139.9215017
   6.0179987  78.9915006 139.5565017   6.9749987  78.9915006 139.5565017
   5.7779987  79.9185006 139.5565017  16.2759987  79.7325006 151.9425017
  17.2329987  79.7325006 151.9425017  16.0359987  80.6595006 151.9425017
  14.8759987  83.5165006 145.9735017  15.8329987  83.5165006 145.9735017
  14.6359987  84.4435006 145.9735017   4.3109987  89.4125006 138.5725017
   5.2679987  89.4125006 138.5725017   4.0709987  90.3395006 138.5725017
   2.6049987  82.0965006 137.7955017   3.5619987  82.0965006 137.7955017
   2.3649987  83.0235006 137.7955017  15.9449987  92.7625006 147.6355017
  16.9019987  92.7625006 147.6355017  15.7049987  93.6895006 147.6355017
   3.5389987  76.8455006 146.3745017   4.4959987  76.8455006 146.3745017
   3.2989987  77.7725006 146.3745017   2.3959987  90.8395006 142.5695017
   3.3529987  90.8395006 142.5695017   2.1559987  91.7665006 142.5695017
   1.7169987  93.4095006 153.7995017   2.6739987  93.4095006 153.7995017
   1.4769987  94.3365006 153.7995017   6.2719987  92.3775006 155.4725017
   7.2289987  92.3775006 155.4725017   6.0319987  93.3045006 155.4725017
  10.5759987  91.5085006 137.3695017  11.5329987  91.5085006 137.3695017
  10.3359987  92.4355006 137.3695017  12.8029987  90.7625006 154.2135017
  13.7599987  90.7625006 154.2135017  12.5629987  91.6895006 154.2135017
  14.7699987  91.6015006 137.2615017  15.7269987  91.6015006 137.2615017
  14.5299987  92.5285006 137.2615017   1.5089987  87.2505006 154.8535017
   2.4659987  87.2505006 154.8535017   1.2689987  88.1775006 154.8535017
   6.0249987  87.6125006 137.0485017   6.9819987  87.6125006 137.0485017
   5.7849987  88.5395006 137.0485017   8.2309987  87.2265006 154.2485017
   9.1879987  87.2265006 154.2485017   7.9909987  88.1535006 154.2485017
  11.2099987  88.6515006 136.6555017  12.1669987  88.6515006 136.6555017
  10.9699987  89.5785006 136.6555017  13.9349987  87.0965006 151.6355017
  14.8919987  87.0965006 151.6355017  13.6949987  88.0235006 151.6355017
   2.3629987  84.4455006 154.2315017   3.3199987  84.4455006 154.2315017
   2.1229987  85.3725006 154.2315017   7.0649987  85.5925006 139.2735017
   8.0219987  85.5925006 139.2735017   6.8249987  86.5195006 139.2735017
   6.3379987  83.4235006 151.6045017   7.2949987  83.4235006 151.6045017
   6.0979987  84.3505006 151.6045017   8.1819987  83.4975006 137.7965017
   9.1389987  83.4975006 137.7965017   7.9419987  84.4245006 137.7965017
  11.3939987  85.9675006 154.9195017  12.3509987  85.9675006 154.9195017
  11.1539987  86.8945006 154.9195017  17.5689987  86.3535006 137.2885017
  18.5259987  86.3535006 137.2885017  17.3289987  87.2805006 137.2885017
   6.7339987  80.7965006 152.6725017   7.6909987  80.7965006 152.6725017
   6.4939987  81.7235006 152.6725017   7.1279987  79.1725006 150.2035017
   8.0849987  79.1725006 150.2035017   6.8879987  80.0995006 150.2035017
   8.6809987  84.6425006 150.4515017   9.6379987  84.6425006 150.4515017
   8.4409987  85.5695006 150.4515017  13.0799987  82.4215006 155.4275017
  14.0369987  82.4215006 155.4275017  12.8399987  83.3485006 155.4275017
  14.4069987  85.2015006 153.5625017  15.3639987  85.2015006 153.5625017
  14.1669987  86.1285006 153.5625017   5.1809987  82.0465006 154.5815017
   6.1379987  82.0465006 154.5815017   4.9409987  82.9735006 154.5815017
   7.9129987  76.6195006 150.6165017   8.8699987  76.6195006 150.6165017
   7.6729987  77.5465006 150.6165017   9.1959987  80.9435006 154.2115017
  10.1529987  80.9435006 154.2115017   8.9559987  81.8705006 154.2115017
  11.9139987  80.0765006 153.2865017  12.8709987  80.0765006 153.2865017
  11.6739987  81.0035006 153.2865017  13.5099987  78.7075006 155.2265017
  14.4669987  78.7075006 155.2265017  13.2699987  79.6345006 155.2265017
   3.3279987  79.9725006 154.3255017   4.2849987  79.9725006 154.3255017
   3.0879987  80.8995006 154.3255017   8.1359987  75.9805006 153.3025017
   9.0929987  75.9805006 153.3025017   7.8959987  76.9075006 153.3025017
   8.5029987  77.6135006 155.3915017   9.4599987  77.6135006 155.3915017
   8.2629987  78.5405006 155.3915017   7.9729987  94.5475006 138.5885017
   8.9299987  94.5475006 138.5885017   7.7329987  95.4745006 138.5885017
   1.5679987  89.0235006 138.1165017   2.5249987  89.0235006 138.1165017
   1.3279987  89.9505006 138.1165017 108.1419987  94.5425006 143.0205017
 109.0989987  94.5425006 143.0205017 107.9019987  95.4695006 143.0205017
   1.5149987  92.7725006 144.9905017   2.4719987  92.7725006 144.9905017
   1.2749987  93.6995006 144.9905017  18.6619987  93.4145006 147.8355017
  19.6189987  93.4145006 147.8355017  18.4219987  94.3415006 147.8355017
  18.2379987  93.0125006 150.7785017  19.1949987  93.0125006 150.7785017
  17.9979987  93.9395006 150.7785017  16.6829987  88.7435006 155.4345017
  17.6399987  88.7435006 155.4345017  16.4429987  89.6705006 155.4345017
  17.9959987  87.0605006 140.8935017  18.9529987  87.0605006 140.8935017
  17.7559987  87.9875006 140.8935017  18.3609987  85.1335006 142.7585017
  19.3179987  85.1335006 142.7585017  18.1209987  86.0605006 142.7585017
  18.1199987  87.8415006 147.7405017  19.0769987  87.8415006 147.7405017
  17.8799987  88.7685006 147.7405017  16.6659987  90.7385006 150.0215017
  17.6229987  90.7385006 150.0215017  16.4259987  91.6655006 150.0215017
  18.6749987  84.9445006 139.1835017  19.6319987  84.9445006 139.1835017
  18.4349987  85.8715006 139.1835017  17.1259987  82.1225006 137.9055017
  18.0829987  82.1225006 137.9055017  16.8859987  83.0495006 137.9055017
  16.1759987  83.6125006 143.3215017  17.1329987  83.6125006 143.3215017
  15.9359987  84.5395006 143.3215017   1.1829987  85.6835006 147.3845017
   2.1399987  85.6835006 147.3845017   0.9429987  86.6105006 147.3845017
  17.0279987  85.5795006 153.0005017  17.9849987  85.5795006 153.0005017
  16.7879987  86.5065006 153.0005017  18.5369987  83.4725006 153.6655017
  19.4939987  83.4725006 153.6655017  18.2969987  84.3995006 153.6655017
  16.1999987  79.6825006 136.9695017  17.1569987  79.6825006 136.9695017
  15.9599987  80.6095006 136.9695017  15.8439987  81.2005006 141.7885017
  16.8009987  81.2005006 141.7885017  15.6039987  82.1275006 141.7885017
  16.4809987  81.7415006 147.2255017  17.4379987  81.7415006 147.2255017
  16.2409987  82.6685006 147.2255017  16.5499987  82.4665006 150.0145017
  17.5069987  82.4665006 150.0145017  16.3099987  83.3935006 150.0145017
   0.8809987  80.9555006 153.4455017   1.8379987  80.9555006 153.4455017
   0.6409987  81.8825006 153.4455017  18.8129987  76.5085006 155.3615017
  19.7699987  76.5085006 155.3615017  18.5729987  77.4355006 155.3615017
  16.5109987  78.4745006 141.8375017  17.4679987  78.4745006 141.8375017
  16.2709987  79.4015006 141.8375017   2.3399987  79.4045006 146.1345017
   3.2969987  79.4045006 146.1345017   2.0999987  80.3315006 146.1345017
   0.9399987  82.2485006 147.5775017   1.8969987  82.2485006 147.5775017
   0.6999987  83.1755006 147.5775017  18.3429987  78.6145006 153.7135017
  19.2999987  78.6145006 153.7135017  18.1029987  79.5415006 153.7135017
  18.4039987  78.4465006 138.5885017  19.3609987  78.4465006 138.5885017
  18.1639987  79.3735006 138.5885017   0.8859987  78.4985006 141.5085017
   1.8429987  78.4985006 141.5085017   0.6459987  79.4255006 141.5085017
  15.3909987  93.4915006 143.4505017  16.3479987  93.4915006 143.4505017
  15.1509987  94.4185006 143.4505017 108.3519987  77.0945006 150.5305017
 109.3089987  77.0945006 150.5305017 108.1119987  78.0215006 150.5305017
   2.8149987  90.4315006 153.9835017   3.7719987  90.4315006 153.9835017
   2.5749987  91.3585006 153.9835017   5.7279987  91.4015006 150.2435017
   6.6849987  91.4015006 150.2435017   5.4879987  92.3285006 150.2435017
  10.0569987  92.8275006 153.1565017  11.0139987  92.8275006 153.1565017
   9.8169987  93.7545006 153.1565017  12.3559987  94.0975006 152.4445017
  13.3129987  94.0975006 152.4445017  12.1159987  95.0245006 152.4445017
  17.3559987  76.7105006 151.5495017  18.3129987  76.7105006 151.5495017
  17.1159987  77.6375006 151.5495017   3.1499987  94.6605006 150.2705017
   4.1069987  94.6605006 150.2705017   2.9099987  95.5875006 150.2705017
   5.6539987  94.2345006 149.2915017   6.6109987  94.2345006 149.2915017
   5.4139987  95.1615006 149.2915017  10.3289987  94.1505006 148.4885017
  11.2859987  94.1505006 148.4885017  10.0889987  95.0775006 148.4885017
  12.6479987  92.9685006 149.4505017  13.6049987  92.9685006 149.4505017
  12.4079987  93.8955006 149.4505017  15.2239987  94.5375006 149.7375017
  16.1809987  94.5375006 149.7375017  14.9839987  95.4645006 149.7375017
   2.6409987  93.3175006 147.2325017   3.5979987  93.3175006 147.2325017
   2.4009987  94.2445006 147.2325017   4.7049987  92.0145006 145.8055017
   5.6619987  92.0145006 145.8055017   4.4649987  92.9415006 145.8055017
   7.3549987  92.5025006 146.6995017   8.3119987  92.5025006 146.6995017
   7.1149987  93.4295006 146.6995017  10.7539987  78.1455006 145.8445017
  11.7109987  78.1455006 145.8445017  10.5139987  79.0725006 145.8445017
  15.8879987  76.2015006 145.9325017  16.8449987  76.2015006 145.9325017
  15.6479987  77.1285006 145.9325017  17.5729987  77.4125006 144.2355017
  18.5299987  77.4125006 144.2355017  17.3329987  78.3395006 144.2355017
   3.1279987  76.7725006 143.6405017   4.0849987  76.7725006 143.6405017
   2.8879987  77.6995006 143.6405017   1.9489987  76.5435006 139.4715017
   2.9059987  76.5435006 139.4715017   1.7089987  77.4705006 139.4715017
   7.6149987  76.6925006 143.4765017   8.5719987  76.6925006 143.4765017
   7.3749987  77.6195006 143.4765017  13.2819987  76.7165006 145.1155017
  14.2389987  76.7165006 145.1155017  13.0419987  77.6435006 145.1155017
  14.5849987  76.7495006 140.7485017  15.5419987  76.7495006 140.7485017
  14.3449987  77.6765006 140.7485017   1.9739987  92.5325006 140.3585017
   2.9309987  92.5325006 140.3585017   1.7339987  93.4595006 140.3585017
   3.7469987  78.4755006 137.9485017   4.7039987  78.4755006 137.9485017
   3.5069987  79.4025006 137.9485017   8.7389987  78.7315006 140.3645017
   9.6959987  78.7315006 140.3645017   8.4989987  79.6585006 140.3645017
  10.6569987  93.8325006 138.7475017  11.6139987  93.8325006 138.7475017
  10.4169987  94.7595006 138.7475017  17.3869987  93.3005006 141.4875017
  18.3439987  93.3005006 141.4875017  17.1469987  94.2275006 141.4875017
   3.0009987  77.3145006 153.1725017   3.9579987  77.3145006 153.1725017
   2.7609987  78.2415006 153.1725017   5.0149987  76.6865006 154.7635017
   5.9719987  76.6865006 154.7635017   4.7749987  77.6135006 154.7635017
   3.7619987  93.5225006 137.4705017   4.7189987  93.5225006 137.4705017
   3.5219987  94.4495006 137.4705017  13.4179987  75.9855006 154.9265017
  14.3749987  75.9855006 154.9265017  13.1779987  76.9125006 154.9265017
  16.6249987  92.0245006 153.5805017  17.5819987  92.0245006 153.5805017
  16.3849987  92.9515006 153.5805017  31.0549987  85.9135006 143.5905017
  32.0119987  85.9135006 143.5905017  30.8149987  86.8405006 143.5905017
  29.9209987  85.1725006 147.0615017  30.8779987  85.1725006 147.0615017
  29.6809987  86.0995006 147.0615017  22.2839987  84.8265006 148.6095017
  23.2409987  84.8265006 148.6095017  22.0439987  85.7535006 148.6095017
  33.6279987  88.1125006 145.3325017  34.5849987  88.1125006 145.3325017
  33.3879987  89.0395006 145.3325017  23.2119987  89.2765006 147.1315017
  24.1689987  89.2765006 147.1315017  22.9719987  90.2035006 147.1315017
  19.8579987  82.8575006 142.5935017  20.8149987  82.8575006 142.5935017
  19.6179987  83.7845006 142.5935017  20.5509987  85.0695006 144.7235017
  21.5079987  85.0695006 144.7235017  20.3109987  85.9965006 144.7235017
  30.7389987  93.2615006 145.5685017  31.6959987  93.2615006 145.5685017
  30.4989987  94.1885006 145.5685017  28.3039987  87.5795006 147.4975017
  29.2609987  87.5795006 147.4975017  28.0639987  88.5065006 147.4975017
  36.9239987  79.2125006 148.2665017  37.8809987  79.2125006 148.2665017
  36.6839987  80.1395006 148.2665017  31.4689987  82.0325006 147.8235017
  32.4259987  82.0325006 147.8235017  31.2289987  82.9595006 147.8235017
  24.5929987  80.1185006 145.0575017  25.5499987  80.1185006 145.0575017
  24.3529987  81.0455006 145.0575017  32.3219987  80.2085006 143.4255017
  33.2789987  80.2085006 143.4255017  32.0819987  81.1355006 143.4255017
  21.2139987  82.5265006 145.7955017  22.1709987  82.5265006 145.7955017
  20.9739987  83.4535006 145.7955017  26.3779987  84.0835006 145.0805017
  27.3349987  84.0835006 145.0805017  26.1379987  85.0105006 145.0805017
  37.3579987  80.6455006 150.5265017  38.3149987  80.6455006 150.5265017
  37.1179987  81.5725006 150.5265017  23.4779987  79.0175006 149.1015017
  24.4349987  79.0175006 149.1015017  23.2379987  79.9445006 149.1015017
  30.7889987  88.5115006 142.6355017  31.7459987  88.5115006 142.6355017
  30.5489987  89.4385006 142.6355017  26.0099987  86.6655006 149.3555017
  26.9669987  86.6655006 149.3555017  25.7699987  87.5925006 149.3555017
  34.1179987  79.5435006 145.4195017  35.0749987  79.5435006 145.4195017
  33.8779987  80.4705006 145.4195017  23.0399987  80.8875006 147.1095017
  23.9969987  80.8875006 147.1095017  22.7999987  81.8145006 147.1095017
  24.4469987  88.6555006 150.1655017  25.4039987  88.6555006 150.1655017
  24.2069987  89.5825006 150.1655017  20.5349987  88.2855006 140.9905017
  21.4919987  88.2855006 140.9905017  20.2949987  89.2125006 140.9905017
  34.1499987  89.9465006 147.7025017  35.1069987  89.9465006 147.7025017
  33.9099987  90.8735006 147.7025017  34.4659987  78.2355006 149.0995017
  35.4229987  78.2355006 149.0995017  34.2259987  79.1625006 149.0995017
  27.4469987  76.3475006 146.5595017  28.4039987  76.3475006 146.5595017
  27.2069987  77.2745006 146.5595017  32.4019987  91.7315006 144.3045017
  33.3589987  91.7315006 144.3045017  32.1619987  92.6585006 144.3045017
  33.6009987  89.6545006 142.8225017  34.5579987  89.6545006 142.8225017
  33.3609987  90.5815006 142.8225017  35.2399987  88.2395006 151.3075017
  36.1969987  88.2395006 151.3075017  34.9999987  89.1665006 151.3075017
  29.7379987  85.1525006 141.0815017  30.6949987  85.1525006 141.0815017
  29.4979987  86.0795006 141.0815017  29.7909987  83.7085006 138.3345017
  30.7479987  83.7085006 138.3345017  29.5509987  84.6355006 138.3345017
  37.1149987  84.5535006 149.3605017  38.0719987  84.5535006 149.3605017
  36.8749987  85.4805006 149.3605017  33.1609987  85.3695006 142.0135017
  34.1179987  85.3695006 142.0135017  32.9209987  86.2965006 142.0135017
  33.0909987  83.5215006 151.1055017  34.0479987  83.5215006 151.1055017
  32.8509987  84.4485006 151.1055017  24.7849987  86.0205006 143.9065017
  25.7419987  86.0205006 143.9065017  24.5449987  86.9475006 143.9065017
  26.1139987  89.4175006 146.5895017  27.0709987  89.4175006 146.5895017
  25.8739987  90.3445006 146.5895017  25.1239987  84.7615006 147.5585017
  26.0809987  84.7615006 147.5585017  24.8839987  85.6885006 147.5585017
  31.5089987  90.3235006 148.2665017  32.4659987  90.3235006 148.2665017
  31.2689987  91.2505006 148.2665017  26.0619987  89.1845006 152.2625017
  27.0189987  89.1845006 152.2625017  25.8219987  90.1115006 152.2625017
  32.0229987  84.5305006 139.6725017  32.9799987  84.5305006 139.6725017
  31.7829987  85.4575006 139.6725017  22.9959987  85.3525006 151.4385017
  23.9529987  85.3525006 151.4385017  22.7559987  86.2795006 151.4385017
  29.7489987  91.2695006 143.1495017  30.7059987  91.2695006 143.1495017
  29.5089987  92.1965006 143.1495017  24.3029987  91.2355006 153.0165017
  25.2599987  91.2355006 153.0165017  24.0629987  92.1625006 153.0165017
  35.7619987  76.2745006 139.4685017  36.7189987  76.2745006 139.4685017
  35.5219987  77.2015006 139.4685017  23.7559987  85.0535006 141.5235017
  24.7129987  85.0535006 141.5235017  23.5159987  85.9805006 141.5235017
  36.8899987  90.6115006 137.9545017  37.8469987  90.6115006 137.9545017
  36.6499987  91.5385006 137.9545017  19.8499987  87.4645006 150.3895017
  20.8069987  87.4645006 150.3895017  19.6099987  88.3915006 150.3895017
  19.6089987  90.2025006 147.1935017  20.5659987  90.2025006 147.1935017
  19.3689987  91.1295006 147.1935017  37.8409987  90.9005006 152.8675017
  38.7979987  90.9005006 152.8675017  37.6009987  91.8275006 152.8675017
  28.8019987  90.4475006 151.7445017  29.7589987  90.4475006 151.7445017
  28.5619987  91.3745006 151.7445017  29.2149987  94.1975006 141.5255017
  30.1719987  94.1975006 141.5255017  28.9749987  95.1245006 141.5255017
  22.8769987  93.0615006 143.3605017  23.8339987  93.0615006 143.3605017
  22.6369987  93.9885006 143.3605017  32.2359987  93.4185006 138.5235017
  33.1929987  93.4185006 138.5235017  31.9959987  94.3455006 138.5235017
  31.9809987  93.3375006 141.3105017  32.9379987  93.3375006 141.3105017
  31.7409987  94.2645006 141.3105017  34.9849987  82.3775006 153.3605017
  35.9419987  82.3775006 153.3605017  34.7449987  83.3045006 153.3605017
  22.1239987  88.7825006 151.3555017  23.0809987  88.7825006 151.3555017
  21.8839987  89.7095006 151.3555017  24.7939987  77.2435006 147.3205017
  25.7509987  77.2435006 147.3205017  24.5539987  78.1705006 147.3205017
  29.4389987  76.9345006 150.6855017  30.3959987  76.9345006 150.6855017
  29.1989987  77.8615006 150.6855017  32.7409987  80.7525006 151.5735017
  33.6979987  80.7525006 151.5735017  32.5009987  81.6795006 151.5735017
  33.6389987  85.6465006 137.8345017  34.5959987  85.6465006 137.8345017
  33.3989987  86.5735006 137.8345017  29.0819987  79.4905006 138.0095017
  30.0389987  79.4905006 138.0095017  28.8419987  80.4175006 138.0095017
  24.8949987  82.2135006 148.5295017  25.8519987  82.2135006 148.5295017
  24.6549987  83.1405006 148.5295017  24.8579987  82.3725006 143.4105017
  25.8149987  82.3725006 143.4105017  24.6179987  83.2995006 143.4105017
  30.3759987  82.8305006 142.1685017  31.3329987  82.8305006 142.1685017
  30.1359987  83.7575006 142.1685017  29.4549987  83.0495006 153.6415017
  30.4119987  83.0495006 153.6415017  29.2149987  83.9765006 153.6415017
  31.4089987  82.3235006 145.0305017  32.3659987  82.3235006 145.0305017
  31.1689987  83.2505006 145.0305017  22.5419987  82.4975006 150.2615017
  23.4989987  82.4975006 150.2615017  22.3019987  83.4245006 150.2615017
  25.9689987  79.8415006 137.2605017  26.9259987  79.8415006 137.2605017
  25.7289987  80.7685006 137.2605017  19.1819987  79.6055006 144.2025017
  20.1389987  79.6055006 144.2025017  18.9419987  80.5325006 144.2025017
  20.4439987  80.3095006 139.5495017  21.4009987  80.3095006 139.5495017
  20.2039987  81.2365006 139.5495017  30.6249987  83.9275006 149.6165017
  31.5819987  83.9275006 149.6165017  30.3849987  84.8545006 149.6165017
  27.4229987  79.8835006 144.4305017  28.3799987  79.8835006 144.4305017
  27.1829987  80.8105006 144.4305017  22.2379987  81.4585006 143.2945017
  23.1949987  81.4585006 143.2945017  21.9979987  82.3855006 143.2945017
  25.8779987  81.5115006 140.9485017  26.8349987  81.5115006 140.9485017
  25.6379987  82.4385006 140.9485017  31.8269987  79.1215006 147.6825017
  32.7839987  79.1215006 147.6825017  31.5869987  80.0485006 147.6825017
  24.5369987  82.7045006 138.4985017  25.4939987  82.7045006 138.4985017
  24.2969987  83.6315006 138.4985017  35.0409987  94.7745006 153.9905017
  35.9979987  94.7745006 153.9905017  34.8009987  95.7015006 153.9905017
  22.7119987  87.2355006 153.5675017  23.6689987  87.2355006 153.5675017
  22.4719987  88.1625006 153.5675017  28.7099987  82.6495006 146.3265017
  29.6669987  82.6495006 146.3265017  28.4699987  83.5765006 146.3265017
  23.7209987  78.7965006 142.7605017  24.6779987  78.7965006 142.7605017
  23.4809987  79.7235006 142.7605017  27.3499987  80.9885006 148.7395017
  28.3069987  80.9885006 148.7395017  27.1099987  81.9155006 148.7395017
  27.9349987  87.2125006 140.4265017  28.8919987  87.2125006 140.4265017
  27.6949987  88.1395006 140.4265017  35.0989987  86.3905006 149.2375017
  36.0559987  86.3905006 149.2375017  34.8589987  87.3175006 149.2375017
  31.7769987  80.0415006 138.5735017  32.7339987  80.0415006 138.5735017
  31.5369987  80.9685006 138.5735017  29.4229987  87.4535006 151.6735017
  30.3799987  87.4535006 151.6735017  29.1829987  88.3805006 151.6735017
  32.5049987  81.9095006 140.2795017  33.4619987  81.9095006 140.2795017
  32.2649987  82.8365006 140.2795017  23.0389987  86.5835006 146.2325017
  23.9959987  86.5835006 146.2325017  22.7989987  87.5105006 146.2325017
  30.0339987  88.6635006 139.4555017  30.9909987  88.6635006 139.4555017
  29.7939987  89.5905006 139.4555017  20.0319987  85.0055006 151.5015017
  20.9889987  85.0055006 151.5015017  19.7919987  85.9325006 151.5015017
  27.0449987  84.5575006 153.6945017  28.0019987  84.5575006 153.6945017
  26.8049987  85.4845006 153.6945017  31.7159987  89.8895006 151.6165017
  32.6729987  89.8895006 151.6165017  31.4759987  90.8165006 151.6165017
  37.4219987  82.0955006 140.0515017  38.3789987  82.0955006 140.0515017
  37.1819987  83.0225006 140.0515017  37.3869987  87.9375006 152.8325017
  38.3439987  87.9375006 152.8325017  37.1469987  88.8645006 152.8325017
  35.7229987  90.8985006 140.4285017  36.6799987  90.8985006 140.4285017
  35.4829987  91.8255006 140.4285017  32.8899987  85.7255006 147.5115017
  33.8469987  85.7255006 147.5115017  32.6499987  86.6525006 147.5115017
  25.4139987  90.0495006 143.6165017  26.3709987  90.0495006 143.6165017
  25.1739987  90.9765006 143.6165017  21.1839987  84.8945006 138.1525017
  22.1409987  84.8945006 138.1525017  20.9439987  85.8215006 138.1525017
  26.8369987  87.7135006 143.1425017  27.7939987  87.7135006 143.1425017
  26.5969987  88.6405006 143.1425017  27.2909987  91.8915006 149.5335017
  28.2479987  91.8915006 149.5335017  27.0509987  92.8185006 149.5335017
  25.5089987  92.7165006 142.6955017  26.4659987  92.7165006 142.6955017
  25.2689987  93.6435006 142.6955017  30.8329987  87.9215006 149.1755017
  31.7899987  87.9215006 149.1755017  30.5929987  88.8485006 149.1755017
  33.0899987  88.9485006 138.2625017  34.0469987  88.9485006 138.2625017
  32.8499987  89.8755006 138.2625017  33.6009987  92.4915006 151.6685017
  34.5579987  92.4915006 151.6685017  33.3609987  93.4185006 151.6685017
  37.6139987  93.3415006 138.5385017  38.5709987  93.3415006 138.5385017
  37.3739987  94.2685006 138.5385017  21.6829987  79.7425006 151.0505017
  22.6399987  79.7425006 151.0505017  21.4429987  80.6695006 151.0505017
  33.9309987  87.6015006 140.5045017  34.8879987  87.6015006 140.5045017
  33.6909987  88.5285006 140.5045017  21.3059987  91.5355006 149.4815017
  22.2629987  91.5355006 149.4815017  21.0659987  92.4625006 149.4815017
  27.3489987  90.0225006 136.7905017  28.3059987  90.0225006 136.7905017
  27.1089987  90.9495006 136.7905017  26.0719987  89.5805006 139.1825017
  27.0289987  89.5805006 139.1825017  25.8319987  90.5075006 139.1825017
  22.5619987  86.8345006 139.6415017  23.5189987  86.8345006 139.6415017
  22.3219987  87.7615006 139.6415017  30.4089987  79.5075006 149.9895017
  31.3659987  79.5075006 149.9895017  30.1689987  80.4345006 149.9895017
  31.1519987  79.1175006 141.0845017  32.1089987  79.1175006 141.0845017
  30.9119987  80.0445006 141.0845017  28.8509987  91.2515006 139.9515017
  29.8079987  91.2515006 139.9515017  28.6109987  92.1785006 139.9515017
  28.3839987  80.8485006 141.8975017  29.3409987  80.8485006 141.8975017
  28.1439987  81.7755006 141.8975017  28.9379987  81.8555006 151.0945017
  29.8949987  81.8555006 151.0945017  28.6979987  82.7825006 151.0945017
  29.2499987  77.9025006 142.8105017  30.2069987  77.9025006 142.8105017
  29.0099987  78.8295006 142.8105017  26.2229987  92.2835006 139.9265017
  27.1799987  92.2835006 139.9265017  25.9829987  93.2105006 139.9265017
  24.8839987  78.9915006 139.5365017  25.8409987  78.9915006 139.5365017
  24.6439987  79.9185006 139.5365017  35.1319987  79.7325006 151.9425017
  36.0889987  79.7325006 151.9425017  34.8919987  80.6595006 151.9425017
  33.7319987  83.5165006 145.9735017  34.6889987  83.5165006 145.9735017
  33.4919987  84.4435006 145.9735017  23.1759987  89.3935006 138.5995017
  24.1329987  89.3935006 138.5995017  22.9359987  90.3205006 138.5995017
  21.4979987  82.0965006 137.7145017  22.4549987  82.0965006 137.7145017
  21.2579987  83.0235006 137.7145017  34.7979987  92.7645006 147.6355017
  35.7549987  92.7645006 147.6355017  34.5579987  93.6915006 147.6355017
  22.2989987  76.8965006 146.4175017  23.2559987  76.8965006 146.4175017
  22.0589987  77.8235006 146.4175017  21.2459987  90.8085006 142.5475017
  22.2029987  90.8085006 142.5475017  21.0059987  91.7355006 142.5475017
  20.4709987  93.4645006 153.8665017  21.4279987  93.4645006 153.8665017
  20.2309987  94.3915006 153.8665017  25.1269987  92.3815006 155.4805017
  26.0839987  92.3815006 155.4805017  24.8869987  93.3085006 155.4805017
  29.4339987  91.5075006 137.3685017  30.3909987  91.5075006 137.3685017
  29.1939987  92.4345006 137.3685017  31.6609987  90.7625006 154.2165017
  32.6179987  90.7625006 154.2165017  31.4209987  91.6895006 154.2165017
  33.6259987  91.6015006 137.2615017  34.5829987  91.6015006 137.2615017
  33.3859987  92.5285006 137.2615017  20.3909987  87.2475006 154.8525017
  21.3479987  87.2475006 154.8525017  20.1509987  88.1745006 154.8525017
  24.8809987  87.6125006 137.0485017  25.8379987  87.6125006 137.0485017
  24.6409987  88.5395006 137.0485017  27.0869987  87.2265006 154.2495017
  28.0439987  87.2265006 154.2495017  26.8469987  88.1535006 154.2495017
  30.0659987  88.6515006 136.6555017  31.0229987  88.6515006 136.6555017
  29.8259987  89.5785006 136.6555017  32.7909987  87.0965006 151.6355017
  33.7479987  87.0965006 151.6355017  32.5509987  88.0235006 151.6355017
  21.2819987  84.4655006 154.2375017  22.2389987  84.4655006 154.2375017
  21.0419987  85.3925006 154.2375017  25.9209987  85.5895006 139.2725017
  26.8779987  85.5895006 139.2725017  25.6809987  86.5165006 139.2725017
  25.1939987  83.4225006 151.6035017  26.1509987  83.4225006 151.6035017
  24.9539987  84.3495006 151.6035017  27.0369987  83.5015006 137.7985017
  27.9939987  83.5015006 137.7985017  26.7969987  84.4285006 137.7985017
  30.2499987  85.9665006 154.9175017  31.2069987  85.9665006 154.9175017
  30.0099987  86.8935006 154.9175017  36.4249987  86.3545006 137.2885017
  37.3819987  86.3545006 137.2885017  36.1849987  87.2815006 137.2885017
  25.5869987  80.7965006 152.6725017  26.5439987  80.7965006 152.6725017
  25.3469987  81.7235006 152.6725017  25.9869987  79.1735006 150.2045017
  26.9439987  79.1735006 150.2045017  25.7469987  80.1005006 150.2045017
  27.5369987  84.6425006 150.4495017  28.4939987  84.6425006 150.4495017
  27.2969987  85.5695006 150.4495017  31.9359987  82.4215006 155.4255017
  32.8929987  82.4215006 155.4255017  31.6959987  83.3485006 155.4255017
  33.2629987  85.2015006 153.5625017  34.2199987  85.2015006 153.5625017
  33.0229987  86.1285006 153.5625017  24.0459987  82.0385006 154.5855017
  25.0029987  82.0385006 154.5855017  23.8059987  82.9655006 154.5855017
  26.7809987  76.6125006 150.6105017  27.7379987  76.6125006 150.6105017
  26.5409987  77.5395006 150.6105017  28.0529987  80.9425006 154.2105017
  29.0099987  80.9425006 154.2105017  27.8129987  81.8695006 154.2105017
  30.7699987  80.0775006 153.2855017  31.7269987  80.0775006 153.2855017
  30.5299987  81.0045006 153.2855017  32.3659987  78.7055006 155.2275017
  33.3229987  78.7055006 155.2275017  32.1259987  79.6325006 155.2275017
  22.1419987  79.9645006 154.3185017  23.0989987  79.9645006 154.3185017
  21.9019987  80.8915006 154.3185017  26.9919987  75.9805006 153.3025017
  27.9489987  75.9805006 153.3025017  26.7519987  76.9075006 153.3025017
  27.3589987  77.6145006 155.3915017  28.3159987  77.6145006 155.3915017
  27.1189987  78.5415006 155.3915017  26.8419987  94.5325006 138.5745017
  27.7989987  94.5325006 138.5745017  26.6019987  95.4595006 138.5745017
  20.3949987  89.0555006 138.1265017  21.3519987  89.0555006 138.1265017
  20.1549987  89.9825006 138.1265017  19.1559987  94.5005006 143.0325017
  20.1129987  94.5005006 143.0325017  18.9159987  95.4275006 143.0325017
  19.9839987  92.6175006 144.8835017  20.9409987  92.6175006 144.8835017
  19.7439987  93.5445006 144.8835017  37.5179987  93.4155006 147.8355017
  38.4749987  93.4155006 147.8355017  37.2779987  94.3425006 147.8355017
  37.0939987  93.0125006 150.7785017  38.0509987  93.0125006 150.7785017
  36.8539987  93.9395006 150.7785017  35.5379987  88.7415006 155.4345017
  36.4949987  88.7415006 155.4345017  35.2979987  89.6685006 155.4345017
  36.8519987  87.0605006 140.8935017  37.8089987  87.0605006 140.8935017
  36.6119987  87.9875006 140.8935017  37.2179987  85.1335006 142.7595017
  38.1749987  85.1335006 142.7595017  36.9779987  86.0605006 142.7595017
  36.9749987  87.8415006 147.7395017  37.9319987  87.8415006 147.7395017
  36.7349987  88.7685006 147.7395017  35.5219987  90.7385006 150.0215017
  36.4789987  90.7385006 150.0215017  35.2819987  91.6655006 150.0215017
  37.5309987  84.9445006 139.1835017  38.4879987  84.9445006 139.1835017
  37.2909987  85.8715006 139.1835017  35.9869987  82.1205006 137.9025017
  36.9439987  82.1205006 137.9025017  35.7469987  83.0475006 137.9025017
  35.0319987  83.6125006 143.3215017  35.9889987  83.6125006 143.3215017
  34.7919987  84.5395006 143.3215017  20.0379987  85.6945006 147.3765017
  20.9949987  85.6945006 147.3765017  19.7979987  86.6215006 147.3765017
  35.8849987  85.5795006 153.0005017  36.8419987  85.5795006 153.0005017
  35.6449987  86.5065006 153.0005017  37.3929987  83.4725006 153.6655017
  38.3499987  83.4725006 153.6655017  37.1529987  84.3995006 153.6655017
  34.9669987  79.7345006 137.0165017  35.9239987  79.7345006 137.0165017
  34.7269987  80.6615006 137.0165017  34.6999987  81.2015006 141.7895017
  35.6569987  81.2015006 141.7895017  34.4599987  82.1285006 141.7895017
  35.3369987  81.7415006 147.2255017  36.2939987  81.7415006 147.2255017
  35.0969987  82.6685006 147.2255017  35.4059987  82.4665006 150.0145017
  36.3629987  82.4665006 150.0145017  35.1659987  83.3935006 150.0145017
  19.6499987  80.9935006 153.5225017  20.6069987  80.9935006 153.5225017
  19.4099987  81.9205006 153.5225017  37.6449987  76.5045006 155.3595017
  38.6019987  76.5045006 155.3595017  37.4049987  77.4315006 155.3595017
  35.3569987  78.4755006 141.8495017  36.3139987  78.4755006 141.8495017
  35.1169987  79.4025006 141.8495017  20.8549987  79.2825006 146.3825017
  21.8119987  79.2825006 146.3825017  20.6149987  80.2095006 146.3825017
  19.1439987  82.2765006 147.4335017  20.1009987  82.2765006 147.4335017
  18.9039987  83.2035006 147.4335017  37.1999987  78.6175006 153.7105017
  38.1569987  78.6175006 153.7105017  36.9599987  79.5445006 153.7105017
  37.2789987  78.4355006 138.5995017  38.2359987  78.4355006 138.5995017
  37.0389987  79.3625006 138.5995017  19.5079987  78.5435006 141.5055017
  20.4649987  78.5435006 141.5055017  19.2679987  79.4705006 141.5055017
  34.2429987  93.4955006 143.4485017  35.1999987  93.4955006 143.4485017
  34.0029987  94.4225006 143.4485017  19.4619987  77.2215006 149.8095017
  20.4189987  77.2215006 149.8095017  19.2219987  78.1485006 149.8095017
  21.6819987  90.4075006 153.9665017  22.6389987  90.4075006 153.9665017
  21.4419987  91.3345006 153.9665017  24.5929987  91.4025006 150.2415017
  25.5499987  91.4025006 150.2415017  24.3529987  92.3295006 150.2415017
  28.9129987  92.8275006 153.1565017  29.8699987  92.8275006 153.1565017
  28.6729987  93.7545006 153.1565017  31.2109987  94.0975006 152.4445017
  32.1679987  94.0975006 152.4445017  30.9709987  95.0245006 152.4445017
  36.2129987  76.7115006 151.5485017  37.1699987  76.7115006 151.5485017
  35.9729987  77.6385006 151.5485017  22.0189987  94.6495006 150.2495017
  22.9759987  94.6495006 150.2495017  21.7789987  95.5765006 150.2495017
  24.4889987  94.2305006 149.3125017  25.4459987  94.2305006 149.3125017
  24.2489987  95.1575006 149.3125017  29.1909987  94.1395006 148.4805017
  30.1479987  94.1395006 148.4805017  28.9509987  95.0665006 148.4805017
  31.4979987  92.9705006 149.4785017  32.4549987  92.9705006 149.4785017
  31.2579987  93.8975006 149.4785017  34.0789987  94.5375006 149.7365017
  35.0359987  94.5375006 149.7365017  33.8389987  95.4645006 149.7365017
  21.4539987  93.2975006 147.1795017  22.4109987  93.2975006 147.1795017
  21.2139987  94.2245006 147.1795017  23.5489987  92.0095006 145.8325017
  24.5059987  92.0095006 145.8325017  23.3089987  92.9365006 145.8325017
  26.1369987  92.4925006 146.7035017  27.0939987  92.4925006 146.7035017
  25.8969987  93.4195006 146.7035017  29.6089987  78.1455006 145.8445017
  30.5659987  78.1455006 145.8445017  29.3689987  79.0725006 145.8445017
  34.7439987  76.2015006 145.9325017  35.7009987  76.2015006 145.9325017
  34.5039987  77.1285006 145.9325017  36.4289987  77.4115006 144.2365017
  37.3859987  77.4115006 144.2365017  36.1889987  78.3385006 144.2365017
  21.9699987  76.7735006 143.6855017  22.9269987  76.7735006 143.6855017
  21.7299987  77.7005006 143.6855017  20.7339987  76.5355006 139.3905017
  21.6909987  76.5355006 139.3905017  20.4939987  77.4625006 139.3905017
  26.4709987  76.6925006 143.4765017  27.4279987  76.6925006 143.4765017
  26.2309987  77.6195006 143.4765017  32.1379987  76.7165006 145.1155017
  33.0949987  76.7165006 145.1155017  31.8979987  77.6435006 145.1155017
  33.4419987  76.7475006 140.7485017  34.3989987  76.7475006 140.7485017
  33.2019987  77.6745006 140.7485017  20.7039987  92.4925006 140.3715017
  21.6609987  92.4925006 140.3715017  20.4639987  93.4195006 140.3715017
  22.5849987  78.4775006 137.9555017  23.5419987  78.4775006 137.9555017
  22.3449987  79.4045006 137.9555017  27.6269987  78.7325006 140.3435017
  28.5839987  78.7325006 140.3435017  27.3869987  79.6595006 140.3435017
  29.5149987  93.8335006 138.7485017  30.4719987  93.8335006 138.7485017
  29.2749987  94.7605006 138.7485017  36.2529987  93.2985006 141.4825017
  37.2099987  93.2985006 141.4825017  36.0129987  94.2255006 141.4825017
  21.8679987  77.3055006 153.1495017  22.8249987  77.3055006 153.1495017
  21.6279987  78.2325006 153.1495017  23.8719987  76.6795006 154.7625017
  24.8289987  76.6795006 154.7625017  23.6319987  77.6065006 154.7625017
  22.6159987  93.5225006 137.4755017  23.5729987  93.5225006 137.4755017
  22.3759987  94.4495006 137.4755017  32.2749987  75.9815006 154.9235017
  33.2319987  75.9815006 154.9235017  32.0349987  76.9085006 154.9235017
  35.4809987  92.0185006 153.5735017  36.4379987  92.0185006 153.5735017
  35.2409987  92.9455006 153.5735017  49.9119987  85.9135006 143.5935017
  50.8689987  85.9135006 143.5935017  49.6719987  86.8405006 143.5935017
  48.7629987  85.1695006 147.0625017  49.7199987  85.1695006 147.0625017
  48.5229987  86.0965006 147.0625017  41.1409987  84.8255006 148.6085017
  42.0979987  84.8255006 148.6085017  40.9009987  85.7525006 148.6085017
  52.4939987  88.1165006 145.3325017  53.4509987  88.1165006 145.3325017
  52.2539987  89.0435006 145.3325017  42.0679987  89.2765006 147.1315017
  43.0249987  89.2765006 147.1315017  41.8279987  90.2035006 147.1315017
  38.7139987  82.8565006 142.5925017  39.6709987  82.8565006 142.5925017
  38.4739987  83.7835006 142.5925017  39.4069987  85.0705006 144.7235017
  40.3639987  85.0705006 144.7235017  39.1669987  85.9975006 144.7235017
  49.5949987  93.2615006 145.5685017  50.5519987  93.2615006 145.5685017
  49.3549987  94.1885006 145.5685017  47.1689987  87.5785006 147.5005017
  48.1259987  87.5785006 147.5005017  46.9289987  88.5055006 147.5005017
  55.7789987  79.2145006 148.2665017  56.7359987  79.2145006 148.2665017
  55.5389987  80.1415006 148.2665017  50.2639987  82.0115006 147.8255017
  51.2209987  82.0115006 147.8255017  50.0239987  82.9385006 147.8255017
  43.4979987  80.1155006 145.0575017  44.4549987  80.1155006 145.0575017
  43.2579987  81.0425006 145.0575017  51.1669987  80.2145006 143.4445017
  52.1239987  80.2145006 143.4445017  50.9269987  81.1415006 143.4445017
  40.0709987  82.5265006 145.7975017  41.0279987  82.5265006 145.7975017
  39.8309987  83.4535006 145.7975017  45.2299987  84.0765006 145.0855017
  46.1869987  84.0765006 145.0855017  44.9899987  85.0035006 145.0855017
  56.2139987  80.6505006 150.5215017  57.1709987  80.6505006 150.5215017
  55.9739987  81.5775006 150.5215017  42.3499987  79.0305006 149.0975017
  43.3069987  79.0305006 149.0975017  42.1099987  79.9575006 149.0975017
  49.6449987  88.5125006 142.6355017  50.6019987  88.5125006 142.6355017
  49.4049987  89.4395006 142.6355017  44.8659987  86.6665006 149.3545017
  45.8229987  86.6665006 149.3545017  44.6259987  87.5935006 149.3545017
  52.9739987  79.5445006 145.4195017  53.9309987  79.5445006 145.4195017
  52.7339987  80.4715006 145.4195017  41.9069987  80.8755006 147.1125017
  42.8639987  80.8755006 147.1125017  41.6669987  81.8025006 147.1125017
  43.3019987  88.6565006 150.1645017  44.2589987  88.6565006 150.1645017
  43.0619987  89.5835006 150.1645017  39.3909987  88.2855006 140.9905017
  40.3479987  88.2855006 140.9905017  39.1509987  89.2125006 140.9905017
  53.0139987  89.9405006 147.7375017  53.9709987  89.9405006 147.7375017
  52.7739987  90.8675006 147.7375017  53.3219987  78.2365006 149.0985017
  54.2789987  78.2365006 149.0985017  53.0819987  79.1635006 149.0985017
  46.2989987  76.3715006 146.5625017  47.2559987  76.3715006 146.5625017
  46.0589987  77.2985006 146.5625017  51.2589987  91.7315006 144.3055017
  52.2159987  91.7315006 144.3055017  51.0189987  92.6585006 144.3055017
  52.4569987  89.6515006 142.8275017  53.4139987  89.6515006 142.8275017
  52.2169987  90.5785006 142.8275017  54.0519987  88.3705006 151.3545017
  55.0089987  88.3705006 151.3545017  53.8119987  89.2975006 151.3545017
  48.5939987  85.1535006 141.0815017  49.5509987  85.1535006 141.0815017
  48.3539987  86.0805006 141.0815017  48.6469987  83.7085006 138.3335017
  49.6039987  83.7085006 138.3335017  48.4069987  84.6355006 138.3335017
  56.0269987  84.5135006 149.3315017  56.9839987  84.5135006 149.3315017
  55.7869987  85.4405006 149.3315017  52.0139987  85.3705006 142.0185017
  52.9709987  85.3705006 142.0185017  51.7739987  86.2975006 142.0185017
  51.9799987  83.5545006 151.0805017  52.9369987  83.5545006 151.0805017
  51.7399987  84.4815006 151.0805017  43.6409987  86.0205006 143.9065017
  44.5979987  86.0205006 143.9065017  43.4009987  86.9475006 143.9065017
  44.9699987  89.4175006 146.5905017  45.9269987  89.4175006 146.5905017
  44.7299987  90.3445006 146.5905017  44.0009987  84.7385006 147.5635017
  44.9579987  84.7385006 147.5635017  43.7609987  85.6655006 147.5635017
  50.3659987  90.3285006 148.2685017  51.3229987  90.3285006 148.2685017
  50.1259987  91.2555006 148.2685017  44.9179987  89.1845006 152.2615017
  45.8749987  89.1845006 152.2615017  44.6779987  90.1115006 152.2615017
  50.8789987  84.5315006 139.6725017  51.8359987  84.5315006 139.6725017
  50.6389987  85.4585006 139.6725017  41.8529987  85.3525006 151.4385017
  42.8099987  85.3525006 151.4385017  41.6129987  86.2795006 151.4385017
  48.6049987  91.2695006 143.1495017  49.5619987  91.2695006 143.1495017
  48.3649987  92.1965006 143.1495017  43.1589987  91.2345006 153.0155017
  44.1159987  91.2345006 153.0155017  42.9189987  92.1615006 153.0155017
  54.6199987  76.2735006 139.4905017  55.5769987  76.2735006 139.4905017
  54.3799987  77.2005006 139.4905017  42.6119987  85.0525006 141.5235017
  43.5689987  85.0525006 141.5235017  42.3719987  85.9795006 141.5235017
  55.7459987  90.6115006 137.9555017  56.7029987  90.6115006 137.9555017
  55.5059987  91.5385006 137.9555017  38.7069987  87.4645006 150.3895017
  39.6639987  87.4645006 150.3895017  38.4669987  88.3915006 150.3895017
  38.4649987  90.2025006 147.1945017  39.4219987  90.2025006 147.1945017
  38.2249987  91.1295006 147.1945017  56.6969987  90.8855006 152.8745017
  57.6539987  90.8855006 152.8745017  56.4569987  91.8125006 152.8745017
  47.6579987  90.4475006 151.7445017  48.6149987  90.4475006 151.7445017
  47.4179987  91.3745006 151.7445017  48.0709987  94.1975006 141.5255017
  49.0279987  94.1975006 141.5255017  47.8309987  95.1245006 141.5255017
  41.7329987  93.0615006 143.3605017  42.6899987  93.0615006 143.3605017
  41.4929987  93.9885006 143.3605017  51.0919987  93.4185006 138.5235017
  52.0489987  93.4185006 138.5235017  50.8519987  94.3455006 138.5235017
  50.8369987  93.3375006 141.3105017  51.7939987  93.3375006 141.3105017
  50.5969987  94.2645006 141.3105017  53.8539987  82.3915006 153.3395017
  54.8109987  82.3915006 153.3395017  53.6139987  83.3185006 153.3395017
  40.9809987  88.7825006 151.3555017  41.9379987  88.7825006 151.3555017
  40.7409987  89.7095006 151.3555017  43.6659987  77.2765006 147.2935017
  44.6229987  77.2765006 147.2935017  43.4259987  78.2035006 147.2935017
  48.2889987  76.9485006 150.6755017  49.2459987  76.9485006 150.6755017
  48.0489987  77.8755006 150.6755017  51.5959987  80.7495006 151.5755017
  52.5529987  80.7495006 151.5755017  51.3559987  81.6765006 151.5755017
  52.4949987  85.6465006 137.8345017  53.4519987  85.6465006 137.8345017
  52.2549987  86.5735006 137.8345017  47.9499987  79.4885006 138.0105017
  48.9069987  79.4885006 138.0105017  47.7099987  80.4155006 138.0105017
  43.7619987  82.2075006 148.5175017  44.7189987  82.2075006 148.5175017
  43.5219987  83.1345006 148.5175017  43.7239987  82.3465006 143.4265017
  44.6809987  82.3465006 143.4265017  43.4839987  83.2735006 143.4265017
  49.2349987  82.8355006 142.1675017  50.1919987  82.8355006 142.1675017
  48.9949987  83.7625006 142.1675017  48.3119987  83.0485006 153.6405017
  49.2689987  83.0485006 153.6405017  48.0719987  83.9755006 153.6405017
  50.2229987  82.3065006 145.0375017  51.1799987  82.3065006 145.0375017
  49.9829987  83.2335006 145.0375017  41.3979987  82.4985006 150.2605017
  42.3549987  82.4985006 150.2605017  41.1579987  83.4255006 150.2605017
  44.8209987  79.8425006 137.2635017  45.7779987  79.8425006 137.2635017
  44.5809987  80.7695006 137.2635017  38.0389987  79.6055006 144.2015017
  38.9959987  79.6055006 144.2015017  37.7989987  80.5325006 144.2015017
  39.2839987  80.3045006 139.5195017  40.2409987  80.3045006 139.5195017
  39.0439987  81.2315006 139.5195017  49.5029987  83.9275006 149.6205017
  50.4599987  83.9275006 149.6205017  49.2629987  84.8545006 149.6205017
  46.2599987  79.9045006 144.3915017  47.2169987  79.9045006 144.3915017
  46.0199987  80.8315006 144.3915017  41.0949987  81.4585006 143.2945017
  42.0519987  81.4585006 143.2945017  40.8549987  82.3855006 143.2945017
  44.7329987  81.5125006 140.9475017  45.6899987  81.5125006 140.9475017
  44.4929987  82.4395006 140.9475017  50.6799987  79.1275006 147.6765017
  51.6369987  79.1275006 147.6765017  50.4399987  80.0545006 147.6765017
  43.3929987  82.7045006 138.4985017  44.3499987  82.7045006 138.4985017
  43.1529987  83.6315006 138.4985017  53.9019987  94.7725006 154.0175017
  54.8589987  94.7725006 154.0175017  53.6619987  95.6995006 154.0175017
  41.5689987  87.2355006 153.5675017  42.5259987  87.2355006 153.5675017
  41.3289987  88.1625006 153.5675017  47.5149987  82.5985006 146.2985017
  48.4719987  82.5985006 146.2985017  47.2749987  83.5255006 146.2985017
  42.5959987  78.7975006 142.7815017  43.5529987  78.7975006 142.7815017
  42.3559987  79.7245006 142.7815017  46.1339987  81.0115006 149.0145017
  47.0909987  81.0115006 149.0145017  45.8939987  81.9385006 149.0145017
  46.7909987  87.2125006 140.4265017  47.7479987  87.2125006 140.4265017
  46.5509987  88.1395006 140.4265017  53.7939987  86.1665006 148.4655017
  54.7509987  86.1665006 148.4655017  53.5539987  87.0935006 148.4655017
  50.6499987  80.0425006 138.5645017  51.6069987  80.0425006 138.5645017
  50.4099987  80.9695006 138.5645017  48.2799987  87.4535006 151.6745017
  49.2369987  87.4535006 151.6745017  48.0399987  88.3805006 151.6745017
  51.3589987  81.9125006 140.2805017  52.3159987  81.9125006 140.2805017
  51.1189987  82.8395006 140.2805017  41.8949987  86.5825006 146.2325017
  42.8519987  86.5825006 146.2325017  41.6549987  87.5095006 146.2325017
  48.8899987  88.6645006 139.4555017  49.8469987  88.6645006 139.4555017
  48.6499987  89.5915006 139.4555017  38.8879987  85.0055006 151.5015017
  39.8449987  85.0055006 151.5015017  38.6479987  85.9325006 151.5015017
  45.9029987  84.5675006 153.7045017  46.8599987  84.5675006 153.7045017
  45.6629987  85.4945006 153.7045017  50.5869987  89.8655006 151.6175017
  51.5439987  89.8655006 151.6175017  50.3469987  90.7925006 151.6175017
  56.2789987  82.0905006 140.0475017  57.2359987  82.0905006 140.0475017
  56.0389987  83.0175006 140.0475017  56.2179987  87.8815006 152.8095017
  57.1749987  87.8815006 152.8095017  55.9779987  88.8085006 152.8095017
  54.5789987  90.8975006 140.4295017  55.5359987  90.8975006 140.4295017
  54.3389987  91.8245006 140.4295017  51.5659987  85.7255006 147.3975017
  52.5229987  85.7255006 147.3975017  51.3259987  86.6525006 147.3975017
  44.2699987  90.0495006 143.6165017  45.2269987  90.0495006 143.6165017
  44.0299987  90.9765006 143.6165017  40.0399987  84.8925006 138.1525017
  40.9969987  84.8925006 138.1525017  39.7999987  85.8195006 138.1525017
  45.6929987  87.7135006 143.1425017  46.6499987  87.7135006 143.1425017
  45.4529987  88.6405006 143.1425017  46.1469987  91.8915006 149.5325017
  47.1039987  91.8915006 149.5325017  45.9069987  92.8185006 149.5325017
  44.3649987  92.7165006 142.6955017  45.3219987  92.7165006 142.6955017
  44.1249987  93.6435006 142.6955017  49.7199987  87.9355006 149.1945017
  50.6769987  87.9355006 149.1945017  49.4799987  88.8625006 149.1945017
  51.9459987  88.9485006 138.2625017  52.9029987  88.9485006 138.2625017
  51.7059987  89.8755006 138.2625017  52.4499987  92.4865006 151.6685017
  53.4069987  92.4865006 151.6685017  52.2099987  93.4135006 151.6685017
  56.4699987  93.3415006 138.5385017  57.4269987  93.3415006 138.5385017
  56.2299987  94.2685006 138.5385017  40.5419987  79.7385006 151.0485017
  41.4989987  79.7385006 151.0485017  40.3019987  80.6655006 151.0485017
  52.7869987  87.6015006 140.5045017  53.7439987  87.6015006 140.5045017
  52.5469987  88.5285006 140.5045017  40.1619987  91.5355006 149.4805017
  41.1189987  91.5355006 149.4805017  39.9219987  92.4625006 149.4805017
  46.2049987  90.0225006 136.7905017  47.1619987  90.0225006 136.7905017
  45.9649987  90.9495006 136.7905017  44.9279987  89.5805006 139.1825017
  45.8849987  89.5805006 139.1825017  44.6879987  90.5075006 139.1825017
  41.4189987  86.8345006 139.6405017  42.3759987  86.8345006 139.6405017
  41.1789987  87.7615006 139.6405017  49.2559987  79.5055006 149.9665017
  50.2129987  79.5055006 149.9665017  49.0159987  80.4325006 149.9665017
  50.0069987  79.1185006 141.0845017  50.9639987  79.1185006 141.0845017
  49.7669987  80.0455006 141.0845017  47.7069987  91.2515006 139.9515017
  48.6639987  91.2515006 139.9515017  47.4669987  92.1785006 139.9515017
  47.2439987  80.8465006 141.8965017  48.2009987  80.8465006 141.8965017
  47.0039987  81.7735006 141.8965017  47.8049987  81.8585006 151.0805017
  48.7619987  81.8585006 151.0805017  47.5649987  82.7855006 151.0805017
  48.1079987  77.9055006 142.8215017  49.0649987  77.9055006 142.8215017
  47.8679987  78.8325006 142.8215017  45.0789987  92.2835006 139.9265017
  46.0359987  92.2835006 139.9265017  44.8389987  93.2105006 139.9265017
  43.7399987  78.9925006 139.5375017  44.6969987  78.9925006 139.5375017
  43.4999987  79.9195006 139.5375017  53.9869987  79.7285006 151.9415017
  54.9439987  79.7285006 151.9415017  53.7469987  80.6555006 151.9415017
  52.5899987  83.5175006 145.9865017  53.5469987  83.5175006 145.9865017
  52.3499987  84.4445006 145.9865017  42.0319987  89.3935006 138.5995017
  42.9889987  89.3935006 138.5995017  41.7919987  90.3205006 138.5995017
  40.3479987  82.0795006 137.7005017  41.3049987  82.0795006 137.7005017
  40.1079987  83.0065006 137.7005017  53.6549987  92.7615006 147.6355017
  54.6119987  92.7615006 147.6355017  53.4149987  93.6885006 147.6355017
  41.1569987  76.8955006 146.4185017  42.1139987  76.8955006 146.4185017
  40.9169987  77.8225006 146.4185017  40.1019987  90.8085006 142.5475017
  41.0589987  90.8085006 142.5475017  39.8619987  91.7355006 142.5475017
  39.3479987  93.4545006 153.8375017  40.3049987  93.4545006 153.8375017
  39.1079987  94.3815006 153.8375017  43.9939987  92.3755006 155.4795017
  44.9509987  92.3755006 155.4795017  43.7539987  93.3025006 155.4795017
  48.2899987  91.5075006 137.3685017  49.2469987  91.5075006 137.3685017
  48.0499987  92.4345006 137.3685017  50.5219987  90.7625006 154.2155017
  51.4789987  90.7625006 154.2155017  50.2819987  91.6895006 154.2155017
  52.4819987  91.6015006 137.2615017  53.4389987  91.6015006 137.2615017
  52.2419987  92.5285006 137.2615017  39.2469987  87.2475006 154.8505017
  40.2039987  87.2475006 154.8505017  39.0069987  88.1745006 154.8505017
  43.7369987  87.6125006 137.0485017  44.6939987  87.6125006 137.0485017
  43.4969987  88.5395006 137.0485017  45.9439987  87.2275006 154.2495017
  46.9009987  87.2275006 154.2495017  45.7039987  88.1545006 154.2495017
  48.9219987  88.6515006 136.6555017  49.8789987  88.6515006 136.6555017
  48.6819987  89.5785006 136.6555017  51.6729987  87.0915006 151.5975017
  52.6299987  87.0915006 151.5975017  51.4329987  88.0185006 151.5975017
  40.1379987  84.4655006 154.2375017  41.0949987  84.4655006 154.2375017
  39.8979987  85.3925006 154.2375017  44.7779987  85.5905006 139.2735017
  45.7349987  85.5905006 139.2735017  44.5379987  86.5175006 139.2735017
  44.0479987  83.4245006 151.6075017  45.0049987  83.4245006 151.6075017
  43.8079987  84.3515006 151.6075017  45.8929987  83.5005006 137.7985017
  46.8499987  83.5005006 137.7985017  45.6529987  84.4275006 137.7985017
  49.1069987  85.9665006 154.9185017  50.0639987  85.9665006 154.9185017
  48.8669987  86.8935006 154.9185017  55.2809987  86.3545006 137.2885017
  56.2379987  86.3545006 137.2885017  55.0409987  87.2815006 137.2885017
  44.4439987  80.7995006 152.6795017  45.4009987  80.7995006 152.6795017
  44.2039987  81.7265006 152.6795017  44.8359987  79.1225006 150.1915017
  45.7929987  79.1225006 150.1915017  44.5959987  80.0495006 150.1915017
  46.3839987  84.6225006 150.4315017  47.3409987  84.6225006 150.4315017
  46.1439987  85.5495006 150.4315017  50.7919987  82.4225006 155.4265017
  51.7489987  82.4225006 155.4265017  50.5519987  83.3495006 155.4265017
  52.1279987  85.2035006 153.5495017  53.0849987  85.2035006 153.5495017
  51.8879987  86.1305006 153.5495017  42.9019987  82.0395006 154.5855017
  43.8589987  82.0395006 154.5855017  42.6619987  82.9665006 154.5855017
  45.6399987  76.6125006 150.6015017  46.5969987  76.6125006 150.6015017
  45.3999987  77.5395006 150.6015017  46.9089987  80.9435006 154.2105017
  47.8659987  80.9435006 154.2105017  46.6689987  81.8705006 154.2105017
  49.6259987  80.0765006 153.2865017  50.5829987  80.0765006 153.2865017
  49.3859987  81.0035006 153.2865017  51.2219987  78.7075006 155.2265017
  52.1789987  78.7075006 155.2265017  50.9819987  79.6345006 155.2265017
  40.9959987  79.9635006 154.3205017  41.9529987  79.9635006 154.3205017
  40.7559987  80.8905006 154.3205017  45.8479987  75.9825006 153.2985017
  46.8049987  75.9825006 153.2985017  45.6079987  76.9095006 153.2985017
  46.2149987  77.6145006 155.3915017  47.1719987  77.6145006 155.3915017
  45.9749987  78.5415006 155.3915017  45.6979987  94.5325006 138.5745017
  46.6549987  94.5325006 138.5745017  45.4579987  95.4595006 138.5745017
  39.2509987  89.0555006 138.1265017  40.2079987  89.0555006 138.1265017
  39.0109987  89.9825006 138.1265017  38.0119987  94.5005006 143.0325017
  38.9689987  94.5005006 143.0325017  37.7719987  95.4275006 143.0325017
  38.8399987  92.6175006 144.8835017  39.7969987  92.6175006 144.8835017
  38.5999987  93.5445006 144.8835017  56.3729987  93.4085006 147.8245017
  57.3299987  93.4085006 147.8245017  56.1329987  94.3355006 147.8245017
  55.9299987  93.0005006 150.7545017  56.8869987  93.0005006 150.7545017
  55.6899987  93.9275006 150.7545017  54.3969987  88.7405006 155.4165017
  55.3539987  88.7405006 155.4165017  54.1569987  89.6675006 155.4165017
  55.7079987  87.0605006 140.8935017  56.6649987  87.0605006 140.8935017
  55.4679987  87.9875006 140.8935017  56.0709987  85.1325006 142.7635017
  57.0279987  85.1325006 142.7635017  55.8309987  86.0595006 142.7635017
  55.8559987  87.8335006 147.8095017  56.8129987  87.8335006 147.8095017
  55.6159987  88.7605006 147.8095017  54.3749987  90.7065006 150.0305017
  55.3319987  90.7065006 150.0305017  54.1349987  91.6335006 150.0305017
  56.3869987  84.9445006 139.1835017  57.3439987  84.9445006 139.1835017
  56.1469987  85.8715006 139.1835017  54.8339987  82.1215006 137.9055017
  55.7909987  82.1215006 137.9055017  54.5939987  83.0485006 137.9055017
  53.8819987  83.6065006 143.3115017  54.8389987  83.6065006 143.3115017
  53.6419987  84.5335006 143.3115017  38.8949987  85.6945006 147.3765017
  39.8519987  85.6945006 147.3765017  38.6549987  86.6215006 147.3765017
  54.7519987  85.5955006 152.9475017  55.7089987  85.5955006 152.9475017
  54.5119987  86.5225006 152.9475017  56.2389987  83.4905006 153.6095017
  57.1959987  83.4905006 153.6095017  55.9989987  84.4175006 153.6095017
  53.9169987  79.6865006 136.9705017  54.8739987  79.6865006 136.9705017
  53.6769987  80.6135006 136.9705017  53.5559987  81.2005006 141.7885017
  54.5129987  81.2005006 141.7885017  53.3159987  82.1275006 141.7885017
  54.1939987  81.7485006 147.2305017  55.1509987  81.7485006 147.2305017
  53.9539987  82.6755006 147.2305017  54.2629987  82.4765006 150.0365017
  55.2199987  82.4765006 150.0365017  54.0229987  83.4035006 150.0365017
  38.5039987  80.9935006 153.5225017  39.4609987  80.9935006 153.5225017
  38.2639987  81.9205006 153.5225017  56.5249987  76.5065006 155.3625017
  57.4819987  76.5065006 155.3625017  56.2849987  77.4335006 155.3625017
  54.2219987  78.4735006 141.8375017  55.1789987  78.4735006 141.8375017
  53.9819987  79.4005006 141.8375017  39.7109987  79.2835006 146.3825017
  40.6679987  79.2835006 146.3825017  39.4709987  80.2105006 146.3825017
  38.0009987  82.2765006 147.4335017  38.9579987  82.2765006 147.4335017
  37.7609987  83.2035006 147.4335017  56.0549987  78.6145006 153.7135017
  57.0119987  78.6145006 153.7135017  55.8149987  79.5415006 153.7135017
  56.1159987  78.4465006 138.5885017  57.0729987  78.4465006 138.5885017
  55.8759987  79.3735006 138.5885017  38.3629987  78.5415006 141.5015017
  39.3199987  78.5415006 141.5015017  38.1229987  79.4685006 141.5015017
  53.0989987  93.4955006 143.4485017  54.0559987  93.4955006 143.4485017
  52.8589987  94.4225006 143.4485017  38.3179987  77.2215006 149.8095017
  39.2749987  77.2215006 149.8095017  38.0779987  78.1485006 149.8095017
  40.5389987  90.4035006 153.9675017  41.4959987  90.4035006 153.9675017
  40.2989987  91.3305006 153.9675017  43.4489987  91.4025006 150.2415017
  44.4059987  91.4025006 150.2415017  43.2089987  92.3295006 150.2415017
  47.7679987  92.8265006 153.1565017  48.7249987  92.8265006 153.1565017
  47.5279987  93.7535006 153.1565017  50.0659987  94.0975006 152.4465017
  51.0229987  94.0975006 152.4465017  49.8259987  95.0245006 152.4465017
  55.0679987  76.7105006 151.5495017  56.0249987  76.7105006 151.5495017
  54.8279987  77.6375006 151.5495017  40.8749987  94.6465006 150.2485017
  41.8319987  94.6465006 150.2485017  40.6349987  95.5735006 150.2485017
  43.3449987  94.2305006 149.3125017  44.3019987  94.2305006 149.3125017
  43.1049987  95.1575006 149.3125017  48.0469987  94.1395006 148.4805017
  49.0039987  94.1395006 148.4805017  47.8069987  95.0665006 148.4805017
  50.3539987  92.9685006 149.4785017  51.3109987  92.9685006 149.4785017
  50.1139987  93.8955006 149.4785017  52.8989987  94.5345006 149.7205017
  53.8559987  94.5345006 149.7205017  52.6589987  95.4615006 149.7205017
  40.3099987  93.2975006 147.1795017  41.2669987  93.2975006 147.1795017
  40.0699987  94.2245006 147.1795017  42.4049987  92.0095006 145.8325017
  43.3619987  92.0095006 145.8325017  42.1649987  92.9365006 145.8325017
  44.9919987  92.4925006 146.7025017  45.9489987  92.4925006 146.7025017
  44.7519987  93.4195006 146.7025017  48.4199987  78.1655006 145.8475017
  49.3769987  78.1655006 145.8475017  48.1799987  79.0925006 145.8475017
  53.5979987  76.2015006 145.9315017  54.5549987  76.2015006 145.9315017
  53.3579987  77.1285006 145.9315017  55.2839987  77.4125006 144.2355017
  56.2409987  77.4125006 144.2355017  55.0439987  78.3395006 144.2355017
  40.8259987  76.7735006 143.6845017  41.7829987  76.7735006 143.6845017
  40.5859987  77.7005006 143.6845017  39.5589987  76.5395006 139.3465017
  40.5159987  76.5395006 139.3465017  39.3189987  77.4665006 139.3465017
  45.3209987  76.7215006 143.4885017  46.2779987  76.7215006 143.4885017
  45.0809987  77.6485006 143.4885017  50.9629987  76.7305006 145.1205017
  51.9199987  76.7305006 145.1205017  50.7229987  77.6575006 145.1205017
  52.2969987  76.7495006 140.7485017  53.2539987  76.7495006 140.7485017
  52.0569987  77.6765006 140.7485017  39.5599987  92.4945006 140.3715017
  40.5169987  92.4945006 140.3715017  39.3199987  93.4215006 140.3715017
  41.4249987  78.4685006 137.9405017  42.3819987  78.4685006 137.9405017
  41.1849987  79.3955006 137.9405017  46.4839987  78.7325006 140.3435017
  47.4409987  78.7325006 140.3435017  46.2439987  79.6595006 140.3435017
  48.3709987  93.8335006 138.7485017  49.3279987  93.8335006 138.7485017
  48.1309987  94.7605006 138.7485017  55.1089987  93.2985006 141.4825017
  56.0659987  93.2985006 141.4825017  54.8689987  94.2255006 141.4825017
  40.7179987  77.3015006 153.1565017  41.6749987  77.3015006 153.1565017
  40.4779987  78.2285006 153.1565017  42.7309987  76.6815006 154.7595017
  43.6879987  76.6815006 154.7595017  42.4909987  77.6085006 154.7595017
  41.4719987  93.5225006 137.4755017  42.4289987  93.5225006 137.4755017
  41.2319987  94.4495006 137.4755017  51.1309987  75.9855006 154.9255017
  52.0879987  75.9855006 154.9255017  50.8909987  76.9125006 154.9255017
  54.2919987  92.0095006 153.6395017  55.2489987  92.0095006 153.6395017
  54.0519987  92.9365006 153.6395017  68.7739987  85.9215006 143.5685017
  69.7309987  85.9215006 143.5685017  68.5339987  86.8485006 143.5685017
  67.6319987  85.1725006 147.0625017  68.5889987  85.1725006 147.0625017
  67.3919987  86.0995006 147.0625017  59.9729987  84.8375006 148.6255017
  60.9299987  84.8375006 148.6255017  59.7329987  85.7645006 148.6255017
  71.3399987  88.1125006 145.3325017  72.2969987  88.1125006 145.3325017
  71.0999987  89.0395006 145.3325017  60.9239987  89.2765006 147.1315017
  61.8809987  89.2765006 147.1315017  60.6839987  90.2035006 147.1315017
  57.5709987  82.8585006 142.5935017  58.5279987  82.8585006 142.5935017
  57.3309987  83.7855006 142.5935017  58.2719987  85.0685006 144.7185017
  59.2289987  85.0685006 144.7185017  58.0319987  85.9955006 144.7185017
  68.4509987  93.2615006 145.5685017  69.4079987  93.2615006 145.5685017
  68.2109987  94.1885006 145.5685017  66.0149987  87.5795006 147.4995017
  66.9719987  87.5795006 147.4995017  65.7749987  88.5065006 147.4995017
  74.6359987  79.2125006 148.2655017  75.5929987  79.2125006 148.2655017
  74.3959987  80.1395006 148.2655017  69.1809987  82.0325006 147.8235017
  70.1379987  82.0325006 147.8235017  68.9409987  82.9595006 147.8235017
  62.3049987  80.1185006 145.0565017  63.2619987  80.1185006 145.0565017
  62.0649987  81.0455006 145.0565017  70.0419987  80.1945006 143.4265017
  70.9989987  80.1945006 143.4265017  69.8019987  81.1215006 143.4265017
  58.9249987  82.5265006 145.7975017  59.8819987  82.5265006 145.7975017
  58.6849987  83.4535006 145.7975017  64.0919987  84.0855006 145.0795017
  65.0489987  84.0855006 145.0795017  63.8519987  85.0125006 145.0795017
  75.0699987  80.6455006 150.5265017  76.0269987  80.6455006 150.5265017
  74.8299987  81.5725006 150.5265017  61.1899987  79.0175006 149.1015017
  62.1469987  79.0175006 149.1015017  60.9499987  79.9445006 149.1015017
  68.4649987  88.5105006 142.6595017  69.4219987  88.5105006 142.6595017
  68.2249987  89.4375006 142.6595017  63.7209987  86.6655006 149.3555017
  64.6779987  86.6655006 149.3555017  63.4809987  87.5925006 149.3555017
  71.8299987  79.5435006 145.4195017  72.7869987  79.5435006 145.4195017
  71.5899987  80.4705006 145.4195017  60.7529987  80.8875006 147.1085017
  61.7099987  80.8875006 147.1085017  60.5129987  81.8145006 147.1085017
  62.1589987  88.6575006 150.1675017  63.1159987  88.6575006 150.1675017
  61.9189987  89.5845006 150.1675017  58.2589987  88.2875006 140.9865017
  59.2159987  88.2875006 140.9865017  58.0189987  89.2145006 140.9865017
  71.8619987  89.9465006 147.7015017  72.8189987  89.9465006 147.7015017
  71.6219987  90.8735006 147.7015017  72.1779987  78.2365006 149.0995017
  73.1349987  78.2365006 149.0995017  71.9379987  79.1635006 149.0995017
  65.1589987  76.3475006 146.5595017  66.1159987  76.3475006 146.5595017
  64.9189987  77.2745006 146.5595017  70.1139987  91.7335006 144.3055017
  71.0709987  91.7335006 144.3055017  69.8739987  92.6605006 144.3055017
  71.2869987  89.6565006 142.8255017  72.2439987  89.6565006 142.8255017
  71.0469987  90.5835006 142.8255017  72.9519987  88.2395006 151.3075017
  73.9089987  88.2395006 151.3075017  72.7119987  89.1665006 151.3075017
  67.4549987  85.0005006 141.0845017  68.4119987  85.0005006 141.0845017
  67.2149987  85.9275006 141.0845017  67.5149987  83.7325006 138.3325017
  68.4719987  83.7325006 138.3325017  67.2749987  84.6595006 138.3325017
  74.8269987  84.5535006 149.3605017  75.7839987  84.5535006 149.3605017
  74.5869987  85.4805006 149.3605017  70.8409987  85.3695006 142.0025017
  71.7979987  85.3695006 142.0025017  70.6009987  86.2965006 142.0025017
  70.8029987  83.5215006 151.1055017  71.7599987  83.5215006 151.1055017
  70.5629987  84.4485006 151.1055017  62.5169987  86.0265006 143.8955017
  63.4739987  86.0265006 143.8955017  62.2769987  86.9535006 143.8955017
  63.8269987  89.4165006 146.5875017  64.7839987  89.4165006 146.5875017
  63.5869987  90.3435006 146.5875017  62.8339987  84.7625006 147.5575017
  63.7909987  84.7625006 147.5575017  62.5939987  85.6895006 147.5575017
  69.2209987  90.3235006 148.2665017  70.1779987  90.3235006 148.2665017
  68.9809987  91.2505006 148.2665017  63.7739987  89.1845006 152.2625017
  64.7309987  89.1845006 152.2625017  63.5339987  90.1115006 152.2625017
  69.7049987  84.5945006 139.6895017  70.6619987  84.5945006 139.6895017
  69.4649987  85.5215006 139.6895017  60.7049987  85.3515006 151.4395017
  61.6619987  85.3515006 151.4395017  60.4649987  86.2785006 151.4395017
  67.4629987  91.2565006 143.1395017  68.4199987  91.2565006 143.1395017
  67.2229987  92.1835006 143.1395017  62.0139987  91.2345006 153.0175017
  62.9709987  91.2345006 153.0175017  61.7739987  92.1615006 153.0175017
  73.4759987  76.2735006 139.4905017  74.4329987  76.2735006 139.4905017
  73.2359987  77.2005006 139.4905017  61.4709987  85.0485006 141.5255017
  62.4279987  85.0485006 141.5255017  61.2309987  85.9755006 141.5255017
  74.6019987  90.6115006 137.9555017  75.5589987  90.6115006 137.9555017
  74.3619987  91.5385006 137.9555017  57.4889987  87.4625006 150.4085017
  58.4459987  87.4625006 150.4085017  57.2489987  88.3895006 150.4085017
  57.3119987  90.1925006 147.2185017  58.2689987  90.1925006 147.2185017
  57.0719987  91.1195006 147.2185017  75.5569987  90.9035006 152.8795017
  76.5139987  90.9035006 152.8795017  75.3169987  91.8305006 152.8795017
  66.5179987  90.4495006 151.7435017  67.4749987  90.4495006 151.7435017
  66.2779987  91.3765006 151.7435017  66.9269987  94.1985006 141.5255017
  67.8839987  94.1985006 141.5255017  66.6869987  95.1255006 141.5255017
  60.5889987  93.0605006 143.3605017  61.5459987  93.0605006 143.3605017
  60.3489987  93.9875006 143.3605017  69.9439987  93.4145006 138.5245017
  70.9009987  93.4145006 138.5245017  69.7039987  94.3415006 138.5245017
  69.6899987  93.3305006 141.3065017  70.6469987  93.3305006 141.3065017
  69.4499987  94.2575006 141.3065017  72.6969987  82.3775006 153.3615017
  73.6539987  82.3775006 153.3615017  72.4569987  83.3045006 153.3615017
  59.8279987  88.7745006 151.3505017  60.7849987  88.7745006 151.3505017
  59.5879987  89.7015006 151.3505017  62.5059987  77.2435006 147.3205017
  63.4629987  77.2435006 147.3205017  62.2659987  78.1705006 147.3205017
  67.1509987  76.9345006 150.6855017  68.1079987  76.9345006 150.6855017
  66.9109987  77.8615006 150.6855017  70.4529987  80.7515006 151.5735017
  71.4099987  80.7515006 151.5735017  70.2129987  81.6785006 151.5735017
  71.3349987  85.6565006 137.8395017  72.2919987  85.6565006 137.8395017
  71.0949987  86.5835006 137.8395017  66.8059987  79.4895006 138.0105017
  67.7629987  79.4895006 138.0105017  66.5659987  80.4165006 138.0105017
  62.6059987  82.2145006 148.5285017  63.5629987  82.2145006 148.5285017
  62.3659987  83.1415006 148.5285017  62.5729987  82.3835006 143.4055017
  63.5299987  82.3835006 143.4055017  62.3329987  83.3105006 143.4055017
  68.1059987  82.8135006 142.1795017  69.0629987  82.8135006 142.1795017
  67.8659987  83.7405006 142.1795017  67.1669987  83.0495006 153.6415017
  68.1239987  83.0495006 153.6415017  66.9269987  83.9765006 153.6415017
  69.1219987  82.3185006 145.0345017  70.0789987  82.3185006 145.0345017
  68.8819987  83.2455006 145.0345017  60.2549987  82.4975006 150.2615017
  61.2119987  82.4975006 150.2615017  60.0149987  83.4245006 150.2615017
  63.6809987  79.8415006 137.2615017  64.6379987  79.8415006 137.2615017
  63.4409987  80.7685006 137.2615017  56.8939987  79.6055006 144.2025017
  57.8509987  79.6055006 144.2025017  56.6539987  80.5325006 144.2025017
  58.1559987  80.3095006 139.5495017  59.1129987  80.3095006 139.5495017
  57.9159987  81.2365006 139.5495017  68.3369987  83.9275006 149.6165017
  69.2939987  83.9275006 149.6165017  68.0969987  84.8545006 149.6165017
  65.1329987  79.8835006 144.4305017  66.0899987  79.8835006 144.4305017
  64.8929987  80.8105006 144.4305017  59.9499987  81.4585006 143.2945017
  60.9069987  81.4585006 143.2945017  59.7099987  82.3855006 143.2945017
  63.5889987  81.5115006 140.9475017  64.5459987  81.5115006 140.9475017
  63.3489987  82.4385006 140.9475017  69.5389987  79.1215006 147.6825017
  70.4959987  79.1215006 147.6825017  69.2989987  80.0485006 147.6825017
  62.2509987  82.7005006 138.4975017  63.2079987  82.7005006 138.4975017
  62.0109987  83.6275006 138.4975017  72.7549987  94.7715006 153.9965017
  73.7119987  94.7715006 153.9965017  72.5149987  95.6985006 153.9965017
  60.4219987  87.2425006 153.5655017  61.3789987  87.2425006 153.5655017
  60.1819987  88.1695006 153.5655017  66.4229987  82.6495006 146.3265017
  67.3799987  82.6495006 146.3265017  66.1829987  83.5765006 146.3265017
  61.4329987  78.7965006 142.7605017  62.3899987  78.7965006 142.7605017
  61.1929987  79.7235006 142.7605017  65.0619987  80.9895006 148.7395017
  66.0189987  80.9895006 148.7395017  64.8219987  81.9165006 148.7395017
  64.8189987  87.4335006 140.5355017  65.7759987  87.4335006 140.5355017
  64.5789987  88.3605006 140.5355017  72.8109987  86.3905006 149.2375017
  73.7679987  86.3905006 149.2375017  72.5709987  87.3175006 149.2375017
  69.5109987  80.0345006 138.5595017  70.4679987  80.0345006 138.5595017
  69.2709987  80.9615006 138.5595017  67.1349987  87.4535006 151.6735017
  68.0919987  87.4535006 151.6735017  66.8949987  88.3805006 151.6735017
  70.2149987  81.9135006 140.2815017  71.1719987  81.9135006 140.2815017
  69.9749987  82.8405006 140.2815017  60.7499987  86.5825006 146.2315017
  61.7069987  86.5825006 146.2315017  60.5099987  87.5095006 146.2315017
  67.8449987  88.9405006 139.2525017  68.8019987  88.9405006 139.2525017
  67.6049987  89.8675006 139.2525017  57.6919987  85.0275006 151.5175017
  58.6489987  85.0275006 151.5175017  57.4519987  85.9545006 151.5175017
  64.7569987  84.5575006 153.6945017  65.7139987  84.5575006 153.6945017
  64.5169987  85.4845006 153.6945017  69.4279987  89.8895006 151.6165017
  70.3849987  89.8895006 151.6165017  69.1879987  90.8165006 151.6165017
  75.1349987  82.0905006 140.0475017  76.0919987  82.0905006 140.0475017
  74.8949987  83.0175006 140.0475017  75.0959987  87.9425006 152.8345017
  76.0529987  87.9425006 152.8345017  74.8559987  88.8695006 152.8345017
  73.4259987  90.8965006 140.4275017  74.3829987  90.8965006 140.4275017
  73.1859987  91.8235006 140.4275017  70.6019987  85.7255006 147.5115017
  71.5589987  85.7255006 147.5115017  70.3619987  86.6525006 147.5115017
  63.1349987  90.0435006 143.6095017  64.0919987  90.0435006 143.6095017
  62.8949987  90.9705006 143.6095017  58.8989987  84.8965006 138.1535017
  59.8559987  84.8965006 138.1535017  58.6589987  85.8235006 138.1535017
  64.5839987  87.7135006 143.1945017  65.5409987  87.7135006 143.1945017
  64.3439987  88.6405006 143.1945017  65.0089987  91.8875006 149.5295017
  65.9659987  91.8875006 149.5295017  64.7689987  92.8145006 149.5295017
  63.2219987  92.7215006 142.6965017  64.1789987  92.7215006 142.6965017
  62.9819987  93.6485006 142.6965017  68.5449987  87.9215006 149.1755017
  69.5019987  87.9215006 149.1755017  68.3049987  88.8485006 149.1755017
  70.7909987  88.9395006 138.2695017  71.7479987  88.9395006 138.2695017
  70.5509987  89.8665006 138.2695017  71.3129987  92.4915006 151.6685017
  72.2699987  92.4915006 151.6685017  71.0729987  93.4185006 151.6685017
  75.3259987  93.3415006 138.5385017  76.2829987  93.3415006 138.5385017
  75.0859987  94.2685006 138.5385017  59.3939987  79.7425006 151.0505017
  60.3509987  79.7425006 151.0505017  59.1539987  80.6695006 151.0505017
  71.6269987  87.6015006 140.5175017  72.5839987  87.6015006 140.5175017
  71.3869987  88.5285006 140.5175017  59.0279987  91.5415006 149.4805017
  59.9849987  91.5415006 149.4805017  58.7879987  92.4685006 149.4805017
  65.0809987  90.0065006 136.8005017  66.0379987  90.0065006 136.8005017
  64.8409987  90.9335006 136.8005017  63.8289987  89.5895006 139.1705017
  64.7859987  89.5895006 139.1705017  63.5889987  90.5165006 139.1705017
  60.2749987  86.8325006 139.6375017  61.2319987  86.8325006 139.6375017
  60.0349987  87.7595006 139.6375017  68.1209987  79.5075006 149.9895017
  69.0779987  79.5075006 149.9895017  67.8809987  80.4345006 149.9895017
  68.8649987  79.1195006 141.0835017  69.8219987  79.1195006 141.0835017
  68.6249987  80.0465006 141.0835017  66.5609987  91.2335006 139.9505017
  67.5179987  91.2335006 139.9505017  66.3209987  92.1605006 139.9505017
  66.0959987  80.8485006 141.8975017  67.0529987  80.8485006 141.8975017
  65.8559987  81.7755006 141.8975017  66.6499987  81.8555006 151.0945017
  67.6069987  81.8555006 151.0945017  66.4099987  82.7825006 151.0945017
  66.9629987  77.9025006 142.8105017  67.9199987  77.9025006 142.8105017
  66.7229987  78.8295006 142.8105017  63.9379987  92.2815006 139.9285017
  64.8949987  92.2815006 139.9285017  63.6979987  93.2085006 139.9285017
  62.5959987  78.9915006 139.5365017  63.5529987  78.9915006 139.5365017
  62.3559987  79.9185006 139.5365017  72.8439987  79.7325006 151.9425017
  73.8009987  79.7325006 151.9425017  72.6039987  80.6595006 151.9425017
  71.4439987  83.5165006 145.9735017  72.4009987  83.5165006 145.9735017
  71.2039987  84.4435006 145.9735017  60.8829987  89.3985006 138.5935017
  61.8399987  89.3985006 138.5935017  60.6429987  90.3255006 138.5935017
  59.2099987  82.0965006 137.7145017  60.1669987  82.0965006 137.7145017
  58.9699987  83.0235006 137.7145017  72.5099987  92.7645006 147.6355017
  73.4669987  92.7645006 147.6355017  72.2699987  93.6915006 147.6355017
  60.0109987  76.8965006 146.4175017  60.9679987  76.8965006 146.4175017
  59.7709987  77.8235006 146.4175017  58.9579987  90.8085006 142.5475017
  59.9149987  90.8085006 142.5475017  58.7179987  91.7355006 142.5475017
  58.2409987  93.2565006 154.0275017  59.1979987  93.2565006 154.0275017
  58.0009987  94.1835006 154.0275017  62.8359987  92.3805006 155.4845017
  63.7929987  92.3805006 155.4845017  62.5959987  93.3075006 155.4845017
  67.1579987  91.4995006 137.3725017  68.1149987  91.4995006 137.3725017
  66.9179987  92.4265006 137.3725017  69.3699987  90.7625006 154.2135017
  70.3269987  90.7625006 154.2135017  69.1299987  91.6895006 154.2135017
  71.3329987  91.5965006 137.2645017  72.2899987  91.5965006 137.2645017
  71.0929987  92.5235006 137.2645017  58.1029987  87.2565006 154.8435017
  59.0599987  87.2565006 154.8435017  57.8629987  88.1835006 154.8435017
  62.6029987  87.6105006 137.0575017  63.5599987  87.6105006 137.0575017
  62.3629987  88.5375006 137.0575017  64.7999987  87.2265006 154.2495017
  65.7569987  87.2265006 154.2495017  64.5599987  88.1535006 154.2495017
  67.7819987  88.6415006 136.6365017  68.7389987  88.6415006 136.6365017
  67.5419987  89.5685006 136.6365017  70.5029987  87.0965006 151.6355017
  71.4599987  87.0965006 151.6355017  70.2629987  88.0235006 151.6355017
  58.9789987  84.4695006 154.2315017  59.9359987  84.4695006 154.2315017
  58.7389987  85.3965006 154.2315017  63.6499987  85.5395006 139.2585017
  64.6069987  85.5395006 139.2585017  63.4099987  86.4665006 139.2585017
  62.9069987  83.4195006 151.6035017  63.8639987  83.4195006 151.6035017
  62.6669987  84.3465006 151.6035017  64.7539987  83.5125006 137.8075017
  65.7109987  83.5125006 137.8075017  64.5139987  84.4395006 137.8075017
  67.9619987  85.9675006 154.9195017  68.9189987  85.9675006 154.9195017
  67.7219987  86.8945006 154.9195017  74.1359987  86.3535006 137.2895017
  75.0929987  86.3535006 137.2895017  73.8959987  87.2805006 137.2895017
  63.2989987  80.7965006 152.6725017  64.2559987  80.7965006 152.6725017
  63.0589987  81.7235006 152.6725017  63.6989987  79.1735006 150.2045017
  64.6559987  79.1735006 150.2045017  63.4589987  80.1005006 150.2045017
  65.2479987  84.6425006 150.4505017  66.2049987  84.6425006 150.4505017
  65.0079987  85.5695006 150.4505017  69.6479987  82.4215006 155.4275017
  70.6049987  82.4215006 155.4275017  69.4079987  83.3485006 155.4275017
  70.9749987  85.2015006 153.5625017  71.9319987  85.2015006 153.5625017
  70.7349987  86.1285006 153.5625017  61.7579987  82.0385006 154.5855017
  62.7149987  82.0385006 154.5855017  61.5179987  82.9655006 154.5855017
  64.4929987  76.6125006 150.6115017  65.4499987  76.6125006 150.6115017
  64.2529987  77.5395006 150.6115017  65.7649987  80.9425006 154.2095017
  66.7219987  80.9425006 154.2095017  65.5249987  81.8695006 154.2095017
  68.4819987  80.0765006 153.2875017  69.4389987  80.0765006 153.2875017
  68.2419987  81.0035006 153.2875017  70.0769987  78.7065006 155.2285017
  71.0339987  78.7065006 155.2285017  69.8369987  79.6335006 155.2285017
  59.8539987  79.9645006 154.3195017  60.8109987  79.9645006 154.3195017
  59.6139987  80.8915006 154.3195017  64.7039987  75.9805006 153.3025017
  65.6609987  75.9805006 153.3025017  64.4639987  76.9075006 153.3025017
  65.0709987  77.6145006 155.3905017  66.0279987  77.6145006 155.3905017
  64.8309987  78.5415006 155.3905017  64.5539987  94.5315006 138.5745017
  65.5109987  94.5315006 138.5745017  64.3139987  95.4585006 138.5745017
  58.1069987  89.0555006 138.1265017  59.0639987  89.0555006 138.1265017
  57.8669987  89.9825006 138.1265017  56.8669987  94.4945006 143.0395017
  57.8239987  94.4945006 143.0395017  56.6269987  95.4215006 143.0395017
  57.6989987  92.6095006 144.8755017  58.6559987  92.6095006 144.8755017
  57.4589987  93.5365006 144.8755017  75.2299987  93.4145006 147.8355017
  76.1869987  93.4145006 147.8355017  74.9899987  94.3415006 147.8355017
  74.8059987  93.0125006 150.7785017  75.7629987  93.0125006 150.7785017
  74.5659987  93.9395006 150.7785017  73.2509987  88.7435006 155.4345017
  74.2079987  88.7435006 155.4345017  73.0109987  89.6705006 155.4345017
  74.5629987  87.0605006 140.8935017  75.5199987  87.0605006 140.8935017
  74.3229987  87.9875006 140.8935017  74.9289987  85.1335006 142.7585017
  75.8859987  85.1335006 142.7585017  74.6889987  86.0605006 142.7585017
  74.6869987  87.8415006 147.7395017  75.6439987  87.8415006 147.7395017
  74.4469987  88.7685006 147.7395017  73.2339987  90.7385006 150.0215017
  74.1909987  90.7385006 150.0215017  72.9939987  91.6655006 150.0215017
  75.2419987  84.9445006 139.1835017  76.1989987  84.9445006 139.1835017
  75.0019987  85.8715006 139.1835017  73.6899987  82.1225006 137.9055017
  74.6469987  82.1225006 137.9055017  73.4499987  83.0495006 137.9055017
  72.7429987  83.6135006 143.3205017  73.6999987  83.6135006 143.3205017
  72.5029987  84.5405006 143.3205017  57.7369987  85.7025006 147.3985017
  58.6939987  85.7025006 147.3985017  57.4969987  86.6295006 147.3985017
  73.5959987  85.5805006 153.0005017  74.5529987  85.5805006 153.0005017
  73.3559987  86.5075006 153.0005017  75.1049987  83.4725006 153.6655017
  76.0619987  83.4725006 153.6655017  74.8649987  84.3995006 153.6655017
  72.7729987  79.6855006 136.9705017  73.7299987  79.6855006 136.9705017
  72.5329987  80.6125006 136.9705017  72.4079987  81.2045006 141.7855017
  73.3649987  81.2045006 141.7855017  72.1679987  82.1315006 141.7855017
  73.0479987  81.7415006 147.2245017  74.0049987  81.7415006 147.2245017
  72.8079987  82.6685006 147.2245017  73.1179987  82.4665006 150.0145017
  74.0749987  82.4665006 150.0145017  72.8779987  83.3935006 150.0145017
  57.3649987  80.9935006 153.5265017  58.3219987  80.9935006 153.5265017
  57.1249987  81.9205006 153.5265017  75.3859987  76.5255006 155.3555017
  76.3429987  76.5255006 155.3555017  75.1459987  77.4525006 155.3555017
  73.0749987  78.4765006 141.8375017  74.0319987  78.4765006 141.8375017
  72.8349987  79.4035006 141.8375017  58.5669987  79.2825006 146.3825017
  59.5239987  79.2825006 146.3825017  58.3269987  80.2095006 146.3825017
  56.8499987  82.2875006 147.4425017  57.8069987  82.2875006 147.4425017
  56.6099987  83.2145006 147.4425017  74.9109987  78.6165006 153.7115017
  75.8679987  78.6165006 153.7115017  74.6709987  79.5435006 153.7115017
  74.9719987  78.4465006 138.5885017  75.9289987  78.4465006 138.5885017
  74.7319987  79.3735006 138.5885017  57.2199987  78.5435006 141.5065017
  58.1769987  78.5435006 141.5065017  56.9799987  79.4705006 141.5065017
  71.9549987  93.4955006 143.4485017  72.9119987  93.4955006 143.4485017
  71.7149987  94.4225006 143.4485017  57.1719987  77.2245006 149.8085017
  58.1289987  77.2245006 149.8085017  56.9319987  78.1515006 149.8085017
  59.3979987  90.3875006 153.9665017  60.3549987  90.3875006 153.9665017
  59.1579987  91.3145006 153.9665017  62.3029987  91.4115006 150.2495017
  63.2599987  91.4115006 150.2495017  62.0629987  92.3385006 150.2495017
  66.6239987  92.8275006 153.1555017  67.5809987  92.8275006 153.1555017
  66.3839987  93.7545006 153.1555017  68.9229987  94.0975006 152.4455017
  69.8799987  94.0975006 152.4455017  68.6829987  95.0245006 152.4455017
  73.9239987  76.7105006 151.5495017  74.8809987  76.7105006 151.5495017
  73.6839987  77.6375006 151.5495017  59.7379987  94.6455006 150.2315017
  60.6949987  94.6455006 150.2315017  59.4979987  95.5725006 150.2315017
  62.2039987  94.2275006 149.3065017  63.1609987  94.2275006 149.3065017
  61.9639987  95.1545006 149.3065017  66.9039987  94.1395006 148.4805017
  67.8609987  94.1395006 148.4805017  66.6639987  95.0665006 148.4805017
  69.2099987  92.9705006 149.4785017  70.1669987  92.9705006 149.4785017
  68.9699987  93.8975006 149.4785017  71.7919987  94.5385006 149.7365017
  72.7489987  94.5385006 149.7365017  71.5519987  95.4655006 149.7365017
  59.1659987  93.2855006 147.1605017  60.1229987  93.2855006 147.1605017
  58.9259987  94.2125006 147.1605017  61.2619987  92.0085006 145.8315017
  62.2189987  92.0085006 145.8315017  61.0219987  92.9355006 145.8315017
  63.8489987  92.4925006 146.7025017  64.8059987  92.4925006 146.7025017
  63.6089987  93.4195006 146.7025017  67.3229987  78.1365006 145.8535017
  68.2799987  78.1365006 145.8535017  67.0829987  79.0635006 145.8535017
  72.4549987  76.2045006 145.9295017  73.4119987  76.2045006 145.9295017
  72.2149987  77.1315006 145.9295017  74.1409987  77.4125006 144.2355017
  75.0979987  77.4125006 144.2355017  73.9009987  78.3395006 144.2355017
  59.6819987  76.7735006 143.6855017  60.6389987  76.7735006 143.6855017
  59.4419987  77.7005006 143.6855017  58.4459987  76.5355006 139.3905017
  59.4029987  76.5355006 139.3905017  58.2059987  77.4625006 139.3905017
  64.1829987  76.6925006 143.4765017  65.1399987  76.6925006 143.4765017
  63.9429987  77.6195006 143.4765017  69.8499987  76.7165006 145.1155017
  70.8069987  76.7165006 145.1155017  69.6099987  77.6435006 145.1155017
  71.1529987  76.7495006 140.7485017  72.1099987  76.7495006 140.7485017
  70.9129987  77.6765006 140.7485017  58.4169987  92.4925006 140.3715017
  59.3739987  92.4925006 140.3715017  58.1769987  93.4195006 140.3715017
  60.2969987  78.4775006 137.9555017  61.2539987  78.4775006 137.9555017
  60.0569987  79.4045006 137.9555017  65.3399987  78.7325006 140.3435017
  66.2969987  78.7325006 140.3435017  65.0999987  79.6595006 140.3435017
  67.2269987  93.8325006 138.7485017  68.1839987  93.8325006 138.7485017
  66.9869987  94.7595006 138.7485017  73.9649987  93.2975006 141.4825017
  74.9219987  93.2975006 141.4825017  73.7249987  94.2245006 141.4825017
  59.5799987  77.3065006 153.1505017  60.5369987  77.3065006 153.1505017
  59.3399987  78.2335006 153.1505017  61.5839987  76.6795006 154.7625017
  62.5409987  76.6795006 154.7625017  61.3439987  77.6065006 154.7625017
  60.3279987  93.5225006 137.4755017  61.2849987  93.5225006 137.4755017
  60.0879987  94.4495006 137.4755017  69.9889987  75.9795006 154.9275017
  70.9459987  75.9795006 154.9275017  69.7489987  76.9065006 154.9275017
  73.1929987  92.0245006 153.5805017  74.1499987  92.0245006 153.5805017
  72.9529987  92.9515006 153.5805017  87.6229987  85.9165006 143.5875017
  88.5799987  85.9165006 143.5875017  87.3829987  86.8435006 143.5875017
  86.4879987  85.1735006 147.0615017  87.4449987  85.1735006 147.0615017
  86.2479987  86.1005006 147.0615017  78.8519987  84.8265006 148.6095017
  79.8089987  84.8265006 148.6095017  78.6119987  85.7535006 148.6095017
  90.1959987  88.1125006 145.3315017  91.1529987  88.1125006 145.3315017
  89.9559987  89.0395006 145.3315017  79.7799987  89.2765006 147.1315017
  80.7369987  89.2765006 147.1315017  79.5399987  90.2035006 147.1315017
  76.4259987  82.8575006 142.5935017  77.3829987  82.8575006 142.5935017
  76.1859987  83.7845006 142.5935017  77.1189987  85.0695006 144.7235017
  78.0759987  85.0695006 144.7235017  76.8789987  85.9965006 144.7235017
  87.3069987  93.2625006 145.5685017  88.2639987  93.2625006 145.5685017
  87.0669987  94.1895006 145.5685017  84.8719987  87.5795006 147.4975017
  85.8289987  87.5795006 147.4975017  84.6319987  88.5065006 147.4975017
  93.5079987  79.2035006 148.2825017  94.4649987  79.2035006 148.2825017
  93.2679987  80.1305006 148.2825017  88.0369987  82.0285006 147.8185017
  88.9939987  82.0285006 147.8185017  87.7969987  82.9555006 147.8185017
  81.1609987  80.1185006 145.0565017  82.1179987  80.1185006 145.0565017
  80.9209987  81.0455006 145.0565017  88.8449987  80.2175006 143.4385017
  89.8019987  80.2175006 143.4385017  88.6049987  81.1445006 143.4385017
  77.7819987  82.5265006 145.7955017  78.7389987  82.5265006 145.7955017
  77.5419987  83.4535006 145.7955017  82.9449987  84.0835006 145.0815017
  83.9019987  84.0835006 145.0815017  82.7049987  85.0105006 145.0815017
  93.9249987  80.6455006 150.5255017  94.8819987  80.6455006 150.5255017
  93.6849987  81.5725006 150.5255017  80.0459987  79.0175006 149.1015017
  81.0029987  79.0175006 149.1015017  79.8059987  79.9445006 149.1015017
  87.3589987  88.5125006 142.6405017  88.3159987  88.5125006 142.6405017
  87.1189987  89.4395006 142.6405017  82.5779987  86.6655006 149.3555017
  83.5349987  86.6655006 149.3555017  82.3379987  87.5925006 149.3555017
  90.4789987  79.5805006 145.6795017  91.4359987  79.5805006 145.6795017
  90.2389987  80.5075006 145.6795017  79.6079987  80.8875006 147.1095017
  80.5649987  80.8875006 147.1095017  79.3679987  81.8145006 147.1095017
  81.0149987  88.6555006 150.1655017  81.9719987  88.6555006 150.1655017
  80.7749987  89.5825006 150.1655017  77.1019987  88.2855006 140.9905017
  78.0589987  88.2855006 140.9905017  76.8619987  89.2125006 140.9905017
  90.7179987  89.9465006 147.7025017  91.6749987  89.9465006 147.7025017
  90.4779987  90.8735006 147.7025017  91.0389987  78.2385006 149.0955017
  91.9959987  78.2385006 149.0955017  90.7989987  79.1655006 149.0955017
  84.0149987  76.3475006 146.5595017  84.9719987  76.3475006 146.5595017
  83.7749987  77.2745006 146.5595017  88.9699987  91.7315006 144.3045017
  89.9269987  91.7315006 144.3045017  88.7299987  92.6585006 144.3045017
  90.1699987  89.6555006 142.8265017  91.1269987  89.6555006 142.8265017
  89.9299987  90.5825006 142.8265017  91.8079987  88.2395006 151.3075017
  92.7649987  88.2395006 151.3075017  91.5679987  89.1665006 151.3075017
  86.3049987  85.1565006 141.0825017  87.2619987  85.1565006 141.0825017
  86.0649987  86.0835006 141.0825017  86.3509987  83.7185006 138.3255017
  87.3079987  83.7185006 138.3255017  86.1109987  84.6455006 138.3255017
  93.6829987  84.5535006 149.3605017  94.6399987  84.5535006 149.3605017
  93.4429987  85.4805006 149.3605017  89.7289987  85.3875006 142.0175017
  90.6859987  85.3875006 142.0175017  89.4889987  86.3145006 142.0175017
  89.6589987  83.5215006 151.1065017  90.6159987  83.5215006 151.1065017
  89.4189987  84.4485006 151.1065017  81.3529987  86.0205006 143.9065017
  82.3099987  86.0205006 143.9065017  81.1129987  86.9475006 143.9065017
  82.6819987  89.4165006 146.5895017  83.6389987  89.4165006 146.5895017
  82.4419987  90.3435006 146.5895017  81.6909987  84.7615006 147.5585017
  82.6479987  84.7615006 147.5585017  81.4509987  85.6885006 147.5585017
  88.0769987  90.3235006 148.2665017  89.0339987  90.3235006 148.2665017
  87.8369987  91.2505006 148.2665017  82.6299987  89.1845006 152.2615017
  83.5869987  89.1845006 152.2615017  82.3899987  90.1115006 152.2615017
  88.5879987  84.5405006 139.6785017  89.5449987  84.5405006 139.6785017
  88.3479987  85.4675006 139.6785017  79.5639987  85.3525006 151.4385017
  80.5209987  85.3525006 151.4385017  79.3239987  86.2795006 151.4385017
  86.3169987  91.2695006 143.1495017  87.2739987  91.2695006 143.1495017
  86.0769987  92.1965006 143.1495017  80.8679987  91.2285006 153.0105017
  81.8249987  91.2285006 153.0105017  80.6279987  92.1555006 153.0105017
  92.3379987  76.2535006 139.4415017  93.2949987  76.2535006 139.4415017
  92.0979987  77.1805006 139.4415017  80.3239987  85.0525006 141.5235017
  81.2809987  85.0525006 141.5235017  80.0839987  85.9795006 141.5235017
  93.4459987  90.6165006 137.9465017  94.4029987  90.6165006 137.9465017
  93.2059987  91.5435006 137.9465017  76.4179987  87.4645006 150.3895017
  77.3749987  87.4645006 150.3895017  76.1779987  88.3915006 150.3895017
  76.1769987  90.2035006 147.1945017  77.1339987  90.2035006 147.1945017
  75.9369987  91.1305006 147.1945017  94.4129987  90.9035006 152.8805017
  95.3699987  90.9035006 152.8805017  94.1729987  91.8305006 152.8805017
  85.3699987  90.4475006 151.7435017  86.3269987  90.4475006 151.7435017
  85.1299987  91.3745006 151.7435017  85.7829987  94.1975006 141.5255017
  86.7399987  94.1975006 141.5255017  85.5429987  95.1245006 141.5255017
  79.4449987  93.0615006 143.3605017  80.4019987  93.0615006 143.3605017
  79.2049987  93.9885006 143.3605017  88.7779987  93.4085006 138.5215017
  89.7349987  93.4085006 138.5215017  88.5379987  94.3355006 138.5215017
  88.5469987  93.3165006 141.2865017  89.5039987  93.3165006 141.2865017
  88.3069987  94.2435006 141.2865017  91.5529987  82.3775006 153.3615017
  92.5099987  82.3775006 153.3615017  91.3129987  83.3045006 153.3615017
  78.6919987  88.7825006 151.3555017  79.6489987  88.7825006 151.3555017
  78.4519987  89.7095006 151.3555017  81.3619987  77.2435006 147.3215017
  82.3189987  77.2435006 147.3215017  81.1219987  78.1705006 147.3215017
  86.0079987  76.9335006 150.6835017  86.9649987  76.9335006 150.6835017
  85.7679987  77.8605006 150.6835017  89.3089987  80.7515006 151.5735017
  90.2659987  80.7515006 151.5735017  89.0689987  81.6785006 151.5735017
  90.1759987  85.7145006 137.8175017  91.1329987  85.7145006 137.8175017
  89.9359987  86.6415006 137.8175017  85.6619987  79.4905006 138.0115017
  86.6189987  79.4905006 138.0115017  85.4219987  80.4175006 138.0115017
  81.4629987  82.2135006 148.5295017  82.4199987  82.2135006 148.5295017
  81.2229987  83.1405006 148.5295017  81.4259987  82.3725006 143.4105017
  82.3829987  82.3725006 143.4105017  81.1859987  83.2995006 143.4105017
  86.9279987  82.8355006 142.1645017  87.8849987  82.8355006 142.1645017
  86.6879987  83.7625006 142.1645017  86.0269987  83.0605006 153.6375017
  86.9839987  83.0605006 153.6375017  85.7869987  83.9875006 153.6375017
  87.9489987  82.3265006 145.0385017  88.9059987  82.3265006 145.0385017
  87.7089987  83.2535006 145.0385017  79.1109987  82.4975006 150.2615017
  80.0679987  82.4975006 150.2615017  78.8709987  83.4245006 150.2615017
  82.5369987  79.8415006 137.2615017  83.4939987  79.8415006 137.2615017
  82.2969987  80.7685006 137.2615017  75.7499987  79.6055006 144.2025017
  76.7069987  79.6055006 144.2025017  75.5099987  80.5325006 144.2025017
  77.0119987  80.3095006 139.5495017  77.9689987  80.3095006 139.5495017
  76.7719987  81.2365006 139.5495017  87.1949987  83.9245006 149.6135017
  88.1519987  83.9245006 149.6135017  86.9549987  84.8515006 149.6135017
  83.9939987  79.8825006 144.4295017  84.9509987  79.8825006 144.4295017
  83.7539987  80.8095006 144.4295017  78.8059987  81.4585006 143.2945017
  79.7629987  81.4585006 143.2945017  78.5659987  82.3855006 143.2945017
  82.4439987  81.5115006 140.9485017  83.4009987  81.5115006 140.9485017
  82.2039987  82.4385006 140.9485017  88.3889987  79.1045006 147.7005017
  89.3459987  79.1045006 147.7005017  88.1489987  80.0315006 147.7005017
  81.1049987  82.7045006 138.4985017  82.0619987  82.7045006 138.4985017
  80.8649987  83.6315006 138.4985017  91.6109987  94.7715006 153.9965017
  92.5679987  94.7715006 153.9965017  91.3709987  95.6985006 153.9965017
  79.2799987  87.2335006 153.5665017  80.2369987  87.2335006 153.5665017
  79.0399987  88.1605006 153.5665017  85.2769987  82.6495006 146.3265017
  86.2339987  82.6495006 146.3265017  85.0369987  83.5765006 146.3265017
  80.2889987  78.7965006 142.7605017  81.2459987  78.7965006 142.7605017
  80.0489987  79.7235006 142.7605017  83.9169987  80.9885006 148.7395017
  84.8739987  80.9885006 148.7395017  83.6769987  81.9155006 148.7395017
  84.5029987  87.2145006 140.4265017  85.4599987  87.2145006 140.4265017
  84.2629987  88.1415006 140.4265017  91.6669987  86.3905006 149.2385017
  92.6239987  86.3905006 149.2385017  91.4269987  87.3175006 149.2385017
  88.3519987  80.0465006 138.5405017  89.3089987  80.0465006 138.5405017
  88.1119987  80.9735006 138.5405017  85.9909987  87.4535006 151.6735017
  86.9479987  87.4535006 151.6735017  85.7509987  88.3805006 151.6735017
  88.9099987  81.9345006 140.2355017  89.8669987  81.9345006 140.2355017
  88.6699987  82.8615006 140.2355017  79.6079987  86.5835006 146.2325017
  80.5649987  86.5835006 146.2325017  79.3679987  87.5105006 146.2325017
  86.6059987  88.6705006 139.4375017  87.5629987  88.6705006 139.4375017
  86.3659987  89.5975006 139.4375017  76.5999987  85.0055006 151.5025017
  77.5569987  85.0055006 151.5025017  76.3599987  85.9325006 151.5025017
  83.6129987  84.5565006 153.6945017  84.5699987  84.5565006 153.6945017
  83.3729987  85.4835006 153.6945017  88.2839987  89.8895006 151.6165017
  89.2409987  89.8895006 151.6165017  88.0439987  90.8165006 151.6165017
  94.0219987  82.1005006 140.0235017  94.9789987  82.1005006 140.0235017
  93.7819987  83.0275006 140.0235017  93.9519987  87.9425006 152.8345017
  94.9089987  87.9425006 152.8345017  93.7119987  88.8695006 152.8345017
  92.2599987  90.9035006 140.4125017  93.2169987  90.9035006 140.4125017
  92.0199987  91.8305006 140.4125017  89.4569987  85.7275006 147.5135017
  90.4139987  85.7275006 147.5135017  89.2169987  86.6545006 147.5135017
  81.9819987  90.0495006 143.6165017  82.9389987  90.0495006 143.6165017
  81.7419987  90.9765006 143.6165017  77.7519987  84.8945006 138.1525017
  78.7089987  84.8945006 138.1525017  77.5119987  85.8215006 138.1525017
  83.4049987  87.7135006 143.1425017  84.3619987  87.7135006 143.1425017
  83.1649987  88.6405006 143.1425017  83.8589987  91.8915006 149.5335017
  84.8159987  91.8915006 149.5335017  83.6189987  92.8185006 149.5335017
  82.0769987  92.7165006 142.6955017  83.0339987  92.7165006 142.6955017
  81.8369987  93.6435006 142.6955017  87.4009987  87.9215006 149.1755017
  88.3579987  87.9215006 149.1755017  87.1609987  88.8485006 149.1755017
  89.7119987  88.8275006 138.3945017  90.6689987  88.8275006 138.3945017
  89.4719987  89.7545006 138.3945017  90.1689987  92.4915006 151.6685017
  91.1259987  92.4915006 151.6685017  89.9289987  93.4185006 151.6685017
  94.1819987  93.3415006 138.5385017  95.1389987  93.3415006 138.5385017
  93.9419987  94.2685006 138.5385017  78.2509987  79.7415006 151.0505017
  79.2079987  79.7415006 151.0505017  78.0109987  80.6685006 151.0505017
  90.5029987  87.6125006 140.5315017  91.4599987  87.6125006 140.5315017
  90.2629987  88.5395006 140.5315017  77.8739987  91.5355006 149.4815017
  78.8309987  91.5355006 149.4815017  77.6339987  92.4625006 149.4815017
  83.9439987  90.0105006 136.7965017  84.9009987  90.0105006 136.7965017
  83.7039987  90.9375006 136.7965017  82.6379987  89.5805006 139.1815017
  83.5949987  89.5805006 139.1815017  82.3979987  90.5075006 139.1815017
  79.1299987  86.8345006 139.6415017  80.0869987  86.8345006 139.6415017
  78.8899987  87.7615006 139.6415017  86.9709987  79.5085006 149.9935017
  87.9279987  79.5085006 149.9935017  86.7309987  80.4355006 149.9935017
  87.7059987  79.1235006 141.0785017  88.6629987  79.1235006 141.0785017
  87.4659987  80.0505006 141.0785017  85.4209987  91.2425006 139.9365017
  86.3779987  91.2425006 139.9365017  85.1809987  92.1695006 139.9365017
  84.9509987  80.8485006 141.8975017  85.9079987  80.8485006 141.8975017
  84.7109987  81.7755006 141.8975017  85.5049987  81.8555006 151.0945017
  86.4619987  81.8555006 151.0945017  85.2649987  82.7825006 151.0945017
  85.8319987  77.9005006 142.8095017  86.7889987  77.9005006 142.8095017
  85.5919987  78.8275006 142.8095017  82.7919987  92.2835006 139.9265017
  83.7489987  92.2835006 139.9265017  82.5519987  93.2105006 139.9265017
  81.4509987  78.9925006 139.5355017  82.4079987  78.9925006 139.5355017
  81.2109987  79.9195006 139.5355017  91.7009987  79.7325006 151.9495017
  92.6579987  79.7325006 151.9495017  91.4609987  80.6595006 151.9495017
  90.2819987  83.5315006 146.0045017  91.2389987  83.5315006 146.0045017
  90.0419987  84.4585006 146.0045017  79.7429987  89.3925006 138.5985017
  80.6999987  89.3925006 138.5985017  79.5029987  90.3195006 138.5985017
  78.0659987  82.0965006 137.7145017  79.0229987  82.0965006 137.7145017
  77.8259987  83.0235006 137.7145017  91.3659987  92.7645006 147.6355017
  92.3229987  92.7645006 147.6355017  91.1259987  93.6915006 147.6355017
  78.8669987  76.8965006 146.4175017  79.8239987  76.8965006 146.4175017
  78.6269987  77.8235006 146.4175017  77.8139987  90.8085006 142.5475017
  78.7709987  90.8085006 142.5475017  77.5739987  91.7355006 142.5475017
  77.0399987  93.4645006 153.8665017  77.9969987  93.4645006 153.8665017
  76.7999987  94.3915006 153.8665017  81.6839987  92.3725006 155.4655017
  82.6409987  92.3725006 155.4655017  81.4439987  93.2995006 155.4655017
  86.0329987  91.4735006 137.3695017  86.9899987  91.4735006 137.3695017
  85.7929987  92.4005006 137.3695017  88.2259987  90.7625006 154.2135017
  89.1829987  90.7625006 154.2135017  87.9859987  91.6895006 154.2135017
  90.2879987  91.6895006 137.3495017  91.2449987  91.6895006 137.3495017
  90.0479987  92.6165006 137.3495017  76.9589987  87.2475006 154.8515017
  77.9159987  87.2475006 154.8515017  76.7189987  88.1745006 154.8515017
  81.4499987  87.6135006 137.0485017  82.4069987  87.6135006 137.0485017
  81.2099987  88.5405006 137.0485017  83.6559987  87.2265006 154.2495017
  84.6129987  87.2265006 154.2495017  83.4159987  88.1535006 154.2495017
  86.6809987  88.6445006 136.6765017  87.6379987  88.6445006 136.6765017
  86.4409987  89.5715006 136.6765017  89.3589987  87.0965006 151.6355017
  90.3159987  87.0965006 151.6355017  89.1189987  88.0235006 151.6355017
  77.8499987  84.4655006 154.2385017  78.8069987  84.4655006 154.2385017
  77.6099987  85.3925006 154.2385017  82.4889987  85.5895006 139.2725017
  83.4459987  85.5895006 139.2725017  82.2489987  86.5165006 139.2725017
  81.7619987  83.4215006 151.6045017  82.7189987  83.4215006 151.6045017
  81.5219987  84.3485006 151.6045017  83.6049987  83.5075006 137.7995017
  84.5619987  83.5075006 137.7995017  83.3649987  84.4345006 137.7995017
  86.8179987  85.9665006 154.9195017  87.7749987  85.9665006 154.9195017
  86.5779987  86.8935006 154.9195017  92.9689987  86.3595006 137.2945017
  93.9259987  86.3595006 137.2945017  92.7289987  87.2865006 137.2945017
  82.1619987  80.7925006 152.6775017  83.1189987  80.7925006 152.6775017
  81.9219987  81.7195006 152.6775017  82.5539987  79.1735006 150.2045017
  83.5109987  79.1735006 150.2045017  82.3139987  80.1005006 150.2045017
  84.1049987  84.6425006 150.4515017  85.0619987  84.6425006 150.4515017
  83.8649987  85.5695006 150.4515017  88.5039987  82.4215006 155.4275017
  89.4609987  82.4215006 155.4275017  88.2639987  83.3485006 155.4275017
  89.8309987  85.2015006 153.5625017  90.7879987  85.2015006 153.5625017
  89.5909987  86.1285006 153.5625017  80.6139987  82.0405006 154.5855017
  81.5709987  82.0405006 154.5855017  80.3739987  82.9675006 154.5855017
  83.3509987  76.6135006 150.6065017  84.3079987  76.6135006 150.6065017
  83.1109987  77.5405006 150.6065017  84.6289987  80.9245006 154.2055017
  85.5859987  80.9245006 154.2055017  84.3889987  81.8515006 154.2055017
  87.3339987  80.0775006 153.2945017  88.2909987  80.0775006 153.2945017
  87.0939987  81.0045006 153.2945017  88.9069987  78.7075006 155.2245017
  89.8639987  78.7075006 155.2245017  88.6669987  79.6345006 155.2245017
  78.7089987  79.9645006 154.3195017  79.6659987  79.9645006 154.3195017
  78.4689987  80.8915006 154.3195017  83.5479987  75.9585006 153.2895017
  84.5049987  75.9585006 153.2895017  83.3079987  76.8855006 153.2895017
  83.9679987  77.6655006 155.1525017  84.9249987  77.6655006 155.1525017
  83.7279987  78.5925006 155.1525017  83.4109987  94.5315006 138.5735017
  84.3679987  94.5315006 138.5735017  83.1709987  95.4585006 138.5735017
  76.9629987  89.0555006 138.1265017  77.9199987  89.0555006 138.1265017
  76.7229987  89.9825006 138.1265017  75.7229987  94.5005006 143.0325017
  76.6799987  94.5005006 143.0325017  75.4829987  95.4275006 143.0325017
  76.5519987  92.6175006 144.8835017  77.5089987  92.6175006 144.8835017
  76.3119987  93.5445006 144.8835017  94.0859987  93.4145006 147.8355017
  95.0429987  93.4145006 147.8355017  93.8459987  94.3415006 147.8355017
  93.6609987  93.0125006 150.7785017  94.6179987  93.0125006 150.7785017
  93.4209987  93.9395006 150.7785017  92.1079987  88.7425006 155.4335017
  93.0649987  88.7425006 155.4335017  91.8679987  89.6695006 155.4335017
  93.4239987  87.0755006 140.8905017  94.3809987  87.0755006 140.8905017
  93.1839987  88.0025006 140.8905017  93.7809987  85.1515006 142.7625017
  94.7379987  85.1515006 142.7625017  93.5409987  86.0785006 142.7625017
  93.5439987  87.8415006 147.7395017  94.5009987  87.8415006 147.7395017
  93.3039987  88.7685006 147.7395017  92.0899987  90.7385006 150.0215017
  93.0469987  90.7385006 150.0215017  91.8499987  91.6655006 150.0215017
  94.0909987  84.9325006 139.1875017  95.0479987  84.9325006 139.1875017
  93.8509987  85.8595006 139.1875017  92.5579987  82.1275006 137.8875017
  93.5149987  82.1275006 137.8875017  92.3179987  83.0545006 137.8875017
  91.5919987  83.6275006 143.3275017  92.5489987  83.6275006 143.3275017
  91.3519987  84.5545006 143.3275017  76.6059987  85.6945006 147.3765017
  77.5629987  85.6945006 147.3765017  76.3659987  86.6215006 147.3765017
  92.4529987  85.5795006 153.0005017  93.4099987  85.5795006 153.0005017
  92.2129987  86.5065006 153.0005017  93.9609987  83.4725006 153.6655017
  94.9179987  83.4725006 153.6655017  93.7209987  84.3995006 153.6655017
  91.6259987  79.6805006 136.9775017  92.5829987  79.6805006 136.9775017
  91.3859987  80.6075006 136.9775017  91.2639987  81.6965006 141.0745017
  92.2209987  81.6965006 141.0745017  91.0239987  82.6235006 141.0745017
  91.9059987  81.7525006 147.2285017  92.8629987  81.7525006 147.2285017
  91.6659987  82.6795006 147.2285017  91.9729987  82.4685006 150.0155017
  92.9299987  82.4685006 150.0155017  91.7329987  83.3955006 150.0155017
  76.2209987  80.9935006 153.5215017  77.1779987  80.9935006 153.5215017
  75.9809987  81.9205006 153.5215017  94.2369987  76.5085006 155.3615017
  95.1939987  76.5085006 155.3615017  93.9969987  77.4355006 155.3615017
  92.1509987  77.9695006 141.5935017  93.1079987  77.9695006 141.5935017
  91.9109987  78.8965006 141.5935017  77.4229987  79.2825006 146.3825017
  78.3799987  79.2825006 146.3825017  77.1829987  80.2095006 146.3825017
  75.7119987  82.2765006 147.4335017  76.6689987  82.2765006 147.4335017
  75.4719987  83.2035006 147.4335017  93.7689987  78.6135006 153.7135017
  94.7259987  78.6135006 153.7135017  93.5289987  79.5405006 153.7135017
  93.8349987  78.4535006 138.5665017  94.7919987  78.4535006 138.5665017
  93.5949987  79.3805006 138.5665017  76.0759987  78.5435006 141.5055017
  77.0329987  78.5435006 141.5055017  75.8359987  79.4705006 141.5055017
  90.8129987  93.4945006 143.4475017  91.7699987  93.4945006 143.4475017
  90.5729987  94.4215006 143.4475017  76.0299987  77.2215006 149.8095017
  76.9869987  77.2215006 149.8095017  75.7899987  78.1485006 149.8095017
  78.2499987  90.4065006 153.9665017  79.2069987  90.4065006 153.9665017
  78.0099987  91.3335006 153.9665017  81.1609987  91.4025006 150.2405017
  82.1179987  91.4025006 150.2405017  80.9209987  92.3295006 150.2405017
  85.4809987  92.8275006 153.1565017  86.4379987  92.8275006 153.1565017
  85.2409987  93.7545006 153.1565017  87.7799987  94.0965006 152.4445017
  88.7369987  94.0965006 152.4445017  87.5399987  95.0235006 152.4445017
  92.7799987  76.7105006 151.5495017  93.7369987  76.7105006 151.5495017
  92.5399987  77.6375006 151.5495017  78.5879987  94.6485006 150.2495017
  79.5449987  94.6485006 150.2495017  78.3479987  95.5755006 150.2495017
  81.0569987  94.2305006 149.3125017  82.0139987  94.2305006 149.3125017
  80.8169987  95.1575006 149.3125017  85.7589987  94.1395006 148.4785017
  86.7159987  94.1395006 148.4785017  85.5189987  95.0665006 148.4785017
  88.0659987  92.9705006 149.4785017  89.0229987  92.9705006 149.4785017
  87.8259987  93.8975006 149.4785017  90.6489987  94.5385006 149.7365017
  91.6059987  94.5385006 149.7365017  90.4089987  95.4655006 149.7365017
  78.0219987  93.2975006 147.1795017  78.9789987  93.2975006 147.1795017
  77.7819987  94.2245006 147.1795017  80.1169987  92.0095006 145.8325017
  81.0739987  92.0095006 145.8325017  79.8769987  92.9365006 145.8325017
  82.7049987  92.4925006 146.7025017  83.6619987  92.4925006 146.7025017
  82.4649987  93.4195006 146.7025017  86.1749987  78.1465006 145.8435017
  87.1319987  78.1465006 145.8435017  85.9349987  79.0735006 145.8435017
  91.3039987  76.1905006 145.9425017  92.2609987  76.1905006 145.9425017
  91.0639987  77.1175006 145.9425017  93.0229987  77.3755006 144.3025017
  93.9799987  77.3755006 144.3025017  92.7829987  78.3025006 144.3025017
  78.5379987  76.7735006 143.6855017  79.4949987  76.7735006 143.6855017
  78.2979987  77.7005006 143.6855017  77.3019987  76.5355006 139.3905017
  78.2589987  76.5355006 139.3905017  77.0619987  77.4625006 139.3905017
  83.0379987  76.6925006 143.4775017  83.9949987  76.6925006 143.4775017
  82.7979987  77.6195006 143.4775017  88.6849987  76.7065006 145.1215017
  89.6419987  76.7065006 145.1215017  88.4449987  77.6335006 145.1215017
  89.9799987  76.7545006 140.7725017  90.9369987  76.7545006 140.7725017
  89.7399987  77.6815006 140.7725017  77.2729987  92.4925006 140.3715017
  78.2299987  92.4925006 140.3715017  77.0329987  93.4195006 140.3715017
  79.1529987  78.4775006 137.9555017  80.1099987  78.4775006 137.9555017
  78.9129987  79.4045006 137.9555017  84.1949987  78.7335006 140.3425017
  85.1519987  78.7335006 140.3425017  83.9549987  79.6605006 140.3425017
  86.0889987  93.8155006 138.7515017  87.0459987  93.8155006 138.7515017
  85.8489987  94.7425006 138.7515017  92.8229987  93.2965006 141.4815017
  93.7799987  93.2965006 141.4815017  92.5829987  94.2235006 141.4815017
  78.4379987  77.3045006 153.1515017  79.3949987  77.3045006 153.1515017
  78.1979987  78.2315006 153.1515017  80.4559987  76.6885006 154.7965017
  81.4129987  76.6885006 154.7965017  80.2159987  77.6155006 154.7965017
  79.1839987  93.5225006 137.4745017  80.1409987  93.5225006 137.4745017
  78.9439987  94.4495006 137.4745017  88.8339987  75.9915006 154.9345017
  89.7909987  75.9915006 154.9345017  88.5939987  76.9185006 154.9345017
  92.0489987  92.0245006 153.5805017  93.0059987  92.0245006 153.5805017
  91.8089987  92.9515006 153.5805017 106.4659987  85.8815006 143.5595017
 107.4229987  85.8815006 143.5595017 106.2259987  86.8085006 143.5595017
 105.2689987  85.1985006 147.0655017 106.2259987  85.1985006 147.0655017
 105.0289987  86.1255006 147.0655017  97.7079987  84.8265006 148.6095017
  98.6649987  84.8265006 148.6095017  97.4679987  85.7535006 148.6095017
  98.6349987  89.2765006 147.1325017  99.5919987  89.2765006 147.1325017
  98.3949987  90.2035006 147.1325017  95.2969987  82.8675006 142.5775017
  96.2539987  82.8675006 142.5775017  95.0569987  83.7945006 142.5775017
  95.9739987  85.0685006 144.7235017  96.9309987  85.0685006 144.7235017
  95.7339987  85.9955006 144.7235017 106.1719987  93.2275006 145.5525017
 107.1289987  93.2275006 145.5525017 105.9319987  94.1545006 145.5525017
 103.7009987  87.5675006 147.4905017 104.6579987  87.5675006 147.4905017
 103.4609987  88.4945006 147.4905017 106.2479987  82.0325006 147.8585017
 107.2049987  82.0325006 147.8585017 106.0079987  82.9595006 147.8585017
 100.0159987  80.1185006 145.0575017 100.9729987  80.1185006 145.0575017
  99.7759987  81.0455006 145.0575017 107.7219987  80.7005006 143.0195017
 108.6789987  80.7005006 143.0195017 107.4819987  81.6275006 143.0195017
  96.6569987  82.5445006 145.7995017  97.6139987  82.5445006 145.7995017
  96.4169987  83.4715006 145.7995017 101.7949987  84.0845006 145.0785017
 102.7519987  84.0845006 145.0785017 101.5549987  85.0115006 145.0785017
  98.9019987  79.0165006 149.1005017  99.8589987  79.0165006 149.1005017
  98.6619987  79.9435006 149.1005017 106.2309987  88.5185006 142.6345017
 107.1879987  88.5185006 142.6345017 105.9909987  89.4455006 142.6345017
 101.4369987  86.6665006 149.3565017 102.3939987  86.6665006 149.3565017
 101.1969987  87.5935006 149.3565017  98.4629987  80.8855006 147.1095017
  99.4199987  80.8855006 147.1095017  98.2229987  81.8125006 147.1095017
  99.8709987  88.6565006 150.1655017 100.8279987  88.6565006 150.1655017
  99.6309987  89.5835006 150.1655017  95.9599987  88.2855006 140.9905017
  96.9169987  88.2855006 140.9905017  95.7199987  89.2125006 140.9905017
 102.8609987  76.3425006 146.5555017 103.8179987  76.3425006 146.5555017
 102.6209987  77.2695006 146.5555017 107.5039987  91.5615006 143.8925017
 108.4609987  91.5615006 143.8925017 107.2639987  92.4885006 143.8925017
 105.1319987  85.1455006 141.0665017 106.0889987  85.1455006 141.0665017
 104.8919987  86.0725006 141.0665017 105.2199987  83.6915006 138.3325017
 106.1769987  83.6915006 138.3325017 104.9799987  84.6185006 138.3325017
 100.2209987  86.0285006 143.9055017 101.1779987  86.0285006 143.9055017
  99.9809987  86.9555006 143.9055017 101.5379987  89.4165006 146.5915017
 102.4949987  89.4165006 146.5915017 101.2979987  90.3435006 146.5915017
 100.5469987  84.7615006 147.5585017 101.5039987  84.7615006 147.5585017
 100.3069987  85.6885006 147.5585017 106.5349987  90.3465006 148.3105017
 107.4919987  90.3465006 148.3105017 106.2949987  91.2735006 148.3105017
 101.4849987  89.1845006 152.2625017 102.4419987  89.1845006 152.2625017
 101.2449987  90.1115006 152.2625017 107.4569987  84.5495006 139.6975017
 108.4139987  84.5495006 139.6975017 107.2169987  85.4765006 139.6975017
  98.4199987  85.3525006 151.4385017  99.3769987  85.3525006 151.4385017
  98.1799987  86.2795006 151.4385017 105.0779987  91.2655006 143.1415017
 106.0349987  91.2655006 143.1415017 104.8379987  92.1925006 143.1415017
  99.7239987  91.2705006 153.0115017 100.6809987  91.2705006 153.0115017
  99.4839987  92.1975006 153.0115017  99.1799987  85.0535006 141.5235017
 100.1369987  85.0535006 141.5235017  98.9399987  85.9805006 141.5235017
  95.2729987  87.4635006 150.3905017  96.2299987  87.4635006 150.3905017
  95.0329987  88.3905006 150.3905017  95.0319987  90.2035006 147.1945017
  95.9889987  90.2035006 147.1945017  94.7919987  91.1305006 147.1945017
 104.2419987  90.4395006 151.7615017 105.1989987  90.4395006 151.7615017
 104.0019987  91.3665006 151.7615017 104.6479987  94.1975006 141.5295017
 105.6049987  94.1975006 141.5295017 104.4079987  95.1245006 141.5295017
  98.3009987  93.0615006 143.3605017  99.2579987  93.0615006 143.3605017
  98.0609987  93.9885006 143.3605017 107.6979987  93.3895006 138.5275017
 108.6549987  93.3895006 138.5275017 107.4579987  94.3165006 138.5275017
 107.2649987  93.1625006 141.1525017 108.2219987  93.1625006 141.1525017
 107.0249987  94.0895006 141.1525017  97.5489987  88.7835006 151.3555017
  98.5059987  88.7835006 151.3555017  97.3089987  89.7105006 151.3555017
 100.2179987  77.2445006 147.3215017 101.1749987  77.2445006 147.3215017
  99.9779987  78.1715006 147.3215017 104.8969987  76.9195006 150.7015017
 105.8539987  76.9195006 150.7015017 104.6569987  77.8465006 150.7015017
 104.5329987  79.4985006 138.0575017 105.4899987  79.4985006 138.0575017
 104.2929987  80.4255006 138.0575017 100.3059987  82.2105006 148.5295017
 101.2629987  82.2105006 148.5295017 100.0659987  83.1375006 148.5295017
 100.2829987  82.3725006 143.4105017 101.2399987  82.3725006 143.4105017
 100.0429987  83.2995006 143.4105017 105.7839987  82.8425006 142.1635017
 106.7409987  82.8425006 142.1635017 105.5439987  83.7695006 142.1635017
 104.8979987  83.0755006 153.6745017 105.8549987  83.0755006 153.6745017
 104.6579987  84.0025006 153.6745017 106.7869987  82.3225006 145.0175017
 107.7439987  82.3225006 145.0175017 106.5469987  83.2495006 145.0175017
  97.9669987  82.4975006 150.2625017  98.9239987  82.4975006 150.2625017
  97.7269987  83.4245006 150.2625017 101.3899987  79.8875006 137.2805017
 102.3469987  79.8875006 137.2805017 101.1499987  80.8145006 137.2805017
  94.6739987  79.6075006 144.2295017  95.6309987  79.6075006 144.2295017
  94.4339987  80.5345006 144.2295017  95.8719987  80.3165006 139.5465017
  96.8289987  80.3165006 139.5465017  95.6319987  81.2435006 139.5465017
 106.0609987  83.9355006 149.6575017 107.0179987  83.9355006 149.6575017
 105.8209987  84.8625006 149.6575017 102.8469987  79.8745006 144.4295017
 103.8039987  79.8745006 144.4295017 102.6069987  80.8015006 144.4295017
  97.6749987  81.4645006 143.2865017  98.6319987  81.4645006 143.2865017
  97.4349987  82.3915006 143.2865017 101.3039987  81.5125006 140.9505017
 102.2609987  81.5125006 140.9505017 101.0639987  82.4395006 140.9505017
 106.5739987  79.6425006 147.3505017 107.5309987  79.6425006 147.3505017
 106.3339987  80.5695006 147.3505017  99.9599987  82.7055006 138.4985017
 100.9169987  82.7055006 138.4985017  99.7199987  83.6325006 138.4985017
  98.1379987  87.2535006 153.5675017  99.0949987  87.2535006 153.5675017
  97.8979987  88.1805006 153.5675017 104.0909987  82.6405006 146.2785017
 105.0479987  82.6405006 146.2785017 103.8509987  83.5675006 146.2785017
  99.1459987  78.7895006 142.7575017 100.1029987  78.7895006 142.7575017
  98.9059987  79.7165006 142.7575017 102.7539987  80.9815006 148.7435017
 103.7109987  80.9815006 148.7435017 102.5139987  81.9085006 148.7435017
 103.3609987  87.2135006 140.4215017 104.3179987  87.2135006 140.4215017
 103.1209987  88.1405006 140.4215017 107.1799987  80.0255006 138.6115017
 108.1369987  80.0255006 138.6115017 106.9399987  80.9525006 138.6115017
 104.8409987  87.4335006 151.6675017 105.7979987  87.4335006 151.6675017
 104.6009987  88.3605006 151.6675017   0.1179987  82.0385006 140.3365017
   1.0749987  82.0385006 140.3365017  -0.1220013  82.9655006 140.3365017
  98.4629987  86.5835006 146.2325017  99.4199987  86.5835006 146.2325017
  98.2229987  87.5105006 146.2325017 105.4619987  88.6625006 139.4515017
 106.4189987  88.6625006 139.4515017 105.2219987  89.5895006 139.4515017
  95.4559987  85.0065006 151.5015017  96.4129987  85.0065006 151.5015017
  95.2159987  85.9335006 151.5015017 102.4719987  84.5565006 153.6915017
 103.4289987  84.5565006 153.6915017 102.2319987  85.4835006 153.6915017
 107.1509987  89.9385006 151.6035017 108.1079987  89.9385006 151.6035017
 106.9109987  90.8655006 151.6035017 100.8369987  90.0485006 143.6175017
 101.7939987  90.0485006 143.6175017 100.5969987  90.9755006 143.6175017
  96.6079987  84.8945006 138.1515017  97.5649987  84.8945006 138.1515017
  96.3679987  85.8215006 138.1515017 102.2549987  87.7155006 143.1405017
 103.2119987  87.7155006 143.1405017 102.0149987  88.6425006 143.1405017
 102.6959987  91.9055006 149.5535017 103.6529987  91.9055006 149.5535017
 102.4559987  92.8325006 149.5535017 100.9329987  92.7165006 142.6955017
 101.8899987  92.7165006 142.6955017 100.6929987  93.6435006 142.6955017
 106.2749987  87.8995006 149.1915017 107.2319987  87.8995006 149.1915017
 106.0349987  88.8265006 149.1915017  97.1099987  79.7395006 151.0505017
  98.0669987  79.7395006 151.0505017  96.8699987  80.6665006 151.0505017
  96.7289987  91.5365006 149.4815017  97.6859987  91.5365006 149.4815017
  96.4889987  92.4635006 149.4815017 102.7559987  90.0315006 136.7875017
 103.7129987  90.0315006 136.7875017 102.5159987  90.9585006 136.7875017
 101.4969987  89.5795006 139.1825017 102.4539987  89.5795006 139.1825017
 101.2569987  90.5065006 139.1825017  97.9829987  86.8335006 139.6375017
  98.9399987  86.8335006 139.6375017  97.7429987  87.7605006 139.6375017
 105.8289987  79.5055006 150.0395017 106.7859987  79.5055006 150.0395017
 105.5889987  80.4325006 150.0395017 106.3249987  79.3475006 141.0575017
 107.2819987  79.3475006 141.0575017 106.0849987  80.2745006 141.0575017
 104.2839987  91.2475006 139.9555017 105.2409987  91.2475006 139.9555017
 104.0439987  92.1745006 139.9555017 103.7869987  80.8715006 141.8995017
 104.7439987  80.8715006 141.8995017 103.5469987  81.7985006 141.8995017
 104.3359987  81.8105006 151.1125017 105.2929987  81.8105006 151.1125017
 104.0959987  82.7375006 151.1125017 104.6999987  77.9045006 142.8055017
 105.6569987  77.9045006 142.8055017 104.4599987  78.8315006 142.8055017
 101.6199987  92.2825006 139.9195017 102.5769987  92.2825006 139.9195017
 101.3799987  93.2095006 139.9195017 100.3079987  78.9875006 139.5355017
 101.2649987  78.9875006 139.5355017 100.0679987  79.9145006 139.5355017
  98.6009987  89.3935006 138.5985017  99.5579987  89.3935006 138.5985017
  98.3609987  90.3205006 138.5985017  96.9229987  82.0975006 137.7135017
  97.8799987  82.0975006 137.7135017  96.6829987  83.0245006 137.7135017
  97.7249987  76.8955006 146.4175017  98.6819987  76.8955006 146.4175017
  97.4849987  77.8225006 146.4175017  96.6709987  90.8075006 142.5475017
  97.6279987  90.8075006 142.5475017  96.4309987  91.7345006 142.5475017
  95.9009987  93.4675006 153.8625017  96.8579987  93.4675006 153.8625017
  95.6609987  94.3945006 153.8625017 100.5669987  92.4065006 155.4555017
 101.5239987  92.4065006 155.4555017 100.3269987  93.3335006 155.4555017
 104.8619987  91.5055006 137.3635017 105.8189987  91.5055006 137.3635017
 104.6219987  92.4325006 137.3635017 107.1339987  90.7675006 154.2115017
 108.0909987  90.7675006 154.2115017 106.8939987  91.6945006 154.2115017
  95.8149987  87.2475006 154.8515017  96.7719987  87.2475006 154.8515017
  95.5749987  88.1745006 154.8515017 100.3039987  87.6115006 137.0475017
 101.2609987  87.6115006 137.0475017 100.0639987  88.5385006 137.0475017
 102.4989987  87.2245006 154.2545017 103.4559987  87.2245006 154.2545017
 102.2589987  88.1515006 154.2545017 105.5619987  88.6515006 136.6575017
 106.5189987  88.6515006 136.6575017 105.3219987  89.5785006 136.6575017
  96.7069987  84.4665006 154.2385017  97.6639987  84.4665006 154.2385017
  96.4669987  85.3935006 154.2385017 101.3459987  85.5935006 139.2725017
 102.3029987  85.5935006 139.2725017 101.1059987  86.5205006 139.2725017
 100.6179987  83.4225006 151.6035017 101.5749987  83.4225006 151.6035017
 100.3779987  84.3495006 151.6035017 102.4529987  83.5005006 137.7995017
 103.4099987  83.5005006 137.7995017 102.2129987  84.4275006 137.7995017
 105.6749987  85.9655006 154.9525017 106.6319987  85.9655006 154.9525017
 105.4349987  86.8925006 154.9525017 101.0099987  80.7965006 152.6725017
 101.9669987  80.7965006 152.6725017 100.7699987  81.7235006 152.6725017
 101.3999987  79.1745006 150.2085017 102.3569987  79.1745006 150.2085017
 101.1599987  80.1015006 150.2085017 102.9779987  84.6415006 150.4515017
 103.9349987  84.6415006 150.4515017 102.7379987  85.5685006 150.4515017
 107.3909987  82.4395006 155.5305017 108.3479987  82.4395006 155.5305017
 107.1509987  83.3665006 155.5305017  99.4639987  82.0385006 154.5905017
 100.4209987  82.0385006 154.5905017  99.2239987  82.9655006 154.5905017
 102.2149987  76.6175006 150.6095017 103.1719987  76.6175006 150.6095017
 101.9749987  77.5445006 150.6095017 103.4749987  80.9485006 154.2105017
 104.4319987  80.9485006 154.2105017 103.2349987  81.8755006 154.2105017
 106.1379987  80.0485006 153.2655017 107.0949987  80.0485006 153.2655017
 105.8979987  80.9755006 153.2655017 107.7699987  78.7465006 155.1995017
 108.7269987  78.7465006 155.1995017 107.5299987  79.6735006 155.1995017
  97.5659987  79.9645006 154.3185017  98.5229987  79.9645006 154.3185017
  97.3259987  80.8915006 154.3185017 102.4219987  75.9855006 153.2995017
 103.3789987  75.9855006 153.2995017 102.1819987  76.9125006 153.2995017
 102.7809987  77.6115006 155.3875017 103.7379987  77.6115006 155.3875017
 102.5409987  78.5385006 155.3875017 102.2669987  94.5355006 138.5745017
 103.2239987  94.5355006 138.5745017 102.0269987  95.4625006 138.5745017
  95.8189987  89.0555006 138.1265017  96.7759987  89.0555006 138.1265017
  95.5789987  89.9825006 138.1265017  94.5799987  94.5005006 143.0325017
  95.5369987  94.5005006 143.0325017  94.3399987  95.4275006 143.0325017
  95.4079987  92.6175006 144.8845017  96.3649987  92.6175006 144.8845017
  95.1679987  93.5445006 144.8845017  95.4629987  85.6945006 147.3765017
  96.4199987  85.6945006 147.3765017  95.2229987  86.6215006 147.3765017
  95.0739987  80.9935006 153.5225017  96.0309987  80.9935006 153.5225017
  94.8339987  81.9205006 153.5225017  96.2949987  79.2795006 146.3975017
  97.2519987  79.2795006 146.3975017  96.0549987  80.2065006 146.3975017
  94.5849987  82.2755006 147.4515017  95.5419987  82.2755006 147.4515017
  94.3449987  83.2025006 147.4515017  94.9489987  78.5225006 141.5055017
  95.9059987  78.5225006 141.5055017  94.7089987  79.4495006 141.5055017
  94.8829987  77.2205006 149.8055017  95.8399987  77.2205006 149.8055017
  94.6429987  78.1475006 149.8055017  97.1069987  90.4065006 153.9665017
  98.0639987  90.4065006 153.9665017  96.8669987  91.3335006 153.9665017
 100.0269987  91.4185006 150.2625017 100.9839987  91.4185006 150.2625017
  99.7869987  92.3455006 150.2625017 104.3549987  92.8145006 153.1695017
 105.3119987  92.8145006 153.1695017 104.1149987  93.7415006 153.1695017
 106.6799987  94.1395006 152.4095017 107.6369987  94.1395006 152.4095017
 106.4399987  95.0665006 152.4095017  97.4599987  94.6815006 150.2725017
  98.4169987  94.6815006 150.2725017  97.2199987  95.6085006 150.2725017
  99.9289987  94.2775006 149.3555017 100.8859987  94.2775006 149.3555017
  99.6889987  95.2045006 149.3555017 104.5829987  94.1325006 148.4985017
 105.5399987  94.1325006 148.4985017 104.3429987  95.0595006 148.4985017
 106.9339987  93.0105006 149.4995017 107.8909987  93.0105006 149.4995017
 106.6939987  93.9375006 149.4995017  96.8789987  93.2975006 147.1805017
  97.8359987  93.2975006 147.1805017  96.6389987  94.2245006 147.1805017
  98.9709987  92.0095006 145.8335017  99.9279987  92.0095006 145.8335017
  98.7309987  92.9365006 145.8335017 101.5359987  92.4925006 146.7015017
 102.4929987  92.4925006 146.7015017 101.2959987  93.4195006 146.7015017
 104.9499987  78.1135006 145.7605017 105.9069987  78.1135006 145.7605017
 104.7099987  79.0405006 145.7605017  97.4029987  76.7705006 143.6865017
  98.3599987  76.7705006 143.6865017  97.1629987  77.6975006 143.6865017
  96.1499987  76.5315006 139.4125017  97.1069987  76.5315006 139.4125017
  95.9099987  77.4585006 139.4125017 101.8999987  76.6815006 143.4745017
 102.8569987  76.6815006 143.4745017 101.6599987  77.6085006 143.4745017
 107.4119987  76.6485006 145.2315017 108.3689987  76.6485006 145.2315017
 107.1719987  77.5755006 145.2315017  96.1279987  92.4935006 140.3715017
  97.0849987  92.4935006 140.3715017  95.8879987  93.4205006 140.3715017
  98.0139987  78.5155006 137.9425017  98.9709987  78.5155006 137.9425017
  97.7739987  79.4425006 137.9425017 103.0299987  78.7275006 140.3655017
 103.9869987  78.7275006 140.3655017 102.7899987  79.6545006 140.3655017
 104.9179987  93.8325006 138.7435017 105.8749987  93.8325006 138.7435017
 104.6779987  94.7595006 138.7435017  97.2929987  77.3105006 153.1515017
  98.2499987  77.3105006 153.1515017  97.0529987  78.2375006 153.1515017
  99.2959987  76.6795006 154.7625017 100.2529987  76.6795006 154.7625017
  99.0559987  77.6065006 154.7625017  98.0399987  93.5225006 137.4755017
  98.9969987  93.5225006 137.4755017  97.7999987  94.4495006 137.4755017
  -0.0900013  76.0465006 154.9505017   0.8669987  76.0465006 154.9505017
  -0.3300013  76.9735006 154.9505017  12.1659987 104.7885006 143.6165017
  13.1229987 104.7885006 143.6165017  11.9259987 105.7155006 143.6165017
  11.0549987 104.0335006 147.0655017  12.0119987 104.0335006 147.0655017
  10.8149987 104.9605006 147.0655017   3.4799987 103.6515006 148.5795017
   4.4369987 103.6515006 148.5795017   3.2399987 104.5785006 148.5795017
  14.6339987 106.7935006 145.2595017  15.5909987 106.7935006 145.2595017
  14.3939987 107.7205006 145.2595017   4.4569987 107.5815006 147.5355017
   5.4139987 107.5815006 147.5355017   4.2169987 108.5085006 147.5355017
   1.0549987 101.7945006 142.5515017   2.0119987 101.7945006 142.5515017
   0.8149987 102.7215006 142.5515017   1.6929987 103.9115006 144.7305017
   2.6499987 103.9115006 144.7305017   1.4529987 104.8385006 144.7305017
   9.4309987 106.4095006 147.5305017  10.3879987 106.4095006 147.5305017
   9.1909987 107.3365006 147.5305017  18.0679987  98.0695006 148.2665017
  19.0249987  98.0695006 148.2665017  17.8279987  98.9965006 148.2665017
  12.6129987 100.8905006 147.8245017  13.5699987 100.8905006 147.8245017
  12.3729987 101.8175006 147.8245017   5.7399987  98.9495006 145.0455017
   6.6969987  98.9495006 145.0455017   5.4999987  99.8765006 145.0455017
  13.4669987  99.0645006 143.4255017  14.4239987  99.0645006 143.4255017
  13.2269987  99.9915006 143.4255017   2.5409987 101.4305006 145.6905017
   3.4979987 101.4305006 145.6905017   2.3009987 102.3575006 145.6905017
   7.5189987 102.9495006 145.0825017   8.4759987 102.9495006 145.0825017
   7.2789987 103.8765006 145.0825017  18.5039987  99.5005006 150.5205017
  19.4609987  99.5005006 150.5205017  18.2639987 100.4275006 150.5205017
   4.6369987  97.8905006 149.1265017   5.5939987  97.8905006 149.1265017
   4.3969987  98.8175006 149.1265017  11.9649987 107.3795006 142.6445017
  12.9219987 107.3795006 142.6445017  11.7249987 108.3065006 142.6445017
   7.1499987 105.5355006 149.3605017   8.1069987 105.5355006 149.3605017
   6.9099987 106.4625006 149.3605017  15.2599987  98.3995006 145.4165017
  16.2169987  98.3995006 145.4165017  15.0199987  99.3265006 145.4165017
   4.2049987  99.7095006 147.1255017   5.1619987  99.7095006 147.1255017
   3.9649987 100.6365006 147.1255017   5.5879987 107.5415006 150.0815017
   6.5449987 107.5415006 150.0815017   5.3479987 108.4685006 150.0815017
   1.4789987 107.1045006 141.0745017   2.4359987 107.1045006 141.0745017
   1.2389987 108.0315006 141.0745017  15.6109987  97.0925006 149.1005017
  16.5679987  97.0925006 149.1005017  15.3709987  98.0195006 149.1005017
   8.4639987  95.3385006 146.5945017   9.4209987  95.3385006 146.5945017
   8.2239987  96.2655006 146.5945017  16.2949987 106.9455006 151.3035017
  17.2519987 106.9455006 151.3035017  16.0549987 107.8725006 151.3035017
  10.8889987 103.9995006 141.0805017  11.8459987 103.9995006 141.0805017
  10.6489987 104.9265006 141.0805017  10.9369987 102.5795006 138.3285017
  11.8939987 102.5795006 138.3285017  10.6969987 103.5065006 138.3285017
  18.2529987 103.4205006 149.3785017  19.2099987 103.4205006 149.3785017
  18.0129987 104.3475006 149.3785017  14.2809987 104.1895006 142.0095017
  15.2379987 104.1895006 142.0095017  14.0409987 105.1165006 142.0095017
  14.2469987 102.3845006 151.1055017  15.2039987 102.3845006 151.1055017
  14.0069987 103.3115006 151.1055017   5.9619987 104.8995006 143.9645017
   6.9189987 104.8995006 143.9645017   5.7219987 105.8265006 143.9645017
   6.2839987 103.6355006 147.5785017   7.2409987 103.6355006 147.5785017
   6.0439987 104.5625006 147.5785017   6.5929987   0.0175006 152.3615017
   7.5499987   0.0175006 152.3615017   6.3529987   0.9445006 152.3615017
  13.1729987 103.3835006 139.6695017  14.1299987 103.3835006 139.6695017
  12.9329987 104.3105006 139.6695017   4.1339987 104.2195006 151.4735017
   5.0909987 104.2195006 151.4735017   3.8939987 105.1465006 151.4735017
  16.9079987  95.1295006 139.4905017  17.8649987  95.1295006 139.4905017
  16.6679987  96.0565006 139.4905017   5.1429987 103.8615006 141.8015017
   6.0999987 103.8615006 141.8015017   4.9029987 104.7885006 141.8015017
   1.0579987 106.3085006 150.3695017   2.0149987 106.3085006 150.3695017
   0.8179987 107.2355006 150.3695017  16.1149987 101.2115006 153.3185017
  17.0719987 101.2115006 153.3185017  15.8749987 102.1385006 153.3185017
   3.2699987 107.6065006 151.3565017   4.2269987 107.6065006 151.3565017
   3.0299987 108.5335006 151.3565017   5.9469987  96.1055006 147.3135017
   6.9039987  96.1055006 147.3135017   5.7069987  97.0325006 147.3135017
  10.5819987  95.7645006 150.6655017  11.5389987  95.7645006 150.6655017
  10.3419987  96.6915006 150.6655017  13.9049987  99.6195006 151.5945017
  14.8619987  99.6195006 151.5945017  13.6649987 100.5465006 151.5945017
  14.7829987 104.5015006 137.8205017  15.7399987 104.5015006 137.8205017
  14.5429987 105.4285006 137.8205017  10.2389987  98.3445006 138.0115017
  11.1959987  98.3445006 138.0115017   9.9989987  99.2715006 138.0115017
   6.0449987 101.0695006 148.5285017   7.0019987 101.0695006 148.5285017
   5.8049987 101.9965006 148.5285017   5.9939987 101.1915006 143.4335017
   6.9509987 101.1915006 143.4335017   5.7539987 102.1185006 143.4335017
  11.5189987 101.6825006 142.1695017  12.4759987 101.6825006 142.1695017
  11.2789987 102.6095006 142.1695017  10.5899987 101.9125006 153.6415017
  11.5469987 101.9125006 153.6415017  10.3499987 102.8395006 153.6415017
  12.5529987 101.1795006 145.0315017  13.5099987 101.1795006 145.0315017
  12.3129987 102.1065006 145.0315017   3.7029987 101.3485006 150.2715017
   4.6599987 101.3485006 150.2715017   3.4629987 102.2755006 150.2715017
   7.1159987  98.6965006 137.2565017   8.0729987  98.6965006 137.2565017
   6.8759987  99.6235006 137.2565017   0.4449987  97.7515006 144.5365017
   1.4019987  97.7515006 144.5365017   0.2049987  98.6785006 144.5365017
   1.8079987  99.1745006 139.6915017   2.7649987  99.1745006 139.6915017
   1.5679987 100.1015006 139.6915017  11.7699987 102.7755006 149.6195017
  12.7269987 102.7755006 149.6195017  11.5299987 103.7025006 149.6195017
   8.5669987  98.7075006 144.4315017   9.5239987  98.7075006 144.4315017
   8.3269987  99.6345006 144.4315017   3.3709987 100.2665006 143.3055017
   4.3279987 100.2665006 143.3055017   3.1309987 101.1935006 143.3055017
   7.0299987 100.3475006 140.9485017   7.9869987 100.3475006 140.9485017
   6.7899987 101.2745006 140.9485017  12.9659987  97.9555006 147.6855017
  13.9229987  97.9555006 147.6855017  12.7259987  98.8825006 147.6855017
   5.7289987 101.5025006 138.5125017   6.6859987 101.5025006 138.5125017
   5.4889987 102.4295006 138.5125017   3.8499987 106.1645006 153.5715017
   4.8069987 106.1645006 153.5715017   3.6099987 107.0915006 153.5715017
   9.8559987 101.5055006 146.3265017  10.8129987 101.5055006 146.3265017
   9.6159987 102.4325006 146.3265017   4.8339987  97.6555006 142.7045017
   5.7909987  97.6555006 142.7045017   4.5939987  98.5825006 142.7045017
   8.4929987  99.8475006 148.7365017   9.4499987  99.8475006 148.7365017
   8.2529987 100.7745006 148.7365017   9.0839987 106.0995006 140.4115017
  10.0409987 106.0995006 140.4115017   8.8439987 107.0265006 140.4115017
  16.2399987 105.2635006 149.2165017  17.1969987 105.2635006 149.2165017
  15.9999987 106.1905006 149.2165017  12.9379987  98.8985006 138.5645017
  13.8949987  98.8985006 138.5645017  12.6979987  99.8255006 138.5645017
  10.5509987 106.2765006 151.6665017  11.5079987 106.2765006 151.6665017
  10.3109987 107.2035006 151.6665017  13.6469987 100.7665006 140.2805017
  14.6039987 100.7665006 140.2805017  13.4069987 101.6935006 140.2805017
   4.1569987 105.4165006 146.1685017   5.1139987 105.4165006 146.1685017
   3.9169987 106.3435006 146.1685017  11.1689987 107.5465006 139.4325017
  12.1259987 107.5465006 139.4325017  10.9289987 108.4735006 139.4325017
   1.1719987 103.8565006 151.5175017   2.1289987 103.8565006 151.5175017
   0.9319987 104.7835006 151.5175017   8.1859987 103.4085006 153.6995017
   9.1429987 103.4085006 153.6995017   7.9459987 104.3355006 153.6995017
  18.5669987 100.9455006 140.0475017  19.5239987 100.9455006 140.0475017
  18.3269987 101.8725006 140.0475017  18.5389987 106.7375006 152.8365017
  19.4959987 106.7375006 152.8365017  18.2989987 107.6645006 152.8365017
  14.0339987 104.5745006 147.5235017  14.9909987 104.5745006 147.5235017
  13.7939987 105.5015006 147.5235017   1.9199987 103.8025006 137.6445017
   2.8769987 103.8025006 137.6445017   1.6799987 104.7295006 137.6445017
   8.0099987 106.5095006 143.1405017   8.9669987 106.5095006 143.1405017
   7.7699987 107.4365006 143.1405017  11.9769987 106.8065006 149.1965017
  12.9339987 106.8065006 149.1965017  11.7369987 107.7335006 149.1965017
  14.2079987 107.7525006 138.2425017  15.1649987 107.7525006 138.2425017
  13.9679987 108.6795006 138.2425017   2.8069987  98.5955006 151.0565017
   3.7639987  98.5955006 151.0565017   2.5669987  99.5225006 151.0565017
  15.0759987 106.4055006 140.4985017  16.0329987 106.4055006 140.4985017
  14.8359987 107.3325006 140.4985017   3.7629987 106.8835006 139.7935017
   4.7199987 106.8835006 139.7935017   3.5229987 107.8105006 139.7935017
  11.5559987  98.3685006 149.9905017  12.5129987  98.3685006 149.9905017
  11.3159987  99.2955006 149.9905017  12.2959987  97.9755006 141.0845017
  13.2529987  97.9755006 141.0845017  12.0559987  98.9025006 141.0845017
   9.5299987  99.7025006 141.8975017  10.4869987  99.7025006 141.8975017
   9.2899987 100.6295006 141.8975017  10.0829987 100.7115006 151.0945017
  11.0399987 100.7115006 151.0945017   9.8429987 101.6385006 151.0945017
  10.4039987  96.7495006 142.8375017  11.3609987  96.7495006 142.8375017
  10.1639987  97.6765006 142.8375017   6.0119987  97.8295006 139.5755017
   6.9689987  97.8295006 139.5755017   5.7719987  98.7565006 139.5755017
  16.2849987  98.6025006 151.9535017  17.2419987  98.6025006 151.9535017
  16.0449987  99.5295006 151.9535017  14.8759987 102.3715006 145.9755017
  15.8329987 102.3715006 145.9755017  14.6359987 103.2985006 145.9755017
   2.5829987 100.9465006 137.8585017   3.5399987 100.9465006 137.8585017
   2.3429987 101.8735006 137.8585017   3.4829987  95.7415006 146.4305017
   4.4399987  95.7415006 146.4305017   3.2429987  96.6685006 146.4305017
   1.5449987 106.0765006 154.8055017   2.5019987 106.0765006 154.8055017
   1.3049987 107.0035006 154.8055017   6.0399987 106.4605006 137.0715017
   6.9969987 106.4605006 137.0715017   5.7999987 107.3875006 137.0715017
   8.2249987 106.0395006 154.2475017   9.1819987 106.0395006 154.2475017
   7.9849987 106.9665006 154.2475017  11.2439987 107.5015006 136.6605017
  12.2009987 107.5015006 136.6605017  11.0039987 108.4285006 136.6605017
  13.9049987 105.9585006 151.6825017  14.8619987 105.9585006 151.6825017
  13.6649987 106.8855006 151.6825017   2.3659987 103.3055006 154.2295017
   3.3229987 103.3055006 154.2295017   2.1259987 104.2325006 154.2295017
   7.0949987 104.4405006 139.2775017   8.0519987 104.4405006 139.2775017
   6.8549987 105.3675006 139.2775017   6.3369987 102.2785006 151.6045017
   7.2939987 102.2785006 151.6045017   6.0969987 103.2055006 151.6045017
   8.1909987 102.3515006 137.7895017   9.1479987 102.3515006 137.7895017
   7.9509987 103.2785006 137.7895017  11.3809987 104.8105006 154.8835017
  12.3379987 104.8105006 154.8835017  11.1409987 105.7375006 154.8835017
  17.5689987 105.1955006 137.2875017  18.5259987 105.1955006 137.2875017
  17.3289987 106.1225006 137.2875017   6.7339987  99.6525006 152.6725017
   7.6909987  99.6525006 152.6725017   6.4939987 100.5795006 152.6725017
   7.1319987  98.0295006 150.2065017   8.0889987  98.0295006 150.2065017
   6.8919987  98.9565006 150.2065017   8.6889987 103.5105006 150.4535017
   9.6459987 103.5105006 150.4535017   8.4489987 104.4375006 150.4535017
  13.0979987 101.2835006 155.4165017  14.0549987 101.2835006 155.4165017
  12.8579987 102.2105006 155.4165017  14.4369987 104.0755006 153.5795017
  15.3939987 104.0755006 153.5795017  14.1969987 105.0025006 153.5795017
   5.1759987 100.8925006 154.5855017   6.1329987 100.8925006 154.5855017
   4.9359987 101.8195006 154.5855017   7.9209987  95.4675006 150.5975017
   8.8779987  95.4675006 150.5975017   7.6809987  96.3945006 150.5975017
   9.1969987  99.7985006 154.2105017  10.1539987  99.7985006 154.2105017
   8.9569987 100.7255006 154.2105017  11.9129987  98.9315006 153.2845017
  12.8699987  98.9315006 153.2845017  11.6729987  99.8585006 153.2845017
  13.5099987  97.5625006 155.2265017  14.4669987  97.5625006 155.2265017
  13.2699987  98.4895006 155.2265017   3.3259987  98.8265006 154.3275017
   4.2829987  98.8265006 154.3275017   3.0859987  99.7535006 154.3275017
   8.1359987  94.8365006 153.3005017   9.0929987  94.8365006 153.3005017
   7.8959987  95.7635006 153.3005017   8.5029987  96.4695006 155.3915017
   9.4599987  96.4695006 155.3915017   8.2629987  97.3965006 155.3915017
   1.5829987 107.9195006 137.7025017   2.5399987 107.9195006 137.7025017
   1.3429987 108.8465006 137.7025017  16.6099987 107.5265006 155.4245017
  17.5669987 107.5265006 155.4245017  16.3699987 108.4535006 155.4245017
  17.9869987 105.8735006 140.9075017  18.9439987 105.8735006 140.9075017
  17.7469987 106.8005006 140.9075017  18.3689987 103.9675006 142.7655017
  19.3259987 103.9675006 142.7655017  18.1289987 104.8945006 142.7655017
  18.1079987 106.7135006 147.7185017  19.0649987 106.7135006 147.7185017
  17.8679987 107.6405006 147.7185017  18.6709987 103.7845006 139.1795017
  19.6279987 103.7845006 139.1795017  18.4309987 104.7115006 139.1795017
  17.1239987 100.9785006 137.9065017  18.0809987 100.9785006 137.9065017
  16.8839987 101.9055006 137.9065017  16.1849987 102.4605006 143.3285017
  17.1419987 102.4605006 143.3285017  15.9449987 103.3875006 143.3285017
   1.1749987 104.5165006 147.3575017   2.1319987 104.5165006 147.3575017
   0.9349987 105.4435006 147.3575017  17.0399987 104.4285006 153.0775017
  17.9969987 104.4285006 153.0775017  16.7999987 105.3555006 153.0775017
  18.7399987 102.2965006 153.2145017  19.6969987 102.2965006 153.2145017
  18.4999987 103.2235006 153.2145017  16.2049987  98.5425006 136.9715017
  17.1619987  98.5425006 136.9715017  15.9649987  99.4695006 136.9715017
  15.8439987 100.0565006 141.7885017  16.8009987 100.0565006 141.7885017
  15.6039987 100.9835006 141.7885017  16.4799987 100.5985006 147.2305017
  17.4369987 100.5985006 147.2305017  16.2399987 101.5255006 147.2305017
  16.5499987 101.3195006 150.0295017  17.5069987 101.3195006 150.0295017
  16.3099987 102.2465006 150.0295017   0.8799987  99.8085006 153.4435017
   1.8369987  99.8085006 153.4435017   0.6399987 100.7355006 153.4435017
  18.8139987  95.3585006 155.3585017  19.7709987  95.3585006 155.3585017
  18.5739987  96.2855006 155.3585017  16.5099987  97.3295006 141.8365017
  17.4669987  97.3295006 141.8365017  16.2699987  98.2565006 141.8365017
   2.1019987  98.1635006 146.3535017   3.0589987  98.1635006 146.3535017
   1.8619987  99.0905006 146.3535017   0.8909987 101.1005006 147.5865017
   1.8479987 101.1005006 147.5865017   0.6509987 102.0275006 147.5865017
  18.3429987  97.4935006 153.7125017  19.2999987  97.4935006 153.7125017
  18.1029987  98.4205006 153.7125017  18.4039987  97.3025006 138.5885017
  19.3609987  97.3025006 138.5885017  18.1639987  98.2295006 138.5885017
   0.9099987  97.3225006 141.4975017   1.8669987  97.3225006 141.4975017
   0.6699987  98.2495006 141.4975017 108.3259987  96.0565006 149.8355017
 109.2829987  96.0565006 149.8355017 108.0859987  96.9835006 149.8355017
  17.3559987  95.5675006 151.5495017  18.3129987  95.5675006 151.5495017
  17.1159987  96.4945006 151.5495017  10.7649987  96.9955006 145.8495017
  11.7219987  96.9955006 145.8495017  10.5249987  97.9225006 145.8495017
  15.8909987  95.0585006 145.9315017  16.8479987  95.0585006 145.9315017
  15.6509987  95.9855006 145.9315017  17.5719987  96.2685006 144.2355017
  18.5289987  96.2685006 144.2355017  17.3319987  97.1955006 144.2355017
   3.0119987  95.6195006 143.8525017   3.9689987  95.6195006 143.8525017
   2.7719987  96.5465006 143.8525017   2.0239987  95.4255006 139.5495017
   2.9809987  95.4255006 139.5495017   1.7839987  96.3525006 139.5495017
   7.6159987  95.5105006 143.4775017   8.5729987  95.5105006 143.4775017
   7.3759987  96.4375006 143.4775017  13.2429987  95.5855006 145.1135017
  14.1999987  95.5855006 145.1135017  13.0029987  96.5125006 145.1135017
  14.5849987  95.6055006 140.7475017  15.5419987  95.6055006 140.7475017
  14.3449987  96.5325006 140.7475017   3.7329987  97.2615006 138.0185017
   4.6899987  97.2615006 138.0185017   3.4929987  98.1885006 138.0185017
   8.7359987  97.5835006 140.3545017   9.6929987  97.5835006 140.3545017
   8.4959987  98.5105006 140.3545017   2.9949987  96.1635006 153.1445017
   3.9519987  96.1635006 153.1445017   2.7549987  97.0905006 153.1445017
   5.0119987  95.5425006 154.7605017   5.9689987  95.5425006 154.7605017
   4.7719987  96.4695006 154.7605017  13.4179987  94.8405006 154.9255017
  14.3749987  94.8405006 154.9255017  13.1779987  95.7675006 154.9255017
  31.0219987 104.7885006 143.6165017  31.9789987 104.7885006 143.6165017
  30.7819987 105.7155006 143.6165017  29.9109987 104.0335006 147.0655017
  30.8679987 104.0335006 147.0655017  29.6709987 104.9605006 147.0655017
  22.3039987 103.6705006 148.5825017  23.2609987 103.6705006 148.5825017
  22.0639987 104.5975006 148.5825017  33.4899987 106.7935006 145.2595017
  34.4469987 106.7935006 145.2595017  33.2499987 107.7205006 145.2595017
  23.3259987 107.5905006 147.5315017  24.2829987 107.5905006 147.5315017
  23.0859987 108.5175006 147.5315017  19.8519987 101.7045006 142.5945017
  20.8089987 101.7045006 142.5945017  19.6119987 102.6315006 142.5945017
  20.5499987 103.9405006 144.7305017  21.5069987 103.9405006 144.7305017
  20.3099987 104.8675006 144.7305017  28.2879987 106.4085006 147.5305017
  29.2449987 106.4085006 147.5305017  28.0479987 107.3355006 147.5305017
  36.9239987  98.0695006 148.2665017  37.8809987  98.0695006 148.2665017
  36.6839987  98.9965006 148.2665017  31.4689987 100.8885006 147.8235017
  32.4259987 100.8885006 147.8235017  31.2289987 101.8155006 147.8235017
  24.5929987  98.9745006 145.0575017  25.5499987  98.9745006 145.0575017
  24.3529987  99.9015006 145.0575017  32.3229987  99.0645006 143.4255017
  33.2799987  99.0645006 143.4255017  32.0829987  99.9915006 143.4255017
  21.2149987 101.3825006 145.7955017  22.1719987 101.3825006 145.7955017
  20.9749987 102.3095006 145.7955017  26.3759987 102.9505006 145.0815017
  27.3329987 102.9505006 145.0815017  26.1359987 103.8775006 145.0815017
  37.3589987  99.5005006 150.5345017  38.3159987  99.5005006 150.5345017
  37.1189987 100.4275006 150.5345017  23.4779987  97.8735006 149.1015017
  24.4349987  97.8735006 149.1015017  23.2379987  98.8005006 149.1015017
  30.8209987 107.3795006 142.6445017  31.7779987 107.3795006 142.6445017
  30.5809987 108.3065006 142.6445017  26.0049987 105.5355006 149.3585017
  26.9619987 105.5355006 149.3585017  25.7649987 106.4625006 149.3585017
  34.1179987  98.3995006 145.4185017  35.0749987  98.3995006 145.4185017
  33.8779987  99.3265006 145.4185017  23.0409987  99.7425006 147.1095017
  23.9979987  99.7425006 147.1095017  22.8009987 100.6695006 147.1095017
  24.4359987 107.5405006 150.0865017  25.3929987 107.5405006 150.0865017
  24.1959987 108.4675006 150.0865017  20.4909987 107.0695006 141.0275017
  21.4479987 107.0695006 141.0275017  20.2509987 107.9965006 141.0275017
  34.4659987  97.0915006 149.0995017  35.4229987  97.0915006 149.0995017
  34.2259987  98.0185006 149.0995017  27.4469987  95.2035006 146.5595017
  28.4039987  95.2035006 146.5595017  27.2069987  96.1305006 146.5595017
  35.1399987 106.9585006 151.2935017  36.0969987 106.9585006 151.2935017
  34.8999987 107.8855006 151.2935017  29.7429987 104.0015006 141.0815017
  30.6999987 104.0015006 141.0815017  29.5029987 104.9285006 141.0815017
  29.7929987 102.5795006 138.3275017  30.7499987 102.5795006 138.3275017
  29.5529987 103.5065006 138.3275017  37.1119987 103.4175006 149.3635017
  38.0689987 103.4175006 149.3635017  36.8719987 104.3445006 149.3635017
  33.1369987 104.1895006 142.0095017  34.0939987 104.1895006 142.0095017
  32.8969987 105.1165006 142.0095017  33.0959987 102.3785006 151.0955017
  34.0529987 102.3785006 151.0955017  32.8559987 103.3055006 151.0955017
  24.7759987 104.8665006 143.9065017  25.7329987 104.8665006 143.9065017
  24.5359987 105.7935006 143.9065017  25.1139987 103.6445006 147.5585017
  26.0709987 103.6445006 147.5585017  24.8739987 104.5715006 147.5585017
  25.4559987   0.0125006 152.3585017  26.4129987   0.0125006 152.3585017
  25.2159987   0.9395006 152.3585017  32.0289987 103.3825006 139.6705017
  32.9859987 103.3825006 139.6705017  31.7889987 104.3095006 139.6705017
  22.9909987 104.2165006 151.4655017  23.9479987 104.2165006 151.4655017
  22.7509987 105.1435006 151.4655017  35.7639987  95.1295006 139.4905017
  36.7209987  95.1295006 139.4905017  35.5239987  96.0565006 139.4905017
  23.7599987 103.9195006 141.5275017  24.7169987 103.9195006 141.5275017
  23.5199987 104.8465006 141.5275017  19.8049987 106.3135006 150.3835017
  20.7619987 106.3135006 150.3835017  19.5649987 107.2405006 150.3835017
  34.9859987 101.2335006 153.3615017  35.9429987 101.2335006 153.3615017
  34.7459987 102.1605006 153.3615017  22.1199987 107.5685006 151.3325017
  23.0769987 107.5685006 151.3325017  21.8799987 108.4955006 151.3325017
  24.7939987  96.0995006 147.3205017  25.7509987  96.0995006 147.3205017
  24.5539987  97.0265006 147.3205017  29.4389987  95.7905006 150.6855017
  30.3959987  95.7905006 150.6855017  29.1989987  96.7175006 150.6855017
  32.7409987  99.6085006 151.5735017  33.6979987  99.6085006 151.5735017
  32.5009987 100.5355006 151.5735017  33.6369987 104.5005006 137.8135017
  34.5939987 104.5005006 137.8135017  33.3969987 105.4275006 137.8135017
  29.0939987  98.3445006 138.0095017  30.0509987  98.3445006 138.0095017
  28.8539987  99.2715006 138.0095017  24.8949987 101.0745006 148.5285017
  25.8519987 101.0745006 148.5285017  24.6549987 102.0015006 148.5285017
  24.8579987 101.2295006 143.4105017  25.8149987 101.2295006 143.4105017
  24.6179987 102.1565006 143.4105017  30.3759987 101.6855006 142.1685017
  31.3329987 101.6855006 142.1685017  30.1359987 102.6125006 142.1685017
  29.4519987 101.9125006 153.6435017  30.4089987 101.9125006 153.6435017
  29.2119987 102.8395006 153.6435017  31.4089987 101.1795006 145.0305017
  32.3659987 101.1795006 145.0305017  31.1689987 102.1065006 145.0305017
  22.5449987 101.3525006 150.2625017  23.5019987 101.3525006 150.2625017
  22.3049987 102.2795006 150.2625017  25.9689987  98.6975006 137.2615017
  26.9259987  98.6975006 137.2615017  25.7289987  99.6245006 137.2615017
  19.1819987  98.4615006 144.2025017  20.1389987  98.4615006 144.2025017
  18.9419987  99.3885006 144.2025017  20.4439987  99.1655006 139.5495017
  21.4009987  99.1655006 139.5495017  20.2039987 100.0925006 139.5495017
  30.6249987 102.7755006 149.6185017  31.5819987 102.7755006 149.6185017
  30.3849987 103.7025006 149.6185017  27.4219987  98.7395006 144.4305017
  28.3789987  98.7395006 144.4305017  27.1819987  99.6665006 144.4305017
  22.2379987 100.3145006 143.2945017  23.1949987 100.3145006 143.2945017
  21.9979987 101.2415006 143.2945017  25.8769987 100.3675006 140.9485017
  26.8339987 100.3675006 140.9485017  25.6369987 101.2945006 140.9485017
  31.8269987  97.9765006 147.6825017  32.7839987  97.9765006 147.6825017
  31.5869987  98.9035006 147.6825017  24.5369987 101.5605006 138.4985017
  25.4939987 101.5605006 138.4985017  24.2969987 102.4875006 138.4985017
  22.7199987 106.1835006 153.5605017  23.6769987 106.1835006 153.5605017
  22.4799987 107.1105006 153.5605017  28.7099987 101.5055006 146.3265017
  29.6669987 101.5055006 146.3265017  28.4699987 102.4325006 146.3265017
  23.7209987  97.6525006 142.7605017  24.6779987  97.6525006 142.7605017
  23.4809987  98.5795006 142.7605017  27.3489987  99.8455006 148.7395017
  28.3059987  99.8455006 148.7395017  27.1089987 100.7725006 148.7395017
  27.9459987 106.1085006 140.4135017  28.9029987 106.1085006 140.4135017
  27.7059987 107.0355006 140.4135017  35.0969987 105.2615006 149.2155017
  36.0539987 105.2615006 149.2155017  34.8569987 106.1885006 149.2155017
  31.7939987  98.8985006 138.5645017  32.7509987  98.8985006 138.5645017
  31.5539987  99.8255006 138.5645017  29.4059987 106.2765006 151.6675017
  30.3629987 106.2765006 151.6675017  29.1659987 107.2035006 151.6675017
  32.5039987 100.7665006 140.2815017  33.4609987 100.7665006 140.2815017
  32.2639987 101.6935006 140.2815017  23.0109987 105.4115006 146.1715017
  23.9679987 105.4115006 146.1715017  22.7709987 106.3385006 146.1715017
  30.0249987 107.5465006 139.4325017  30.9819987 107.5465006 139.4325017
  29.7849987 108.4735006 139.4325017  20.0429987 103.8745006 151.4995017
  20.9999987 103.8745006 151.4995017  19.8029987 104.8015006 151.4995017
  27.0409987 103.4075006 153.6985017  27.9979987 103.4075006 153.6985017
  26.8009987 104.3345006 153.6985017  37.4229987 100.9445006 140.0475017
  38.3799987 100.9445006 140.0475017  37.1829987 101.8715006 140.0475017
  37.4049987 106.7715006 152.8365017  38.3619987 106.7715006 152.8365017
  37.1649987 107.6985006 152.8365017  32.8899987 104.5745006 147.5235017
  33.8469987 104.5745006 147.5235017  32.6499987 105.5015006 147.5235017
  21.1799987 103.7575006 138.1435017  22.1369987 103.7575006 138.1435017
  20.9399987 104.6845006 138.1435017  26.8679987 106.5075006 143.1425017
  27.8249987 106.5075006 143.1425017  26.6279987 107.4345006 143.1425017
  30.8339987 106.8075006 149.1965017  31.7909987 106.8075006 149.1965017
  30.5939987 107.7345006 149.1965017  33.0629987 107.7525006 138.2425017
  34.0199987 107.7525006 138.2425017  32.8229987 108.6795006 138.2425017
  21.6829987  98.5975006 151.0515017  22.6399987  98.5975006 151.0515017
  21.4429987  99.5245006 151.0515017  33.9359987 106.4045006 140.4975017
  34.8929987 106.4045006 140.4975017  33.6959987 107.3315006 140.4975017
  22.5609987 105.6955006 139.6575017  23.5179987 105.6955006 139.6575017
  22.3209987 106.6225006 139.6575017  30.4089987  98.3635006 149.9885017
  31.3659987  98.3635006 149.9885017  30.1689987  99.2905006 149.9885017
  31.1529987  97.9745006 141.0845017  32.1099987  97.9745006 141.0845017
  30.9129987  98.9015006 141.0845017  28.3839987  99.7045006 141.8975017
  29.3409987  99.7045006 141.8975017  28.1439987 100.6315006 141.8975017
  28.9379987 100.7115006 151.0945017  29.8949987 100.7115006 151.0945017
  28.6979987 101.6385006 151.0945017  29.2509987  96.7575006 142.8095017
  30.2079987  96.7575006 142.8095017  29.0109987  97.6845006 142.8095017
  24.8839987  97.8475006 139.5365017  25.8409987  97.8475006 139.5365017
  24.6439987  98.7745006 139.5365017  35.1309987  98.5875006 151.9435017
  36.0879987  98.5875006 151.9435017  34.8909987  99.5145006 151.9435017
  33.7319987 102.3715006 145.9755017  34.6889987 102.3715006 145.9755017
  33.4919987 103.2985006 145.9755017  21.4979987 100.9525006 137.7155017
  22.4549987 100.9525006 137.7155017  21.2579987 101.8795006 137.7155017
  22.2989987  95.7525006 146.4175017  23.2559987  95.7525006 146.4175017
  22.0589987  96.6795006 146.4175017  20.4119987 106.0605006 154.8035017
  21.3689987 106.0605006 154.8035017  20.1719987 106.9875006 154.8035017
  24.8889987 106.4575006 137.0695017  25.8459987 106.4575006 137.0695017
  24.6489987 107.3845006 137.0695017  27.0819987 106.0395006 154.2475017
  28.0389987 106.0395006 154.2475017  26.8419987 106.9665006 154.2475017
  30.1009987 107.5015006 136.6605017  31.0579987 107.5015006 136.6605017
  29.8609987 108.4285006 136.6605017  32.7469987 105.9655006 151.6615017
  33.7039987 105.9655006 151.6615017  32.5069987 106.8925006 151.6615017
  21.2339987 103.3325006 154.2445017  22.1909987 103.3325006 154.2445017
  20.9939987 104.2595006 154.2445017  25.9209987 104.4435006 139.2695017
  26.8779987 104.4435006 139.2695017  25.6809987 105.3705006 139.2695017
  25.1929987 102.2775006 151.6035017  26.1499987 102.2775006 151.6035017
  24.9529987 103.2045006 151.6035017  27.0399987 102.3505006 137.7925017
  27.9969987 102.3505006 137.7925017  26.7999987 103.2775006 137.7925017
  30.2439987 104.8095006 154.8825017  31.2009987 104.8095006 154.8825017
  30.0039987 105.7365006 154.8825017  36.4239987 105.1955006 137.2875017
  37.3809987 105.1955006 137.2875017  36.1839987 106.1225006 137.2875017
  25.5769987  99.6525006 152.6725017  26.5339987  99.6525006 152.6725017
  25.3369987 100.5795006 152.6725017  25.9869987  98.0295006 150.2045017
  26.9439987  98.0295006 150.2045017  25.7469987  98.9565006 150.2045017
  27.5449987 103.5105006 150.4525017  28.5019987 103.5105006 150.4525017
  27.3049987 104.4375006 150.4525017  31.9359987 101.2775006 155.4265017
  32.8929987 101.2775006 155.4265017  31.6959987 102.2045006 155.4265017
  33.2759987 104.0625006 153.5575017  34.2329987 104.0625006 153.5575017
  33.0359987 104.9895006 153.5575017  24.0419987 100.8845006 154.5925017
  24.9989987 100.8845006 154.5925017  23.8019987 101.8115006 154.5925017
  26.7809987  95.4685006 150.6115017  27.7379987  95.4685006 150.6115017
  26.5409987  96.3955006 150.6115017  28.0529987  99.7985006 154.2095017
  29.0099987  99.7985006 154.2095017  27.8129987 100.7255006 154.2095017
  30.7699987  98.9335006 153.2865017  31.7269987  98.9335006 153.2865017
  30.5299987  99.8605006 153.2865017  32.3619987  97.5645006 155.2245017
  33.3189987  97.5645006 155.2245017  32.1219987  98.4915006 155.2245017
  22.1399987  98.8205006 154.3185017  23.0969987  98.8205006 154.3185017
  21.8999987  99.7475006 154.3185017  26.9919987  94.8365006 153.3025017
  27.9489987  94.8365006 153.3025017  26.7519987  95.7635006 153.3025017
  27.3589987  96.4705006 155.3915017  28.3159987  96.4705006 155.3915017
  27.1189987  97.3975006 155.3915017  20.4379987 107.9025006 137.7495017
  21.3949987 107.9025006 137.7495017  20.1979987 108.8295006 137.7495017
  35.4509987 107.5685006 155.4115017  36.4079987 107.5685006 155.4115017
  35.2109987 108.4955006 155.4115017  36.8429987 105.8735006 140.9075017
  37.7999987 105.8735006 140.9075017  36.6029987 106.8005006 140.9075017
  37.2249987 103.9685006 142.7665017  38.1819987 103.9685006 142.7665017
  36.9849987 104.8955006 142.7665017  36.9639987 106.7145006 147.7185017
  37.9209987 106.7145006 147.7185017  36.7239987 107.6415006 147.7185017
  37.5259987 103.7845006 139.1795017  38.4829987 103.7845006 139.1795017
  37.2859987 104.7115006 139.1795017  35.9779987 100.9785006 137.9045017
  36.9349987 100.9785006 137.9045017  35.7379987 101.9055006 137.9045017
  35.0409987 102.4605006 143.3285017  35.9979987 102.4605006 143.3285017
  34.8009987 103.3875006 143.3285017  20.0309987 104.5355006 147.3675017
  20.9879987 104.5355006 147.3675017  19.7909987 105.4625006 147.3675017
  35.8869987 104.4515006 152.9825017  36.8439987 104.4515006 152.9825017
  35.6469987 105.3785006 152.9825017  37.3889987 102.3425006 153.6435017
  38.3459987 102.3425006 153.6435017  37.1489987 103.2695006 153.6435017
  35.0619987  98.5405006 136.9675017  36.0189987  98.5405006 136.9675017
  34.8219987  99.4675006 136.9675017  34.6999987 100.0565006 141.7885017
  35.6569987 100.0565006 141.7885017  34.4599987 100.9835006 141.7885017
  35.3369987 100.5965006 147.2255017  36.2939987 100.5965006 147.2255017
  35.0969987 101.5235006 147.2255017  35.4019987 101.3165006 150.0105017
  36.3589987 101.3165006 150.0105017  35.1619987 102.2435006 150.0105017
  19.6449987  99.8555006 153.5735017  20.6019987  99.8555006 153.5735017
  19.4049987 100.7825006 153.5735017  37.6279987  95.3665006 155.3245017
  38.5849987  95.3665006 155.3245017  37.3879987  96.2935006 155.3245017
  35.3659987  97.3295006 141.8365017  36.3229987  97.3295006 141.8365017
  35.1259987  98.2565006 141.8365017  20.8549987  98.1395006 146.3835017
  21.8119987  98.1395006 146.3835017  20.6149987  99.0665006 146.3835017
  19.1409987 101.1325006 147.4185017  20.0979987 101.1325006 147.4185017
  18.9009987 102.0595006 147.4185017  37.1859987  97.4665006 153.7055017
  38.1429987  97.4665006 153.7055017  36.9459987  98.3935006 153.7055017
  37.2599987  97.3025006 138.5885017  38.2169987  97.3025006 138.5885017
  37.0199987  98.2295006 138.5885017  19.5079987  97.3995006 141.5055017
  20.4649987  97.3995006 141.5055017  19.2679987  98.3265006 141.5055017
  19.4619987  96.0765006 149.8095017  20.4189987  96.0765006 149.8095017
  19.2219987  97.0035006 149.8095017  36.2169987  95.5695006 151.5495017
  37.1739987  95.5695006 151.5495017  35.9769987  96.4965006 151.5495017
  29.6089987  97.0015006 145.8445017  30.5659987  97.0015006 145.8445017
  29.3689987  97.9285006 145.8445017  34.7439987  95.0575006 145.9325017
  35.7009987  95.0575006 145.9325017  34.5039987  95.9845006 145.9325017
  36.4289987  96.2685006 144.2355017  37.3859987  96.2685006 144.2355017
  36.1889987  97.1955006 144.2355017  21.9699987  95.6295006 143.6855017
  22.9269987  95.6295006 143.6855017  21.7299987  96.5565006 143.6855017
  20.7339987  95.3925006 139.3915017  21.6909987  95.3925006 139.3915017
  20.4939987  96.3195006 139.3915017  26.4709987  95.5485006 143.4765017
  27.4279987  95.5485006 143.4765017  26.2309987  96.4755006 143.4765017
  32.1379987  95.5725006 145.1155017  33.0949987  95.5725006 145.1155017
  31.8979987  96.4995006 145.1155017  33.4409987  95.6055006 140.7485017
  34.3979987  95.6055006 140.7485017  33.2009987  96.5325006 140.7485017
  22.5849987  97.3335006 137.9555017  23.5419987  97.3335006 137.9555017
  22.3449987  98.2605006 137.9555017  27.6269987  97.5885006 140.3435017
  28.5839987  97.5885006 140.3435017  27.3869987  98.5155006 140.3435017
  21.8649987  96.1665006 153.1515017  22.8219987  96.1665006 153.1515017
  21.6249987  97.0935006 153.1515017  23.8699987  95.5365006 154.7645017
  24.8269987  95.5365006 154.7645017  23.6299987  96.4635006 154.7645017
  32.2629987  94.8455006 154.9215017  33.2199987  94.8455006 154.9215017
  32.0229987  95.7725006 154.9215017  49.8919987 104.7775006 143.6045017
  50.8489987 104.7775006 143.6045017  49.6519987 105.7045006 143.6045017
  48.7449987 104.0455006 147.0675017  49.7019987 104.0455006 147.0675017
  48.5049987 104.9725006 147.0675017  41.1399987 103.6675006 148.5975017
  42.0969987 103.6675006 148.5975017  40.8999987 104.5945006 148.5975017
  52.3459987 106.7935006 145.2595017  53.3029987 106.7935006 145.2595017
  52.1059987 107.7205006 145.2595017  42.2089987 107.5755006 147.5455017
  43.1659987 107.5755006 147.5455017  41.9689987 108.5025006 147.5455017
  38.7119987 101.7095006 142.5935017  39.6689987 101.7095006 142.5935017
  38.4719987 102.6365006 142.5935017  39.4079987 103.9415006 144.7315017
  40.3649987 103.9415006 144.7315017  39.1679987 104.8685006 144.7315017
  47.1679987 106.4165006 147.5135017  48.1249987 106.4165006 147.5135017
  46.9279987 107.3435006 147.5135017  55.7539987  98.0905006 148.2495017
  56.7109987  98.0905006 148.2495017  55.5139987  99.0175006 148.2495017
  50.3249987 100.8885006 147.8225017  51.2819987 100.8885006 147.8225017
  50.0849987 101.8155006 147.8225017  43.4489987  98.9745006 145.0575017
  44.4059987  98.9745006 145.0575017  43.2089987  99.9015006 145.0575017
  51.1789987  99.0645006 143.4255017  52.1359987  99.0645006 143.4255017
  50.9389987  99.9915006 143.4255017  40.0699987 101.3825006 145.7955017
  41.0269987 101.3825006 145.7955017  39.8299987 102.3095006 145.7955017
  45.2309987 102.9465006 145.0815017  46.1879987 102.9465006 145.0815017
  44.9909987 103.8735006 145.0815017  56.2259987  99.4995006 150.5195017
  57.1829987  99.4995006 150.5195017  55.9859987 100.4265006 150.5195017
  42.3339987  97.8715006 149.1025017  43.2909987  97.8715006 149.1025017
  42.0939987  98.7985006 149.1025017  49.6779987 107.3795006 142.6445017
  50.6349987 107.3795006 142.6445017  49.4379987 108.3065006 142.6445017
  44.8489987 105.5175006 149.3435017  45.8059987 105.5175006 149.3435017
  44.6089987 106.4445006 149.3435017  52.9739987  98.3985006 145.4185017
  53.9309987  98.3985006 145.4185017  52.7339987  99.3255006 145.4185017
  41.8969987  99.7435006 147.1095017  42.8539987  99.7435006 147.1095017
  41.6569987 100.6705006 147.1095017  43.3109987 107.5505006 150.0615017
  44.2679987 107.5505006 150.0615017  43.0709987 108.4775006 150.0615017
  39.3469987 107.0695006 141.0275017  40.3039987 107.0695006 141.0275017
  39.1069987 107.9965006 141.0275017  53.3069987  97.0895006 149.0835017
  54.2639987  97.0895006 149.0835017  53.0669987  98.0165006 149.0835017
  46.3029987  95.2035006 146.5595017  47.2599987  95.2035006 146.5595017
  46.0629987  96.1305006 146.5595017  53.9949987 106.9595006 151.2935017
  54.9519987 106.9595006 151.2935017  53.7549987 107.8865006 151.2935017
  48.5979987 104.0015006 141.0805017  49.5549987 104.0015006 141.0805017
  48.3579987 104.9285006 141.0805017  48.6479987 102.5785006 138.3285017
  49.6049987 102.5785006 138.3285017  48.4079987 103.5055006 138.3285017
  55.9689987 103.4185006 149.3645017  56.9259987 103.4185006 149.3645017
  55.7289987 104.3455006 149.3645017  51.9899987 104.1895006 142.0145017
  52.9469987 104.1895006 142.0145017  51.7499987 105.1165006 142.0145017
  51.9529987 102.3775006 151.0985017  52.9099987 102.3775006 151.0985017
  51.7129987 103.3045006 151.0985017  43.6389987 104.8705006 143.9145017
  44.5959987 104.8705006 143.9145017  43.3989987 105.7975006 143.9145017
  43.9689987 103.6485006 147.5565017  44.9259987 103.6485006 147.5565017
  43.7289987 104.5755006 147.5565017  44.2909987  -0.0074994 152.3645017
  45.2479987  -0.0074994 152.3645017  44.0509987   0.9195006 152.3645017
  50.8849987 103.3825006 139.6695017  51.8419987 103.3825006 139.6695017
  50.6449987 104.3095006 139.6695017  41.8649987 104.2435006 151.4335017
  42.8219987 104.2435006 151.4335017  41.6249987 105.1705006 151.4335017
  54.6199987  95.1295006 139.4905017  55.5769987  95.1295006 139.4905017
  54.3799987  96.0565006 139.4905017  42.6159987 103.9215006 141.5275017
  43.5729987 103.9215006 141.5275017  42.3759987 104.8485006 141.5275017
  38.6619987 106.3095006 150.3895017  39.6189987 106.3095006 150.3895017
  38.4219987 107.2365006 150.3895017  53.8369987 101.2405006 153.3595017
  54.7939987 101.2405006 153.3595017  53.5969987 102.1675006 153.3595017
  41.0019987 107.5625006 151.3215017  41.9589987 107.5625006 151.3215017
  40.7619987 108.4895006 151.3215017  43.6499987  96.0995006 147.3205017
  44.6069987  96.0995006 147.3205017  43.4099987  97.0265006 147.3205017
  48.2959987  95.7915006 150.6855017  49.2529987  95.7915006 150.6855017
  48.0559987  96.7185006 150.6855017  51.5949987  99.6045006 151.5645017
  52.5519987  99.6045006 151.5645017  51.3549987 100.5315006 151.5645017
  52.4949987 104.5015006 137.8205017  53.4519987 104.5015006 137.8205017
  52.2549987 105.4285006 137.8205017  47.9499987  98.3445006 138.0105017
  48.9069987  98.3445006 138.0105017  47.7099987  99.2715006 138.0105017
  43.7479987 101.0735006 148.5295017  44.7049987 101.0735006 148.5295017
  43.5079987 102.0005006 148.5295017  43.7139987 101.2295006 143.4105017
  44.6709987 101.2295006 143.4105017  43.4739987 102.1565006 143.4105017
  49.2319987 101.6855006 142.1685017  50.1889987 101.6855006 142.1685017
  48.9919987 102.6125006 142.1685017  48.3079987 101.9125006 153.6435017
  49.2649987 101.9125006 153.6435017  48.0679987 102.8395006 153.6435017
  50.2649987 101.1795006 145.0315017  51.2219987 101.1795006 145.0315017
  50.0249987 102.1065006 145.0315017  41.3939987 101.3545006 150.2675017
  42.3509987 101.3545006 150.2675017  41.1539987 102.2815006 150.2675017
  44.8249987  98.6975006 137.2615017  45.7819987  98.6975006 137.2615017
  44.5849987  99.6245006 137.2615017  38.0379987  98.4615006 144.2025017
  38.9949987  98.4615006 144.2025017  37.7979987  99.3885006 144.2025017
  39.2989987  99.1655006 139.5495017  40.2559987  99.1655006 139.5495017
  39.0589987 100.0925006 139.5495017  49.4809987 102.7755006 149.6185017
  50.4379987 102.7755006 149.6185017  49.2409987 103.7025006 149.6185017
  46.2779987  98.7395006 144.4305017  47.2349987  98.7395006 144.4305017
  46.0379987  99.6665006 144.4305017  41.0939987 100.3145006 143.2945017
  42.0509987 100.3145006 143.2945017  40.8539987 101.2415006 143.2945017
  44.7339987 100.3675006 140.9485017  45.6909987 100.3675006 140.9485017
  44.4939987 101.2945006 140.9485017  50.6839987  97.9745006 147.6825017
  51.6409987  97.9745006 147.6825017  50.4439987  98.9015006 147.6825017
  43.3929987 101.5605006 138.4985017  44.3499987 101.5605006 138.4985017
  43.1529987 102.4875006 138.4985017  41.5809987 106.2105006 153.5545017
  42.5379987 106.2105006 153.5545017  41.3409987 107.1375006 153.5545017
  47.5669987 101.5055006 146.3275017  48.5239987 101.5055006 146.3275017
  47.3269987 102.4325006 146.3275017  42.5769987  97.6525006 142.7605017
  43.5339987  97.6525006 142.7605017  42.3369987  98.5795006 142.7605017
  46.2049987  99.8455006 148.7395017  47.1619987  99.8455006 148.7395017
  45.9649987 100.7725006 148.7395017  46.8009987 106.1085006 140.4145017
  47.7579987 106.1085006 140.4145017  46.5609987 107.0355006 140.4145017
  53.9529987 105.2615006 149.2155017  54.9099987 105.2615006 149.2155017
  53.7129987 106.1885006 149.2155017  50.6499987  98.8985006 138.5645017
  51.6069987  98.8985006 138.5645017  50.4099987  99.8255006 138.5645017
  48.2169987 106.2775006 151.6465017  49.1739987 106.2775006 151.6465017
  47.9769987 107.2045006 151.6465017  51.3589987 100.7665006 140.2805017
  52.3159987 100.7665006 140.2805017  51.1189987 101.6935006 140.2805017
  41.8889987 105.4225006 146.1895017  42.8459987 105.4225006 146.1895017
  41.6489987 106.3495006 146.1895017  48.8809987 107.5465006 139.4325017
  49.8379987 107.5465006 139.4325017  48.6409987 108.4735006 139.4325017
  38.8969987 103.8485006 151.5125017  39.8539987 103.8485006 151.5125017
  38.6569987 104.7755006 151.5125017  45.8969987 103.4075006 153.6995017
  46.8539987 103.4075006 153.6995017  45.6569987 104.3345006 153.6995017
  56.2789987 100.9445006 140.0475017  57.2359987 100.9445006 140.0475017
  56.0389987 101.8715006 140.0475017  56.2609987 106.7705006 152.8365017
  57.2179987 106.7705006 152.8365017  56.0209987 107.6975006 152.8365017
  51.7459987 104.5745006 147.5235017  52.7029987 104.5745006 147.5235017
  51.5059987 105.5015006 147.5235017  40.0369987 103.7575006 138.1435017
  40.9939987 103.7575006 138.1435017  39.7969987 104.6845006 138.1435017
  45.7319987 106.5115006 143.1725017  46.6889987 106.5115006 143.1725017
  45.4919987 107.4385006 143.1725017  49.6429987 106.7875006 149.1805017
  50.5999987 106.7875006 149.1805017  49.4029987 107.7145006 149.1805017
  51.9199987 107.7525006 138.2425017  52.8769987 107.7525006 138.2425017
  51.6799987 108.6795006 138.2425017  40.5379987  98.5865006 151.0345017
  41.4949987  98.5865006 151.0345017  40.2979987  99.5135006 151.0345017
  52.7909987 106.4045006 140.4975017  53.7479987 106.4045006 140.4975017
  52.5509987 107.3315006 140.4975017  41.4169987 105.6955006 139.6575017
  42.3739987 105.6955006 139.6575017  41.1769987 106.6225006 139.6575017
  49.2639987  98.3635006 149.9885017  50.2209987  98.3635006 149.9885017
  49.0239987  99.2905006 149.9885017  50.0089987  97.9745006 141.0845017
  50.9659987  97.9745006 141.0845017  49.7689987  98.9015006 141.0845017
  47.2399987  99.7055006 141.8975017  48.1969987  99.7055006 141.8975017
  46.9999987 100.6325006 141.8975017  47.7949987 100.7115006 151.0945017
  48.7519987 100.7115006 151.0945017  47.5549987 101.6385006 151.0945017
  48.1069987  96.7575006 142.8095017  49.0639987  96.7575006 142.8095017
  47.8669987  97.6845006 142.8095017  43.7399987  97.8475006 139.5365017
  44.6969987  97.8475006 139.5365017  43.4999987  98.7745006 139.5365017
  53.9839987  98.6005006 151.9435017  54.9409987  98.6005006 151.9435017
  53.7439987  99.5275006 151.9435017  52.5869987 102.3725006 145.9745017
  53.5439987 102.3725006 145.9745017  52.3469987 103.2995006 145.9745017
  40.3549987 100.9525006 137.7155017  41.3119987 100.9525006 137.7155017
  40.1149987 101.8795006 137.7155017  41.1549987  95.7525006 146.4175017
  42.1119987  95.7525006 146.4175017  40.9149987  96.6795006 146.4175017
  39.2889987 106.0785006 154.7825017  40.2459987 106.0785006 154.7825017
  39.0489987 107.0055006 154.7825017  43.7449987 106.4575006 137.0695017
  44.7019987 106.4575006 137.0695017  43.5049987 107.3845006 137.0695017
  45.9439987 106.0385006 154.2565017  46.9009987 106.0385006 154.2565017
  45.7039987 106.9655006 154.2565017  48.9559987 107.5015006 136.6605017
  49.9129987 107.5015006 136.6605017  48.7159987 108.4285006 136.6605017
  51.6039987 105.9665006 151.6615017  52.5609987 105.9665006 151.6615017
  51.3639987 106.8935006 151.6615017  40.1249987 103.3825006 154.2065017
  41.0819987 103.3825006 154.2065017  39.8849987 104.3095006 154.2065017
  44.7769987 104.4435006 139.2705017  45.7339987 104.4435006 139.2705017
  44.5369987 105.3705006 139.2705017  44.0509987 102.2735006 151.6045017
  45.0079987 102.2735006 151.6045017  43.8109987 103.2005006 151.6045017
  45.8959987 102.3505006 137.7925017  46.8529987 102.3505006 137.7925017
  45.6559987 103.2775006 137.7925017  49.0999987 104.8085006 154.8815017
  50.0569987 104.8085006 154.8815017  48.8599987 105.7355006 154.8815017
  55.2809987 105.1955006 137.2885017  56.2379987 105.1955006 137.2885017
  55.0409987 106.1225006 137.2885017  44.4639987  99.6525006 152.6655017
  45.4209987  99.6525006 152.6655017  44.2239987 100.5795006 152.6655017
  44.8439987  98.0285006 150.2035017  45.8009987  98.0285006 150.2035017
  44.6039987  98.9555006 150.2035017  46.3989987 103.5105006 150.4505017
  47.3559987 103.5105006 150.4505017  46.1589987 104.4375006 150.4505017
  50.7909987 101.2765006 155.4145017  51.7479987 101.2765006 155.4145017
  50.5509987 102.2035006 155.4145017  52.1299987 104.0715006 153.5625017
  53.0869987 104.0715006 153.5625017  51.8899987 104.9985006 153.5625017
  42.9149987 100.8935006 154.5855017  43.8719987 100.8935006 154.5855017
  42.6749987 101.8205006 154.5855017  45.6379987  95.4695006 150.6085017
  46.5949987  95.4695006 150.6085017  45.3979987  96.3965006 150.6085017
  46.9089987  99.7985006 154.2115017  47.8659987  99.7985006 154.2115017
  46.6689987 100.7255006 154.2115017  49.6259987  98.9315006 153.2875017
  50.5829987  98.9315006 153.2875017  49.3859987  99.8585006 153.2875017
  51.2209987  97.5655006 155.2225017  52.1779987  97.5655006 155.2225017
  50.9809987  98.4925006 155.2225017  41.2909987  98.7825006 153.9915017
  42.2479987  98.7825006 153.9915017  41.0509987  99.7095006 153.9915017
  45.8589987  94.8335006 153.2955017  46.8159987  94.8335006 153.2955017
  45.6189987  95.7605006 153.2955017  46.2129987  96.4725006 155.3905017
  47.1699987  96.4725006 155.3905017  45.9729987  97.3995006 155.3905017
  39.2939987 107.9035006 137.7485017  40.2509987 107.9035006 137.7485017
  39.0539987 108.8305006 137.7485017  54.3059987 107.5675006 155.4115017
  55.2629987 107.5675006 155.4115017  54.0659987 108.4945006 155.4115017
  55.6989987 105.8735006 140.9075017  56.6559987 105.8735006 140.9075017
  55.4589987 106.8005006 140.9075017  56.0819987 103.9645006 142.7645017
  57.0389987 103.9645006 142.7645017  55.8419987 104.8915006 142.7645017
  55.8199987 106.7145006 147.7185017  56.7769987 106.7145006 147.7185017
  55.5799987 107.6415006 147.7185017  56.3829987 103.7845006 139.1795017
  57.3399987 103.7845006 139.1795017  56.1429987 104.7115006 139.1795017
  54.8359987 100.9785006 137.9065017  55.7929987 100.9785006 137.9065017
  54.5959987 101.9055006 137.9065017  53.8969987 102.4595006 143.3275017
  54.8539987 102.4595006 143.3275017  53.6569987 103.3865006 143.3275017
  38.8869987 104.5365006 147.3665017  39.8439987 104.5365006 147.3665017
  38.6469987 105.4635006 147.3665017  54.7399987 104.4545006 152.9805017
  55.6969987 104.4545006 152.9805017  54.4999987 105.3815006 152.9805017
  56.2489987 102.3375006 153.6665017  57.2059987 102.3375006 153.6665017
  56.0089987 103.2645006 153.6665017  53.9169987  98.5415006 136.9705017
  54.8739987  98.5415006 136.9705017  53.6769987  99.4685006 136.9705017
  53.5559987 100.0565006 141.7885017  54.5129987 100.0565006 141.7885017
  53.3159987 100.9835006 141.7885017  54.1889987 100.6075006 147.2215017
  55.1459987 100.6075006 147.2215017  53.9489987 101.5345006 147.2215017
  54.2559987 101.3205006 150.0105017  55.2129987 101.3205006 150.0105017
  54.0159987 102.2475006 150.0105017  38.5109987  99.8265006 153.4565017
  39.4679987  99.8265006 153.4565017  38.2709987 100.7535006 153.4565017
  56.5249987  95.3525006 155.3805017  57.4819987  95.3525006 155.3805017
  56.2849987  96.2795006 155.3805017  54.2219987  97.3295006 141.8365017
  55.1789987  97.3295006 141.8365017  53.9819987  98.2565006 141.8365017
  39.7109987  98.1395006 146.3825017  40.6679987  98.1395006 146.3825017
  39.4709987  99.0665006 146.3825017  37.9999987 101.1295006 147.4325017
  38.9569987 101.1295006 147.4325017  37.7599987 102.0565006 147.4325017
  56.0289987  97.5465006 153.7405017  56.9859987  97.5465006 153.7405017
  55.7889987  98.4735006 153.7405017  56.1159987  97.3025006 138.5885017
  57.0729987  97.3025006 138.5885017  55.8759987  98.2295006 138.5885017
  38.3639987  97.3995006 141.5055017  39.3209987  97.3995006 141.5055017
  38.1239987  98.3265006 141.5055017  38.3169987  96.0745006 149.8085017
  39.2739987  96.0745006 149.8085017  38.0769987  97.0015006 149.8085017
  54.8809987  95.5585006 151.5505017  55.8379987  95.5585006 151.5505017
  54.6409987  96.4855006 151.5505017  48.4649987  97.0015006 145.8445017
  49.4219987  97.0015006 145.8445017  48.2249987  97.9285006 145.8445017
  53.6019987  95.0515006 145.9375017  54.5589987  95.0515006 145.9375017
  53.3619987  95.9785006 145.9375017  55.2839987  96.2685006 144.2355017
  56.2409987  96.2685006 144.2355017  55.0439987  97.1955006 144.2355017
  40.8259987  95.6295006 143.6855017  41.7829987  95.6295006 143.6855017
  40.5859987  96.5565006 143.6855017  39.5899987  95.3925006 139.3915017
  40.5469987  95.3925006 139.3915017  39.3499987  96.3195006 139.3915017
  45.3269987  95.5485006 143.4765017  46.2839987  95.5485006 143.4765017
  45.0869987  96.4755006 143.4765017  50.9939987  95.5725006 145.1165017
  51.9509987  95.5725006 145.1165017  50.7539987  96.4995006 145.1165017
  52.2969987  95.6055006 140.7485017  53.2539987  95.6055006 140.7485017
  52.0569987  96.5325006 140.7485017  41.4409987  97.3335006 137.9555017
  42.3979987  97.3335006 137.9555017  41.2009987  98.2605006 137.9555017
  46.4829987  97.5885006 140.3435017  47.4399987  97.5885006 140.3435017
  46.2429987  98.5155006 140.3435017  40.7309987  96.1535006 153.1315017
  41.6879987  96.1535006 153.1315017  40.4909987  97.0805006 153.1315017
  42.7319987  95.5235006 154.7315017  43.6889987  95.5235006 154.7315017
  42.4919987  96.4505006 154.7315017  51.1379987  94.8315006 154.9175017
  52.0949987  94.8315006 154.9175017  50.8979987  95.7585006 154.9175017
  68.6939987 104.7905006 143.6465017  69.6509987 104.7905006 143.6465017
  68.4539987 105.7175006 143.6465017  67.6109987 104.0365006 147.0435017
  68.5679987 104.0365006 147.0435017  67.3709987 104.9635006 147.0435017
  60.0049987 103.6715006 148.5945017  60.9619987 103.6715006 148.5945017
  59.7649987 104.5985006 148.5945017  71.2009987 106.7945006 145.2605017
  72.1579987 106.7945006 145.2605017  70.9609987 107.7215006 145.2605017
  61.0379987 107.5905006 147.5315017  61.9949987 107.5905006 147.5315017
  60.7979987 108.5175006 147.5315017  57.5729987 101.7145006 142.5915017
  58.5299987 101.7145006 142.5915017  57.3329987 102.6415006 142.5915017
  58.2629987 103.9425006 144.7315017  59.2199987 103.9425006 144.7315017
  58.0229987 104.8695006 144.7315017  66.0039987 106.4135006 147.5105017
  66.9609987 106.4135006 147.5105017  65.7639987 107.3405006 147.5105017
  74.6359987  98.0685006 148.2665017  75.5929987  98.0685006 148.2665017
  74.3959987  98.9955006 148.2665017  69.1809987 100.8885006 147.8225017
  70.1379987 100.8885006 147.8225017  68.9409987 101.8155006 147.8225017
  62.3059987  98.9745006 145.0575017  63.2629987  98.9745006 145.0575017
  62.0659987  99.9015006 145.0575017  70.0349987  99.0655006 143.4275017
  70.9919987  99.0655006 143.4275017  69.7949987  99.9925006 143.4275017
  58.9259987 101.3825006 145.7955017  59.8829987 101.3825006 145.7955017
  58.6859987 102.3095006 145.7955017  64.1319987 102.9545006 145.0415017
  65.0889987 102.9545006 145.0415017  63.8919987 103.8815006 145.0415017
  75.0709987  99.5015006 150.5265017  76.0279987  99.5015006 150.5265017
  74.8309987 100.4285006 150.5265017  61.2029987  97.8865006 149.0965017
  62.1599987  97.8865006 149.0965017  60.9629987  98.8135006 149.0965017
  68.4789987 107.3475006 142.6525017  69.4359987 107.3475006 142.6525017
  68.2389987 108.2745006 142.6525017  63.7179987 105.5345006 149.3585017
  64.6749987 105.5345006 149.3585017  63.4779987 106.4615006 149.3585017
  71.8299987  98.3995006 145.4195017  72.7869987  98.3995006 145.4195017
  71.5899987  99.3265006 145.4195017  60.7519987  99.7435006 147.1085017
  61.7089987  99.7435006 147.1085017  60.5119987 100.6705006 147.1085017
  62.1489987 107.5405006 150.0865017  63.1059987 107.5405006 150.0865017
  61.9089987 108.4675006 150.0865017  58.2029987 107.0695006 141.0275017
  59.1599987 107.0695006 141.0275017  57.9629987 107.9965006 141.0275017
  72.1779987  97.0925006 149.0995017  73.1349987  97.0925006 149.0995017
  71.9379987  98.0195006 149.0995017  65.1589987  95.2035006 146.5595017
  66.1159987  95.2035006 146.5595017  64.9189987  96.1305006 146.5595017
  72.8519987 106.9585006 151.2935017  73.8089987 106.9585006 151.2935017
  72.6119987 107.8855006 151.2935017  67.4729987 103.9865006 141.0395017
  68.4299987 103.9865006 141.0395017  67.2329987 104.9135006 141.0395017
  67.4989987 102.5815006 138.3445017  68.4559987 102.5815006 138.3445017
  67.2589987 103.5085006 138.3445017  74.8239987 103.4185006 149.3635017
  75.7809987 103.4185006 149.3635017  74.5839987 104.3455006 149.3635017
  70.8319987 104.1765006 142.0075017  71.7889987 104.1765006 142.0075017
  70.5919987 105.1035006 142.0075017  70.8089987 102.3775006 151.0985017
  71.7659987 102.3775006 151.0985017  70.5689987 103.3045006 151.0985017
  62.5279987 104.8705006 143.8815017  63.4849987 104.8705006 143.8815017
  62.2879987 105.7975006 143.8815017  62.8279987 103.6465006 147.5515017
  63.7849987 103.6465006 147.5515017  62.5879987 104.5735006 147.5515017
  63.1699987   0.0125006 152.3575017  64.1269987   0.0125006 152.3575017
  62.9299987   0.9395006 152.3575017  69.7289987 103.3955006 139.6765017
  70.6859987 103.3955006 139.6765017  69.4889987 104.3225006 139.6765017
  60.7099987 104.2205006 151.4615017  61.6669987 104.2205006 151.4615017
  60.4699987 105.1475006 151.4615017  73.4759987  95.1295006 139.4905017
  74.4329987  95.1295006 139.4905017  73.2359987  96.0565006 139.4905017
  61.4929987 103.9235006 141.5225017  62.4499987 103.9235006 141.5225017
  61.2529987 104.8505006 141.5225017  57.5189987 106.3085006 150.3905017
  58.4759987 106.3085006 150.3905017  57.2789987 107.2355006 150.3905017
  72.6979987 101.2335006 153.3605017  73.6549987 101.2335006 153.3605017
  72.4579987 102.1605006 153.3605017  59.8369987 107.5705006 151.3315017
  60.7939987 107.5705006 151.3315017  59.5969987 108.4975006 151.3315017
  62.5059987  96.1005006 147.3215017  63.4629987  96.1005006 147.3215017
  62.2659987  97.0275006 147.3215017  67.1509987  95.7905006 150.6855017
  68.1079987  95.7905006 150.6855017  66.9109987  96.7175006 150.6855017
  70.4529987  99.6085006 151.5735017  71.4099987  99.6085006 151.5735017
  70.2129987 100.5355006 151.5735017  71.3509987 104.4995006 137.8215017
  72.3079987 104.4995006 137.8215017  71.1109987 105.4265006 137.8215017
  66.8069987  98.3455006 138.0105017  67.7639987  98.3455006 138.0105017
  66.5669987  99.2725006 138.0105017  62.6059987 101.0755006 148.5285017
  63.5629987 101.0755006 148.5285017  62.3659987 102.0025006 148.5285017
  62.5799987 101.2495006 143.4035017  63.5369987 101.2495006 143.4035017
  62.3399987 102.1765006 143.4035017  68.0869987 101.7055006 142.1835017
  69.0439987 101.7055006 142.1835017  67.8469987 102.6325006 142.1835017
  67.1639987 101.9135006 153.6435017  68.1209987 101.9135006 153.6435017
  66.9239987 102.8405006 153.6435017  69.1089987 101.1825006 145.0295017
  70.0659987 101.1825006 145.0295017  68.8689987 102.1095006 145.0295017
  60.2479987 101.3515006 150.2625017  61.2049987 101.3515006 150.2625017
  60.0079987 102.2785006 150.2625017  63.6809987  98.6975006 137.2615017
  64.6379987  98.6975006 137.2615017  63.4409987  99.6245006 137.2615017
  56.8949987  98.4655006 144.1965017  57.8519987  98.4655006 144.1965017
  56.6549987  99.3925006 144.1965017  58.1559987  99.1645006 139.5495017
  59.1129987  99.1645006 139.5495017  57.9159987 100.0915006 139.5495017
  68.3359987 102.7765006 149.6165017  69.2929987 102.7765006 149.6165017
  68.0959987 103.7035006 149.6165017  65.1349987  98.7375006 144.4295017
  66.0919987  98.7375006 144.4295017  64.8949987  99.6645006 144.4295017
  59.9509987 100.3145006 143.2955017  60.9079987 100.3145006 143.2955017
  59.7109987 101.2415006 143.2955017  63.5879987 100.3885006 140.9645017
  64.5449987 100.3885006 140.9645017  63.3479987 101.3155006 140.9645017
  69.5389987  97.9775006 147.6825017  70.4959987  97.9775006 147.6825017
  69.2989987  98.9045006 147.6825017  62.2489987 101.5605006 138.4975017
  63.2059987 101.5605006 138.4975017  62.0089987 102.4875006 138.4975017
  60.4329987 106.1825006 153.5585017  61.3899987 106.1825006 153.5585017
  60.1929987 107.1095006 153.5585017  66.4209987 101.5125006 146.3135017
  67.3779987 101.5125006 146.3135017  66.1809987 102.4395006 146.3135017
  61.4329987  97.6525006 142.7605017  62.3899987  97.6525006 142.7605017
  61.1929987  98.5795006 142.7605017  65.0619987  99.8455006 148.7385017
  66.0189987  99.8455006 148.7385017  64.8219987 100.7725006 148.7385017
  65.6719987 106.0595006 140.4255017  66.6289987 106.0595006 140.4255017
  65.4319987 106.9865006 140.4255017  72.8089987 105.2615006 149.2155017
  73.7659987 105.2615006 149.2155017  72.5689987 106.1885006 149.2155017
  69.5059987  98.8975006 138.5645017  70.4629987  98.8975006 138.5645017
  69.2659987  99.8245006 138.5645017  67.1169987 106.2765006 151.6675017
  68.0739987 106.2765006 151.6675017  66.8769987 107.2035006 151.6675017
  70.2149987 100.7685006 140.2815017  71.1719987 100.7685006 140.2815017
  69.9749987 101.6955006 140.2815017  60.7159987 105.4105006 146.1745017
  61.6729987 105.4105006 146.1745017  60.4759987 106.3375006 146.1745017
  67.7439987 107.5355006 139.4625017  68.7009987 107.5355006 139.4625017
  67.5039987 108.4625006 139.4625017  57.7509987 103.8525006 151.5075017
  58.7079987 103.8525006 151.5075017  57.5109987 104.7795006 151.5075017
  64.7529987 103.4075006 153.6985017  65.7099987 103.4075006 153.6985017
  64.5129987 104.3345006 153.6985017  75.1349987 100.9455006 140.0475017
  76.0919987 100.9455006 140.0475017  74.8949987 101.8725006 140.0475017
  75.1169987 106.7715006 152.8365017  76.0739987 106.7715006 152.8365017
  74.8769987 107.6985006 152.8365017  70.6059987 104.5755006 147.5245017
  71.5629987 104.5755006 147.5245017  70.3659987 105.5025006 147.5245017
  58.8929987 103.7575006 138.1435017  59.8499987 103.7575006 138.1435017
  58.6529987 104.6845006 138.1435017  64.4859987 106.5585006 143.1505017
  65.4429987 106.5585006 143.1505017  64.2459987 107.4855006 143.1505017
  68.5449987 106.8065006 149.1965017  69.5019987 106.8065006 149.1965017
  68.3049987 107.7335006 149.1965017  70.7749987 107.7535006 138.2435017
  71.7319987 107.7535006 138.2435017  70.5349987 108.6805006 138.2435017
  59.3939987  98.5925006 151.0525017  60.3509987  98.5925006 151.0525017
  59.1539987  99.5195006 151.0525017  71.6519987 106.4075006 140.4975017
  72.6089987 106.4075006 140.4975017  71.4119987 107.3345006 140.4975017
  60.2729987 105.6955006 139.6575017  61.2299987 105.6955006 139.6575017
  60.0329987 106.6225006 139.6575017  68.1229987  98.3655006 149.9875017
  69.0799987  98.3655006 149.9875017  67.8829987  99.2925006 149.9875017
  68.8649987  97.9775006 141.0855017  69.8219987  97.9775006 141.0855017
  68.6249987  98.9045006 141.0855017  66.0819987  99.7335006 141.8975017
  67.0389987  99.7335006 141.8975017  65.8419987 100.6605006 141.8975017
  66.6499987 100.7115006 151.0945017  67.6069987 100.7115006 151.0945017
  66.4099987 101.6385006 151.0945017  66.9629987  96.7585006 142.8095017
  67.9199987  96.7585006 142.8095017  66.7229987  97.6855006 142.8095017
  62.5959987  97.8475006 139.5365017  63.5529987  97.8475006 139.5365017
  62.3559987  98.7745006 139.5365017  72.8449987  98.5885006 151.9435017
  73.8019987  98.5885006 151.9435017  72.6049987  99.5155006 151.9435017
  71.4439987 102.3715006 145.9745017  72.4009987 102.3715006 145.9745017
  71.2039987 103.2985006 145.9745017  59.2099987 100.9525006 137.7155017
  60.1669987 100.9525006 137.7155017  58.9699987 101.8795006 137.7155017
  60.0109987  95.7525006 146.4165017  60.9679987  95.7525006 146.4165017
  59.7709987  96.6795006 146.4165017  58.1419987 106.0755006 154.7865017
  59.0989987 106.0755006 154.7865017  57.9019987 107.0025006 154.7865017
  62.6019987 106.4575006 137.0695017  63.5589987 106.4575006 137.0695017
  62.3619987 107.3845006 137.0695017  64.7939987 106.0405006 154.2475017
  65.7509987 106.0405006 154.2475017  64.5539987 106.9675006 154.2475017
  67.8159987 107.5045006 136.6615017  68.7729987 107.5045006 136.6615017
  67.5759987 108.4315006 136.6615017  70.4589987 105.9655006 151.6615017
  71.4159987 105.9655006 151.6615017  70.2189987 106.8925006 151.6615017
  58.9859987 103.3435006 154.2365017  59.9429987 103.3435006 154.2365017
  58.7459987 104.2705006 154.2365017  63.6649987 104.4455006 139.2915017
  64.6219987 104.4455006 139.2915017  63.4249987 105.3725006 139.2915017
  62.9049987 102.2775006 151.6035017  63.8619987 102.2775006 151.6035017
  62.6649987 103.2045006 151.6035017  64.7539987 102.3655006 137.8055017
  65.7109987 102.3655006 137.8055017  64.5139987 103.2925006 137.8055017
  67.9559987 104.8095006 154.8825017  68.9129987 104.8095006 154.8825017
  67.7159987 105.7365006 154.8825017  74.1359987 105.1955006 137.2885017
  75.0929987 105.1955006 137.2885017  73.8959987 106.1225006 137.2885017
  63.2999987  99.6535006 152.6725017  64.2569987  99.6535006 152.6725017
  63.0599987 100.5805006 152.6725017  63.6989987  98.0275006 150.2045017
  64.6559987  98.0275006 150.2045017  63.4589987  98.9545006 150.2045017
  65.2569987 103.5105006 150.4525017  66.2139987 103.5105006 150.4525017
  65.0169987 104.4375006 150.4525017  69.6479987 101.2775006 155.4265017
  70.6049987 101.2775006 155.4265017  69.4079987 102.2045006 155.4265017
  70.9879987 104.0625006 153.5585017  71.9449987 104.0625006 153.5585017
  70.7479987 104.9895006 153.5585017  61.7519987 100.8835006 154.5905017
  62.7089987 100.8835006 154.5905017  61.5119987 101.8105006 154.5905017
  64.4889987  95.4685006 150.6135017  65.4459987  95.4685006 150.6135017
  64.2489987  96.3955006 150.6135017  65.7669987  99.8015006 154.2095017
  66.7239987  99.8015006 154.2095017  65.5269987 100.7285006 154.2095017
  68.4819987  98.9335006 153.2865017  69.4389987  98.9335006 153.2865017
  68.2419987  99.8605006 153.2865017  70.0779987  97.5635006 155.2265017
  71.0349987  97.5635006 155.2265017  69.8379987  98.4905006 155.2265017
  59.8719987  98.8465006 154.3245017  60.8289987  98.8465006 154.3245017
  59.6319987  99.7735006 154.3245017  64.6979987  94.8375006 153.3015017
  65.6549987  94.8375006 153.3015017  64.4579987  95.7645006 153.3015017
  65.0739987  96.4715006 155.3905017  66.0309987  96.4715006 155.3905017
  64.8339987  97.3985006 155.3905017  58.1499987 107.9035006 137.7485017
  59.1069987 107.9035006 137.7485017  57.9099987 108.8305006 137.7485017
  73.1619987 107.5675006 155.4115017  74.1189987 107.5675006 155.4115017
  72.9219987 108.4945006 155.4115017  74.5549987 105.8735006 140.9075017
  75.5119987 105.8735006 140.9075017  74.3149987 106.8005006 140.9075017
  74.9359987 103.9695006 142.7665017  75.8929987 103.9695006 142.7665017
  74.6959987 104.8965006 142.7665017  74.6759987 106.7145006 147.7185017
  75.6329987 106.7145006 147.7185017  74.4359987 107.6415006 147.7185017
  75.2379987 103.7845006 139.1795017  76.1949987 103.7845006 139.1795017
  74.9979987 104.7115006 139.1795017  73.6909987 100.9775006 137.9055017
  74.6479987 100.9775006 137.9055017  73.4509987 101.9045006 137.9055017
  72.7509987 102.4605006 143.3275017  73.7079987 102.4605006 143.3275017
  72.5109987 103.3875006 143.3275017  57.7429987 104.5355006 147.3665017
  58.6999987 104.5355006 147.3665017  57.5029987 105.4625006 147.3665017
  73.5969987 104.4535006 152.9805017  74.5539987 104.4535006 152.9805017
  73.3569987 105.3805006 152.9805017  75.1049987 102.3355006 153.6675017
  76.0619987 102.3355006 153.6675017  74.8649987 103.2625006 153.6675017
  72.7729987  98.5415006 136.9705017  73.7299987  98.5415006 136.9705017
  72.5329987  99.4685006 136.9705017  72.4119987 100.0565006 141.7885017
  73.3689987 100.0565006 141.7885017  72.1719987 100.9835006 141.7885017
  73.0489987 100.5965006 147.2255017  74.0059987 100.5965006 147.2255017
  72.8089987 101.5235006 147.2255017  73.1139987 101.3165006 150.0105017
  74.0709987 101.3165006 150.0105017  72.8739987 102.2435006 150.0105017
  57.3669987  99.8665006 153.5445017  58.3239987  99.8665006 153.5445017
  57.1269987 100.7935006 153.5445017  75.3809987  95.3635006 155.3615017
  76.3379987  95.3635006 155.3615017  75.1409987  96.2905006 155.3615017
  73.0779987  97.3295006 141.8365017  74.0349987  97.3295006 141.8365017
  72.8379987  98.2565006 141.8365017  58.5669987  98.1395006 146.3825017
  59.5239987  98.1395006 146.3825017  58.3269987  99.0665006 146.3825017
  56.8559987 101.1295006 147.4325017  57.8129987 101.1295006 147.4325017
  56.6159987 102.0565006 147.4325017  74.9109987  97.4705006 153.7135017
  75.8679987  97.4705006 153.7135017  74.6709987  98.3975006 153.7135017
  74.9719987  97.3025006 138.5885017  75.9289987  97.3025006 138.5885017
  74.7319987  98.2295006 138.5885017  57.2199987  97.3995006 141.5055017
  58.1769987  97.3995006 141.5055017  56.9799987  98.3265006 141.5055017
  57.1269987  96.0625006 149.6545017  58.0839987  96.0625006 149.6545017
  56.8869987  96.9895006 149.6545017  73.9239987  95.5665006 151.5495017
  74.8809987  95.5665006 151.5495017  73.6839987  96.4935006 151.5495017
  67.3209987  97.0025006 145.8425017  68.2779987  97.0025006 145.8425017
  67.0809987  97.9295006 145.8425017  72.4559987  95.0575006 145.9315017
  73.4129987  95.0575006 145.9315017  72.2159987  95.9845006 145.9315017
  74.1409987  96.2685006 144.2355017  75.0979987  96.2685006 144.2355017
  73.9009987  97.1955006 144.2355017  59.6819987  95.6295006 143.6855017
  60.6389987  95.6295006 143.6855017  59.4419987  96.5565006 143.6855017
  58.4459987  95.3925006 139.3915017  59.4029987  95.3925006 139.3915017
  58.2059987  96.3195006 139.3915017  64.1829987  95.5485006 143.4765017
  65.1399987  95.5485006 143.4765017  63.9429987  96.4755006 143.4765017
  69.8499987  95.5725006 145.1155017  70.8069987  95.5725006 145.1155017
  69.6099987  96.4995006 145.1155017  71.1529987  95.6045006 140.7485017
  72.1099987  95.6045006 140.7485017  70.9129987  96.5315006 140.7485017
  60.2969987  97.3335006 137.9555017  61.2539987  97.3335006 137.9555017
  60.0569987  98.2605006 137.9555017  65.3399987  97.5905006 140.3445017
  66.2969987  97.5905006 140.3445017  65.0999987  98.5175006 140.3445017
  59.9159987  96.4005006 153.3415017  60.8729987  96.4005006 153.3415017
  59.6759987  97.3275006 153.3415017  61.6739987  95.5185006 154.8835017
  62.6309987  95.5185006 154.8835017  61.4339987  96.4455006 154.8835017
  69.9869987  94.8415006 154.9265017  70.9439987  94.8415006 154.9265017
  69.7469987  95.7685006 154.9265017  87.5899987 104.7885006 143.6165017
  88.5469987 104.7885006 143.6165017  87.3499987 105.7155006 143.6165017
  86.4789987 104.0335006 147.0655017  87.4359987 104.0335006 147.0655017
  86.2389987 104.9605006 147.0655017  78.8559987 103.6735006 148.6025017
  79.8129987 103.6735006 148.6025017  78.6159987 104.6005006 148.6025017
  90.0579987 106.7935006 145.2595017  91.0149987 106.7935006 145.2595017
  89.8179987 107.7205006 145.2595017  79.8929987 107.5905006 147.5315017
  80.8499987 107.5905006 147.5315017  79.6529987 108.5175006 147.5315017
  76.4199987 101.7045006 142.5945017  77.3769987 101.7045006 142.5945017
  76.1799987 102.6315006 142.5945017  77.1189987 103.9405006 144.7305017
  78.0759987 103.9405006 144.7305017  76.8789987 104.8675006 144.7305017
  84.8559987 106.4085006 147.5305017  85.8129987 106.4085006 147.5305017
  84.6159987 107.3355006 147.5305017  93.4919987  98.0685006 148.2665017
  94.4489987  98.0685006 148.2665017  93.2519987  98.9955006 148.2665017
  88.0369987 100.8885006 147.8235017  88.9939987 100.8885006 147.8235017
  87.7969987 101.8155006 147.8235017  81.1609987  98.9745006 145.0575017
  82.1179987  98.9745006 145.0575017  80.9209987  99.9015006 145.0575017
  88.8909987  99.0645006 143.4255017  89.8479987  99.0645006 143.4255017
  88.6509987  99.9915006 143.4255017  77.7819987 101.3825006 145.7955017
  78.7389987 101.3825006 145.7955017  77.5419987 102.3095006 145.7955017
  82.9439987 102.9505006 145.0825017  83.9009987 102.9505006 145.0825017
  82.7039987 103.8775006 145.0825017  93.9259987  99.5025006 150.5265017
  94.8829987  99.5025006 150.5265017  93.6859987 100.4295006 150.5265017
  80.0459987  97.8735006 149.1015017  81.0029987  97.8735006 149.1015017
  79.8059987  98.8005006 149.1015017  87.3889987 107.3795006 142.6445017
  88.3459987 107.3795006 142.6445017  87.1489987 108.3065006 142.6445017
  82.5729987 105.5355006 149.3585017  83.5299987 105.5355006 149.3585017
  82.3329987 106.4625006 149.3585017  90.6859987  98.3995006 145.4185017
  91.6429987  98.3995006 145.4185017  90.4459987  99.3265006 145.4185017
  79.6089987  99.7425006 147.1095017  80.5659987  99.7425006 147.1095017
  79.3689987 100.6695006 147.1095017  81.0049987 107.5405006 150.0865017
  81.9619987 107.5405006 150.0865017  80.7649987 108.4675006 150.0865017
  77.0579987 107.0685006 141.0275017  78.0149987 107.0685006 141.0275017
  76.8179987 107.9955006 141.0275017  91.0349987  97.0915006 149.0995017
  91.9919987  97.0915006 149.0995017  90.7949987  98.0185006 149.0995017
  84.0149987  95.2035006 146.5595017  84.9719987  95.2035006 146.5595017
  83.7749987  96.1305006 146.5595017  91.7079987 106.9585006 151.2935017
  92.6649987 106.9585006 151.2935017  91.4679987 107.8855006 151.2935017
  86.3109987 104.0015006 141.0815017  87.2679987 104.0015006 141.0815017
  86.0709987 104.9285006 141.0815017  86.3599987 102.5785006 138.3285017
  87.3169987 102.5785006 138.3285017  86.1199987 103.5055006 138.3285017
  93.6799987 103.4185006 149.3635017  94.6369987 103.4185006 149.3635017
  93.4399987 104.3455006 149.3635017  89.7049987 104.1895006 142.0095017
  90.6619987 104.1895006 142.0095017  89.4649987 105.1165006 142.0095017
  89.6639987 102.3775006 151.0975017  90.6209987 102.3775006 151.0975017
  89.4239987 103.3045006 151.0975017  81.3429987 104.8655006 143.9035017
  82.2999987 104.8655006 143.9035017  81.1029987 105.7925006 143.9035017
  81.6809987 103.6445006 147.5595017  82.6379987 103.6445006 147.5595017
  81.4409987 104.5715006 147.5595017  82.0259987   0.0135006 152.3575017
  82.9829987   0.0135006 152.3575017  81.7859987   0.9405006 152.3575017
  88.5959987 103.3815006 139.6695017  89.5529987 103.3815006 139.6695017
  88.3559987 104.3085006 139.6695017  79.5659987 104.2205006 151.4615017
  80.5229987 104.2205006 151.4615017  79.3259987 105.1475006 151.4615017
  92.3319987  95.1305006 139.4905017  93.2889987  95.1305006 139.4905017
  92.0919987  96.0575006 139.4905017  80.3279987 103.9195006 141.5275017
  81.2849987 103.9195006 141.5275017  80.0879987 104.8465006 141.5275017
  76.3759987 106.3095006 150.3905017  77.3329987 106.3095006 150.3905017
  76.1359987 107.2365006 150.3905017  91.5529987 101.2335006 153.3605017
  92.5099987 101.2335006 153.3605017  91.3129987 102.1605006 153.3605017
  78.6929987 107.5705006 151.3315017  79.6499987 107.5705006 151.3315017
  78.4529987 108.4975006 151.3315017  81.3619987  96.0995006 147.3205017
  82.3189987  96.0995006 147.3205017  81.1219987  97.0265006 147.3205017
  86.0079987  95.7915006 150.6855017  86.9649987  95.7915006 150.6855017
  85.7679987  96.7185006 150.6855017  89.3089987  99.6075006 151.5685017
  90.2659987  99.6075006 151.5685017  89.0689987 100.5345006 151.5685017
  90.2069987 104.5015006 137.8205017  91.1639987 104.5015006 137.8205017
  89.9669987 105.4285006 137.8205017  85.6629987  98.3465006 138.0105017
  86.6199987  98.3465006 138.0105017  85.4229987  99.2735006 138.0105017
  81.4629987 101.0745006 148.5285017  82.4199987 101.0745006 148.5285017
  81.2229987 102.0015006 148.5285017  81.4259987 101.2295006 143.4105017
  82.3829987 101.2295006 143.4105017  81.1859987 102.1565006 143.4105017
  86.9439987 101.6855006 142.1685017  87.9009987 101.6855006 142.1685017
  86.7039987 102.6125006 142.1685017  86.0139987 101.9195006 153.6715017
  86.9709987 101.9195006 153.6715017  85.7739987 102.8465006 153.6715017
  87.9769987 101.1795006 145.0305017  88.9339987 101.1795006 145.0305017
  87.7369987 102.1065006 145.0305017  79.1089987 101.3535006 150.2625017
  80.0659987 101.3535006 150.2625017  78.8689987 102.2805006 150.2625017
  82.5369987  98.6975006 137.2615017  83.4939987  98.6975006 137.2615017
  82.2969987  99.6245006 137.2615017  75.7499987  98.4615006 144.2025017
  76.7069987  98.4615006 144.2025017  75.5099987  99.3885006 144.2025017
  77.0119987  99.1655006 139.5495017  77.9689987  99.1655006 139.5495017
  76.7719987 100.0925006 139.5495017  87.1929987 102.7765006 149.6165017
  88.1499987 102.7765006 149.6165017  86.9529987 103.7035006 149.6165017
  83.9899987  98.7395006 144.4305017  84.9469987  98.7395006 144.4305017
  83.7499987  99.6665006 144.4305017  78.8059987 100.3145006 143.2945017
  79.7629987 100.3145006 143.2945017  78.5659987 101.2415006 143.2945017
  82.4459987 100.3675006 140.9485017  83.4029987 100.3675006 140.9485017
  82.2059987 101.2945006 140.9485017  88.3949987  97.9765006 147.6825017
  89.3519987  97.9765006 147.6825017  88.1549987  98.9035006 147.6825017
  81.1049987 101.5605006 138.4985017  82.0619987 101.5605006 138.4985017
  80.8649987 102.4875006 138.4985017  79.2889987 106.1835006 153.5585017
  80.2459987 106.1835006 153.5585017  79.0489987 107.1105006 153.5585017
  85.2779987 101.5055006 146.3265017  86.2349987 101.5055006 146.3265017
  85.0379987 102.4325006 146.3265017  80.2889987  97.6525006 142.7605017
  81.2459987  97.6525006 142.7605017  80.0489987  98.5795006 142.7605017
  83.9179987  99.8435006 148.7395017  84.8749987  99.8435006 148.7395017
  83.6779987 100.7705006 148.7395017  84.5139987 106.1085006 140.4135017
  85.4709987 106.1085006 140.4135017  84.2739987 107.0355006 140.4135017
  91.6649987 105.2615006 149.2155017  92.6219987 105.2615006 149.2155017
  91.4249987 106.1885006 149.2155017  88.3619987  98.8945006 138.5615017
  89.3189987  98.8945006 138.5615017  88.1219987  99.8215006 138.5615017
  85.9739987 106.2765006 151.6675017  86.9309987 106.2765006 151.6675017
  85.7339987 107.2035006 151.6675017  89.0719987 100.7655006 140.2805017
  90.0289987 100.7655006 140.2805017  88.8319987 101.6925006 140.2805017
  79.5789987 105.4115006 146.1715017  80.5359987 105.4115006 146.1715017
  79.3389987 106.3385006 146.1715017  86.5929987 107.5465006 139.4325017
  87.5499987 107.5465006 139.4325017  86.3529987 108.4735006 139.4325017
  76.6069987 103.8525006 151.5075017  77.5639987 103.8525006 151.5075017
  76.3669987 104.7795006 151.5075017  83.6119987 103.3935006 153.7115017
  84.5689987 103.3935006 153.7115017  83.3719987 104.3205006 153.7115017
  93.9909987 100.9455006 140.0475017  94.9479987 100.9455006 140.0475017
  93.7509987 101.8725006 140.0475017  93.9729987 106.7705006 152.8365017
  94.9299987 106.7705006 152.8365017  93.7329987 107.6975006 152.8365017
  89.4579987 104.5745006 147.5235017  90.4149987 104.5745006 147.5235017
  89.2179987 105.5015006 147.5235017  77.7479987 103.7575006 138.1425017
  78.7049987 103.7575006 138.1425017  77.5079987 104.6845006 138.1425017
  83.4359987 106.5085006 143.1425017  84.3929987 106.5085006 143.1425017
  83.1959987 107.4355006 143.1425017  87.4029987 106.8085006 149.1975017
  88.3599987 106.8085006 149.1975017  87.1629987 107.7355006 149.1975017
  89.6319987 107.7525006 138.2425017  90.5889987 107.7525006 138.2425017
  89.3919987 108.6795006 138.2425017  78.2509987  98.5985006 151.0505017
  79.2079987  98.5985006 151.0505017  78.0109987  99.5255006 151.0505017
  90.5039987 106.4045006 140.4975017  91.4609987 106.4045006 140.4975017
  90.2639987 107.3315006 140.4975017  79.1289987 105.6955006 139.6575017
  80.0859987 105.6955006 139.6575017  78.8889987 106.6225006 139.6575017
  86.9769987  98.3645006 149.9915017  87.9339987  98.3645006 149.9915017
  86.7369987  99.2915006 149.9915017  87.7219987  97.9745006 141.0845017
  88.6789987  97.9745006 141.0845017  87.4819987  98.9015006 141.0845017
  84.9519987  99.7045006 141.8975017  85.9089987  99.7045006 141.8975017
  84.7119987 100.6315006 141.8975017  85.5049987 100.7095006 151.0905017
  86.4619987 100.7095006 151.0905017  85.2649987 101.6365006 151.0905017
  85.8179987  96.7595006 142.8105017  86.7749987  96.7595006 142.8105017
  85.5779987  97.6865006 142.8105017  81.4519987  97.8475006 139.5365017
  82.4089987  97.8475006 139.5365017  81.2119987  98.7745006 139.5365017
  91.6999987  98.5885006 151.9435017  92.6569987  98.5885006 151.9435017
  91.4599987  99.5155006 151.9435017  90.2999987 102.3715006 145.9755017
  91.2569987 102.3715006 145.9755017  90.0599987 103.2985006 145.9755017
  78.0659987 100.9525006 137.7155017  79.0229987 100.9525006 137.7155017
  77.8259987 101.8795006 137.7155017  78.8669987  95.7525006 146.4175017
  79.8239987  95.7525006 146.4175017  78.6269987  96.6795006 146.4175017
  76.9979987 106.0755006 154.7865017  77.9549987 106.0755006 154.7865017
  76.7579987 107.0025006 154.7865017  81.4569987 106.4575006 137.0695017
  82.4139987 106.4575006 137.0695017  81.2169987 107.3845006 137.0695017
  83.6499987 106.0375006 154.2495017  84.6069987 106.0375006 154.2495017
  83.4099987 106.9645006 154.2495017  86.6679987 107.5025006 136.6595017
  87.6249987 107.5025006 136.6595017  86.4279987 108.4295006 136.6595017
  89.3149987 105.9655006 151.6625017  90.2719987 105.9655006 151.6625017
  89.0749987 106.8925006 151.6625017  77.8409987 103.3445006 154.2355017
  78.7979987 103.3445006 154.2355017  77.6009987 104.2715006 154.2355017
  82.4889987 104.4435006 139.2695017  83.4459987 104.4435006 139.2695017
  82.2489987 105.3705006 139.2695017  81.7609987 102.2775006 151.6035017
  82.7179987 102.2775006 151.6035017  81.5209987 103.2045006 151.6035017
  83.6079987 102.3505006 137.7925017  84.5649987 102.3505006 137.7925017
  83.3679987 103.2775006 137.7925017  86.8159987 104.8045006 154.8765017
  87.7729987 104.8045006 154.8765017  86.5759987 105.7315006 154.8765017
  92.9929987 105.1955006 137.2875017  93.9499987 105.1955006 137.2875017
  92.7529987 106.1225006 137.2875017  82.1569987  99.6555006 152.6625017
  83.1139987  99.6555006 152.6625017  81.9169987 100.5825006 152.6625017
  82.5549987  98.0295006 150.2045017  83.5119987  98.0295006 150.2045017
  82.3149987  98.9565006 150.2045017  84.1129987 103.5105006 150.4535017
  85.0699987 103.5105006 150.4535017  83.8729987 104.4375006 150.4535017
  88.4979987 101.2495006 155.4905017  89.4549987 101.2495006 155.4905017
  88.2579987 102.1765006 155.4905017  89.8429987 104.0625006 153.5575017
  90.7999987 104.0625006 153.5575017  89.6029987 104.9895006 153.5575017
  80.6089987 100.8855006 154.5895017  81.5659987 100.8855006 154.5895017
  80.3689987 101.8125006 154.5895017  83.3519987  95.4705006 150.6055017
  84.3089987  95.4705006 150.6055017  83.1119987  96.3975006 150.6055017
  84.6249987  99.7925006 154.2185017  85.5819987  99.7925006 154.2185017
  84.3849987 100.7195006 154.2185017  87.3399987  98.9765006 153.3315017
  88.2969987  98.9765006 153.3315017  87.0999987  99.9035006 153.3315017
  88.8989987  97.5665006 155.2075017  89.8559987  97.5665006 155.2075017
  88.6589987  98.4935006 155.2075017  78.7089987  98.8205006 154.3185017
  79.6659987  98.8205006 154.3185017  78.4689987  99.7475006 154.3185017
  83.5599987  94.8375006 153.3015017  84.5169987  94.8375006 153.3015017
  83.3199987  95.7645006 153.3015017  83.9639987  96.5095006 155.3685017
  84.9209987  96.5095006 155.3685017  83.7239987  97.4365006 155.3685017
  77.0059987 107.9025006 137.7475017  77.9629987 107.9025006 137.7475017
  76.7659987 108.8295006 137.7475017  92.0179987 107.5675006 155.4115017
  92.9749987 107.5675006 155.4115017  91.7779987 108.4945006 155.4115017
  93.4109987 105.8735006 140.9075017  94.3679987 105.8735006 140.9075017
  93.1709987 106.8005006 140.9075017  93.7929987 103.9675006 142.7655017
  94.7499987 103.9675006 142.7655017  93.5529987 104.8945006 142.7655017
  93.5319987 106.7145006 147.7185017  94.4889987 106.7145006 147.7185017
  93.2919987 107.6415006 147.7185017  94.0949987 103.7845006 139.1795017
  95.0519987 103.7845006 139.1795017  93.8549987 104.7115006 139.1795017
  92.5459987 100.9775006 137.9055017  93.5029987 100.9775006 137.9055017
  92.3059987 101.9045006 137.9055017  91.6089987 102.4605006 143.3285017
  92.5659987 102.4605006 143.3285017  91.3689987 103.3875006 143.3285017
  76.5999987 104.5355006 147.3665017  77.5569987 104.5355006 147.3665017
  76.3599987 105.4625006 147.3665017  92.4489987 104.4505006 152.9855017
  93.4059987 104.4505006 152.9855017  92.2089987 105.3775006 152.9855017
  93.9609987 102.3355006 153.6675017  94.9179987 102.3355006 153.6675017
  93.7209987 103.2625006 153.6675017  91.6289987  98.5415006 136.9715017
  92.5859987  98.5415006 136.9715017  91.3889987  99.4685006 136.9715017
  91.2679987 100.0565006 141.7885017  92.2249987 100.0565006 141.7885017
  91.0279987 100.9835006 141.7885017  91.9049987 100.5955006 147.2255017
  92.8619987 100.5955006 147.2255017  91.6649987 101.5225006 147.2255017
  91.9669987 101.3165006 150.0105017  92.9239987 101.3165006 150.0105017
  91.7269987 102.2435006 150.0105017  76.2219987  99.8485006 153.5225017
  77.1789987  99.8485006 153.5225017  75.9819987 100.7755006 153.5225017
  94.2379987  95.3635006 155.3615017  95.1949987  95.3635006 155.3615017
  93.9979987  96.2905006 155.3615017  91.9319987  97.3275006 141.8345017
  92.8889987  97.3275006 141.8345017  91.6919987  98.2545006 141.8345017
  77.4229987  98.1395006 146.3825017  78.3799987  98.1395006 146.3825017
  77.1829987  99.0665006 146.3825017  75.7119987 101.1285006 147.4315017
  76.6689987 101.1285006 147.4315017  75.4719987 102.0555006 147.4315017
  93.7659987  97.4695006 153.7165017  94.7229987  97.4695006 153.7165017
  93.5259987  98.3965006 153.7165017  93.8279987  97.3035006 138.5885017
  94.7849987  97.3035006 138.5885017  93.5879987  98.2305006 138.5885017
  76.0759987  97.3995006 141.5065017  77.0329987  97.3995006 141.5065017
  75.8359987  98.3265006 141.5065017  76.0299987  96.0755006 149.8095017
  76.9869987  96.0755006 149.8095017  75.7899987  97.0025006 149.8095017
  92.7799987  95.5665006 151.5495017  93.7369987  95.5665006 151.5495017
  92.5399987  96.4935006 151.5495017  86.1769987  97.0015006 145.8445017
  87.1339987  97.0015006 145.8445017  85.9369987  97.9285006 145.8445017
  91.3119987  95.0575006 145.9315017  92.2689987  95.0575006 145.9315017
  91.0719987  95.9845006 145.9315017  92.9969987  96.2685006 144.2355017
  93.9539987  96.2685006 144.2355017  92.7569987  97.1955006 144.2355017
  78.5379987  95.6295006 143.6855017  79.4949987  95.6295006 143.6855017
  78.2979987  96.5565006 143.6855017  77.3019987  95.3915006 139.3905017
  78.2589987  95.3915006 139.3905017  77.0619987  96.3185006 139.3905017
  83.0389987  95.5485006 143.4765017  83.9959987  95.5485006 143.4765017
  82.7989987  96.4755006 143.4765017  88.7059987  95.5735006 145.1155017
  89.6629987  95.5735006 145.1155017  88.4659987  96.5005006 145.1155017
  90.0079987  95.6045006 140.7495017  90.9649987  95.6045006 140.7495017
  89.7679987  96.5315006 140.7495017  79.1529987  97.3335006 137.9555017
  80.1099987  97.3335006 137.9555017  78.9129987  98.2605006 137.9555017
  84.1949987  97.5885006 140.3435017  85.1519987  97.5885006 140.3435017
  83.9549987  98.5155006 140.3435017  78.4339987  96.1625006 153.1485017
  79.3909987  96.1625006 153.1485017  78.1939987  97.0895006 153.1485017
  80.4349987  95.5325006 154.7435017  81.3919987  95.5325006 154.7435017
  80.1949987  96.4595006 154.7435017  88.8429987  94.8465006 154.9305017
  89.7999987  94.8465006 154.9305017  88.6029987  95.7735006 154.9305017
 106.4409987 104.7805006 143.5925017 107.3979987 104.7805006 143.5925017
 106.2009987 105.7075006 143.5925017 105.2929987 104.0455006 147.0615017
 106.2499987 104.0455006 147.0615017 105.0529987 104.9725006 147.0615017
  97.7179987 103.6785006 148.6085017  98.6749987 103.6785006 148.6085017
  97.4779987 104.6055006 148.6085017  98.7479987 107.5925006 147.5295017
  99.7049987 107.5925006 147.5295017  98.5079987 108.5195006 147.5295017
  95.2759987 101.7045006 142.5945017  96.2329987 101.7045006 142.5945017
  95.0359987 102.6315006 142.5945017  95.9739987 103.9405006 144.7305017
  96.9309987 103.9405006 144.7305017  95.7339987 104.8675006 144.7305017
 103.7309987 106.4515006 147.4875017 104.6879987 106.4515006 147.4875017
 103.4909987 107.3785006 147.4875017 106.2209987 100.6475006 147.7835017
 107.1779987 100.6475006 147.7835017 105.9809987 101.5745006 147.7835017
 100.0169987  98.9745006 145.0575017 100.9739987  98.9745006 145.0575017
  99.7769987  99.9015006 145.0575017 107.7209987  99.5265006 143.0195017
 108.6779987  99.5265006 143.0195017 107.4809987 100.4535006 143.0195017
  96.6379987 101.3825006 145.7955017  97.5949987 101.3825006 145.7955017
  96.3979987 102.3095006 145.7955017 101.7929987 102.9575006 145.0775017
 102.7499987 102.9575006 145.0775017 101.5529987 103.8845006 145.0775017
  98.9149987  97.8775006 149.1195017  99.8719987  97.8775006 149.1195017
  98.6749987  98.8045006 149.1195017 106.2509987 107.3725006 142.6665017
 107.2079987 107.3725006 142.6665017 106.0109987 108.2995006 142.6665017
 101.3659987 105.5375006 149.1695017 102.3229987 105.5375006 149.1695017
 101.1259987 106.4645006 149.1695017  98.4649987  99.7405006 147.1105017
  99.4219987  99.7405006 147.1105017  98.2249987 100.6675006 147.1105017
  99.8539987 107.5445006 150.0715017 100.8109987 107.5445006 150.0715017
  99.6139987 108.4715006 150.0715017  95.9149987 107.0695006 141.0275017
  96.8719987 107.0695006 141.0275017  95.6749987 107.9965006 141.0275017
 102.8809987  95.2035006 146.5615017 103.8379987  95.2035006 146.5615017
 102.6409987  96.1305006 146.5615017 105.1369987 103.9935006 141.0655017
 106.0939987 103.9935006 141.0655017 104.8969987 104.9205006 141.0655017
 105.2279987 102.5555006 138.3285017 106.1849987 102.5555006 138.3285017
 104.9879987 103.4825006 138.3285017 100.1989987 104.8655006 143.9035017
 101.1559987 104.8655006 143.9035017  99.9589987 105.7925006 143.9035017
 100.5279987 103.6355006 147.5465017 101.4849987 103.6355006 147.5465017
 100.2879987 104.5625006 147.5465017 100.7589987   0.1315006 152.3905017
 101.7159987   0.1315006 152.3905017 100.5189987   1.0585006 152.3905017
 107.4539987 103.3985006 139.7015017 108.4109987 103.3985006 139.7015017
 107.2139987 104.3255006 139.7015017  98.4039987 104.2035006 151.4655017
  99.3609987 104.2035006 151.4655017  98.1639987 105.1305006 151.4655017
  99.1839987 103.9205006 141.5255017 100.1409987 103.9205006 141.5255017
  98.9439987 104.8475006 141.5255017  95.2279987 106.3095006 150.3895017
  96.1849987 106.3095006 150.3895017  94.9879987 107.2365006 150.3895017
  97.5429987 107.5795006 151.3395017  98.4999987 107.5795006 151.3395017
  97.3029987 108.5065006 151.3395017 100.2129987  96.0925006 147.3455017
 101.1699987  96.0925006 147.3455017  99.9729987  97.0195006 147.3455017
 104.9049987  95.7975006 150.7195017 105.8619987  95.7975006 150.7195017
 104.6649987  96.7245006 150.7195017 104.5399987  98.3365006 138.0185017
 105.4969987  98.3365006 138.0185017 104.2999987  99.2635006 138.0185017
 100.3029987 101.0715006 148.5225017 101.2599987 101.0715006 148.5225017
 100.0629987 101.9985006 148.5225017 100.2819987 101.2285006 143.4105017
 101.2389987 101.2285006 143.4105017 100.0419987 102.1555006 143.4105017
 105.7859987 101.6915006 142.1645017 106.7429987 101.6915006 142.1645017
 105.5459987 102.6185006 142.1645017 104.9129987 101.9195006 153.6695017
 105.8699987 101.9195006 153.6695017 104.6729987 102.8465006 153.6695017
 106.7859987 101.1595006 145.0225017 107.7429987 101.1595006 145.0225017
 106.5459987 102.0865006 145.0225017  97.9559987 101.3565006 150.2555017
  98.9129987 101.3565006 150.2555017  97.7159987 102.2835006 150.2555017
 101.3929987  98.6955006 137.2595017 102.3499987  98.6955006 137.2595017
 101.1529987  99.6225006 137.2595017  94.6059987  98.4615006 144.2025017
  95.5629987  98.4615006 144.2025017  94.3659987  99.3885006 144.2025017
  95.8679987  99.1655006 139.5495017  96.8249987  99.1655006 139.5495017
  95.6279987 100.0925006 139.5495017 106.0619987 102.7685006 149.6385017
 107.0189987 102.7685006 149.6385017 105.8219987 103.6955006 149.6385017
 102.8439987  98.7305006 144.4375017 103.8009987  98.7305006 144.4375017
 102.6039987  99.6575006 144.4375017  97.6599987 100.3135006 143.2935017
  98.6169987 100.3135006 143.2935017  97.4199987 101.2405006 143.2935017
 101.3049987 100.3685006 140.9495017 102.2619987 100.3685006 140.9495017
 101.0649987 101.2955006 140.9495017 107.2369987  97.9295006 147.7355017
 108.1939987  97.9295006 147.7355017 106.9969987  98.8565006 147.7355017
  99.9609987 101.5605006 138.4985017 100.9179987 101.5605006 138.4985017
  99.7209987 102.4875006 138.4985017  98.1369987 106.1845006 153.5595017
  99.0939987 106.1845006 153.5595017  97.8969987 107.1115006 153.5595017
 104.0929987 101.4995006 146.2835017 105.0499987 101.4995006 146.2835017
 103.8529987 102.4265006 146.2835017  99.1449987  97.6525006 142.7615017
 100.1019987  97.6525006 142.7615017  98.9049987  98.5795006 142.7615017
 102.7409987  99.8215006 148.7715017 103.6979987  99.8215006 148.7715017
 102.5009987 100.7485006 148.7715017 103.3669987 106.1015006 140.4095017
 104.3239987 106.1015006 140.4095017 103.1269987 107.0285006 140.4095017
 107.1709987  98.8915006 138.5865017 108.1279987  98.8915006 138.5865017
 106.9309987  99.8185006 138.5865017 105.2009987 106.4115006 151.7565017
 106.1579987 106.4115006 151.7565017 104.9609987 107.3385006 151.7565017
   0.1149987 100.8825006 140.3325017   1.0719987 100.8825006 140.3325017
  -0.1250013 101.8095006 140.3325017  98.4329987 105.4115006 146.1705017
  99.3899987 105.4115006 146.1705017  98.1929987 106.3385006 146.1705017
 105.4459987 107.5475006 139.4525017 106.4029987 107.5475006 139.4525017
 105.2059987 108.4745006 139.4525017  95.4609987 103.8535006 151.5075017
  96.4179987 103.8535006 151.5075017  95.2209987 104.7805006 151.5075017
 102.4349987 103.1885006 153.8065017 103.3919987 103.1885006 153.8065017
 102.1949987 104.1155006 153.8065017  96.6039987 103.7575006 138.1435017
  97.5609987 103.7575006 138.1435017  96.3639987 104.6845006 138.1435017
 102.2849987 106.5085006 143.1415017 103.2419987 106.5085006 143.1415017
 102.0449987 107.4355006 143.1415017 106.2829987 106.8135006 149.1685017
 107.2399987 106.8135006 149.1685017 106.0429987 107.7405006 149.1685017
  97.1269987  98.5835006 151.0585017  98.0839987  98.5835006 151.0585017
  96.8869987  99.5105006 151.0585017  97.9849987 105.6965006 139.6575017
  98.9419987 105.6965006 139.6575017  97.7449987 106.6235006 139.6575017
 105.8339987  98.3535006 150.0105017 106.7909987  98.3535006 150.0105017
 105.5939987  99.2805006 150.0105017 106.3349987  98.1835006 141.0565017
 107.2919987  98.1835006 141.0565017 106.0949987  99.1105006 141.0565017
 103.7889987  99.7265006 141.8945017 104.7459987  99.7265006 141.8945017
 103.5489987 100.6535006 141.8945017 104.3249987 100.6445006 151.1055017
 105.2819987 100.6445006 151.1055017 104.0849987 101.5715006 151.1055017
 104.7029987  96.7585006 142.8125017 105.6599987  96.7585006 142.8125017
 104.4629987  97.6855006 142.8125017 100.3089987  97.8475006 139.5365017
 101.2659987  97.8475006 139.5365017 100.0689987  98.7745006 139.5365017
  96.9219987 100.9525006 137.7155017  97.8789987 100.9525006 137.7155017
  96.6819987 101.8795006 137.7155017  97.7279987  95.7525006 146.4185017
  98.6849987  95.7525006 146.4185017  97.4879987  96.6795006 146.4185017
  95.8509987 106.0745006 154.7895017  96.8079987 106.0745006 154.7895017
  95.6109987 107.0015006 154.7895017 100.3139987 106.4575006 137.0695017
 101.2709987 106.4575006 137.0695017 100.0739987 107.3845006 137.0695017
 102.4149987 106.0955006 154.5915017 103.3719987 106.0955006 154.5915017
 102.1749987 107.0225006 154.5915017 105.5219987 107.4955006 136.6545017
 106.4789987 107.4955006 136.6545017 105.2819987 108.4225006 136.6545017
  96.6969987 103.3445006 154.2365017  97.6539987 103.3445006 154.2365017
  96.4569987 104.2715006 154.2365017 101.3439987 104.4445006 139.2675017
 102.3009987 104.4445006 139.2675017 101.1039987 105.3715006 139.2675017
 100.5939987 102.2555006 151.5865017 101.5509987 102.2555006 151.5865017
 100.3539987 103.1825006 151.5865017 102.4569987 102.3495006 137.7935017
 103.4139987 102.3495006 137.7935017 102.2169987 103.2765006 137.7935017
 105.6849987 104.8165006 154.9345017 106.6419987 104.8165006 154.9345017
 105.4449987 105.7435006 154.9345017 101.0019987  99.6425006 152.6615017
 101.9589987  99.6425006 152.6615017 100.7619987 100.5695006 152.6615017
 101.4069987  97.9875006 150.2145017 102.3639987  97.9875006 150.2145017
 101.1669987  98.9145006 150.2145017 102.9119987 103.2955006 150.1955017
 103.8689987 103.2955006 150.1955017 102.6719987 104.2225006 150.1955017
 107.3919987 101.2965006 155.5305017 108.3489987 101.2965006 155.5305017
 107.1519987 102.2235006 155.5305017  99.4649987 100.8725006 154.6005017
 100.4219987 100.8725006 154.6005017  99.2249987 101.7995006 154.6005017
 102.2699987  95.4505006 150.4665017 103.2269987  95.4505006 150.4665017
 102.0299987  96.3775006 150.4665017 103.4789987  99.7785006 154.2075017
 104.4359987  99.7785006 154.2075017 103.2389987 100.7055006 154.2075017
 106.1309987  98.8895006 153.2555017 107.0879987  98.8895006 153.2555017
 105.8909987  99.8165006 153.2555017 107.7749987  97.6025006 155.2065017
 108.7319987  97.6025006 155.2065017 107.5349987  98.5295006 155.2065017
  97.5879987  98.8185006 154.3215017  98.5449987  98.8185006 154.3215017
  97.3479987  99.7455006 154.3215017 102.5769987  94.6765006 153.4035017
 103.5339987  94.6765006 153.4035017 102.3369987  95.6035006 153.4035017
 102.7739987  96.4755006 155.3845017 103.7309987  96.4755006 155.3845017
 102.5339987  97.4025006 155.3845017  95.8619987 107.9035006 137.7485017
  96.8189987 107.9035006 137.7485017  95.6219987 108.8305006 137.7485017
  95.4559987 104.5355006 147.3665017  96.4129987 104.5355006 147.3665017
  95.2159987 105.4625006 147.3665017  95.0759987  99.8475006 153.5235017
  96.0329987  99.8475006 153.5235017  94.8359987 100.7745006 153.5235017
  96.2789987  98.1395006 146.3825017  97.2359987  98.1395006 146.3825017
  96.0389987  99.0665006 146.3825017  94.5679987 101.1295006 147.4325017
  95.5249987 101.1295006 147.4325017  94.3279987 102.0565006 147.4325017
  94.9319987  97.3995006 141.5065017  95.8889987  97.3995006 141.5065017
  94.6919987  98.3265006 141.5065017  94.8849987  96.0755006 149.8085017
  95.8419987  96.0755006 149.8085017  94.6449987  97.0025006 149.8085017
 105.0149987  96.9925006 145.8315017 105.9719987  96.9925006 145.8315017
 104.7749987  97.9195006 145.8315017  97.3939987  95.6295006 143.6855017
  98.3509987  95.6295006 143.6855017  97.1539987  96.5565006 143.6855017
  96.1579987  95.3915006 139.3905017  97.1149987  95.3915006 139.3905017
  95.9179987  96.3185006 139.3905017 101.8999987  95.5385006 143.4755017
 102.8569987  95.5385006 143.4755017 101.6599987  96.4655006 143.4755017
 107.4849987  95.4855006 145.2685017 108.4419987  95.4855006 145.2685017
 107.2449987  96.4125006 145.2685017  98.0089987  97.3335006 137.9555017
  98.9659987  97.3335006 137.9555017  97.7689987  98.2605006 137.9555017
 103.0509987  97.5835006 140.3445017 104.0079987  97.5835006 140.3445017
 102.8109987  98.5105006 140.3445017  97.3109987  96.1515006 153.1315017
  98.2679987  96.1515006 153.1315017  97.0709987  97.0785006 153.1315017
  99.3129987  95.5225006 154.7085017 100.2699987  95.5225006 154.7085017
  99.0729987  96.4495006 154.7085017  -0.0900013  94.9005006 154.9515017
   0.8669987  94.9005006 154.9515017  -0.3300013  95.8275006 154.9515017
  12.1829987  10.4885006   1.9015017  13.1399987  10.4885006   1.9015017
  11.9429987  11.4155006   1.9015017  11.0519987   9.7645006   5.3685017
  12.0089987   9.7645006   5.3685017  10.8119987  10.6915006   5.3685017
   3.4769987   9.3805006   6.8985017   4.4339987   9.3805006   6.8985017
   3.2369987  10.3075006   6.8985017  14.7399987  12.6985006   3.6425017
  15.6969987  12.6985006   3.6425017  14.4999987  13.6255006   3.6425017
   4.3589987  13.8615006   5.4015017   5.3159987  13.8615006   5.4015017
   4.1189987  14.7885006   5.4015017   1.0699987   7.5215006   0.8245017
   2.0269987   7.5215006   0.8245017   0.8299987   8.4485006   0.8245017
   1.6949987   9.6335006   3.0275017   2.6519987   9.6335006   3.0275017
   1.4549987  10.5605006   3.0275017  11.8539987  17.8085006   3.8765017
  12.8109987  17.8085006   3.8765017  11.6139987  18.7355006   3.8765017
   9.4609987  12.1375006   5.8115017  10.4179987  12.1375006   5.8115017
   9.2209987  13.0645006   5.8115017  18.0799987   3.7595006   6.5715017
  19.0369987   3.7595006   6.5715017  17.8399987   4.6865006   6.5715017
  12.6149987   6.5985006   6.1395017  13.5719987   6.5985006   6.1395017
  12.3749987   7.5255006   6.1395017   5.7439987   4.6975006   3.3525017
   6.7009987   4.6975006   3.3525017   5.5039987   5.6245006   3.3525017
  13.4749987   4.7815006   1.7435017  14.4319987   4.7815006   1.7435017
  13.2349987   5.7085006   1.7435017   2.5389987   7.1505006   4.0115017
   3.4959987   7.1505006   4.0115017   2.2989987   8.0775006   4.0115017
   7.5169987   8.6575006   3.3955017   8.4739987   8.6575006   3.3955017
   7.2769987   9.5845006   3.3955017  18.5109987   5.2215006   8.8345017
  19.4679987   5.2215006   8.8345017  18.2709987   6.1485006   8.8345017
   4.6359987   3.6015006   7.4285017   5.5929987   3.6015006   7.4285017
   4.3959987   4.5285006   7.4285017  11.9109987  13.0855006   0.9765017
  12.8679987  13.0855006   0.9765017  11.6709987  14.0125006   0.9765017
   7.1509987  11.2435006   7.6565017   8.1079987  11.2435006   7.6565017
   6.9109987  12.1705006   7.6565017  15.2649987   4.1035006   3.7225017
  16.2219987   4.1035006   3.7225017  15.0249987   5.0305006   3.7225017
   4.2029987   5.4545006   5.4335017   5.1599987   5.4545006   5.4335017
   3.9629987   6.3815006   5.4335017   5.5989987  13.2325006   8.4595017
   6.5559987  13.2325006   8.4595017   5.3589987  14.1595006   8.4595017
   1.7289987  12.9045006 159.7715017   2.6859987  12.9045006 159.7715017
   1.4889987  13.8315006 159.7715017  15.2829987  14.5215006   6.0075017
  16.2399987  14.5215006   6.0075017  15.0429987  15.4485006   6.0075017
  15.6389987   2.8045006   7.4745017  16.5959987   2.8045006   7.4745017
  15.3989987   3.7315006   7.4745017   8.5609987   0.9635006   4.7345017
   9.5179987   0.9635006   4.7345017   8.3209987   1.8905006   4.7345017
  13.5339987  16.3015006   2.6165017  14.4909987  16.3015006   2.6165017
  13.2939987  17.2285006   2.6165017  14.7489987  14.2365006   1.1225017
  15.7059987  14.2365006   1.1225017  14.5089987  15.1635006   1.1225017
  16.3829987  12.8165006   9.6205017  17.3399987  12.8165006   9.6205017
  16.1429987  13.7435006   9.6205017  10.8749987   9.7275006 159.9365017
  11.8319987   9.7275006 159.9365017  10.6349987  10.6545006 159.9365017
  10.9359987   8.2595006 156.9455017  11.8929987   8.2595006 156.9455017
  10.6959987   9.1865006 156.9455017  18.2559987   9.1315006   7.6705017
  19.2129987   9.1315006   7.6705017  18.0159987  10.0585006   7.6705017
  14.3089987   9.9405006   0.3095017  15.2659987   9.9405006   0.3095017
  14.0689987  10.8675006   0.3095017  14.2359987   8.0965006   9.4205017
  15.1929987   8.0965006   9.4205017  13.9959987   9.0235006   9.4205017
   5.9389987  10.6135006   2.2105017   6.8959987  10.6135006   2.2105017
   5.6989987  11.5405006   2.2105017   7.3059987  14.0285006   4.8625017
   8.2629987  14.0285006   4.8625017   7.0659987  14.9555006   4.8625017
   6.2759987   9.3365006   5.8735017   7.2329987   9.3365006   5.8735017
   6.0359987  10.2635006   5.8735017  12.5659987  14.8925006   6.5445017
  13.5229987  14.8925006   6.5445017  12.3259987  15.8195006   6.5445017
   7.2039987  13.7595006  10.5765017   8.1609987  13.7595006  10.5765017
   6.9639987  14.6865006  10.5765017  13.1769987   9.1235006 158.5265017
  14.1339987   9.1235006 158.5265017  12.9369987  10.0505006 158.5265017
   4.1259987   9.9325006   9.7665017   5.0829987   9.9325006   9.7665017
   3.8859987  10.8595006   9.7665017  10.8589987  15.8305006   1.4925017
  11.8159987  15.8305006   1.4925017  10.6189987  16.7575006   1.4925017
   5.4399987  15.8105006  11.3315017   6.3969987  15.8105006  11.3315017
   5.1999987  16.7375006  11.3315017  16.9189987   0.8985006 158.3825017
  17.8759987   0.8985006 158.3825017  16.6789987   1.8255006 158.3825017
   4.9039987   9.6435006 160.3965017   5.8609987   9.6435006 160.3965017
   4.6639987  10.5705006 160.3965017  18.0259987  15.2145006 156.7605017
  18.9829987  15.2145006 156.7605017  17.7859987  16.1415006 156.7605017
   1.1249987  12.0175006   8.6535017   2.0819987  12.0175006   8.6535017
   0.8849987  12.9445006   8.6535017   1.0199987  14.9155006   5.2165017
   1.9769987  14.9155006   5.2165017   0.7799987  15.8425006   5.2165017
  18.9889987  15.4795006  11.1935017  19.9459987  15.4795006  11.1935017
  18.7489987  16.4065006  11.1935017   9.9349987  15.0325006  10.0315017
  10.8919987  15.0325006  10.0315017   9.6949987  15.9595006  10.0315017
  10.3679987  18.7765006 160.4085017  11.3249987  18.7765006 160.4085017
  10.1279987  19.7035006 160.4085017   4.0339987  17.5965006   1.6385017
   4.9909987  17.5965006   1.6385017   3.7939987  18.5235006   1.6385017
  13.4449987  17.9775006 157.3875017  14.4019987  17.9775006 157.3875017
  13.2049987  18.9045006 157.3875017  13.1329987  17.9055006 160.1525017
  14.0899987  17.9055006 160.1525017  12.8929987  18.8325006 160.1525017
  16.1269987   6.9585006  11.6765017  17.0839987   6.9585006  11.6765017
  15.8869987   7.8855006  11.6765017   3.2649987  13.3875006   9.6825017
   4.2219987  13.3875006   9.6825017   3.0249987  14.3145006   9.6825017
   6.0019987   1.9225006   5.5605017   6.9589987   1.9225006   5.5605017
   5.7619987   2.8495006   5.5605017  10.6079987   1.5595006   9.0465017
  11.5649987   1.5595006   9.0465017  10.3679987   2.4865006   9.0465017
  13.8799987   5.2995006   9.8825017  14.8369987   5.2995006   9.8825017
  13.6399987   6.2265006   9.8825017  14.6329987  10.1565006 156.2805017
  15.5899987  10.1565006 156.2805017  14.3929987  11.0835006 156.2805017
  10.2329987   4.0655006 156.8515017  11.1899987   4.0655006 156.8515017
   9.9929987   4.9925006 156.8515017   6.0449987   6.7945006   6.8425017
   7.0019987   6.7945006   6.8425017   5.8049987   7.7215006   6.8425017
   5.9769987   6.9475006   1.7155017   6.9339987   6.9475006   1.7155017
   5.7369987   7.8745006   1.7155017  11.5209987   7.4225006   0.5095017
  12.4779987   7.4225006   0.5095017  11.2809987   8.3495006   0.5095017
  10.5979987   7.6255006  11.9555017  11.5549987   7.6255006  11.9555017
  10.3579987   8.5525006  11.9555017  12.5529987   6.9015006   3.3455017
  13.5099987   6.9015006   3.3455017  12.3129987   7.8285006   3.3455017
   3.7039987   7.0675006   8.5835017   4.6609987   7.0675006   8.5835017
   3.4639987   7.9945006   8.5835017   7.0839987   4.4895006 155.9645017
   8.0409987   4.4895006 155.9645017   6.8439987   5.4165006 155.9645017
   0.4449987   3.4725006   2.8555017   1.4019987   3.4725006   2.8555017
   0.2049987   4.3995006   2.8555017   1.7769987   4.8835006 158.4735017
   2.7339987   4.8835006 158.4735017   1.5369987   5.8105006 158.4735017
  11.7699987   8.5035006   7.9295017  12.7269987   8.5035006   7.9295017
  11.5299987   9.4305006   7.9295017   8.5689987   4.4755006   2.7415017
   9.5259987   4.4755006   2.7415017   8.3289987   5.4025006   2.7415017
   3.3949987   6.0255006   1.6025017   4.3519987   6.0255006   1.6025017
   3.1549987   6.9525006   1.6025017   7.0219987   6.0735006 159.7905017
   7.9789987   6.0735006 159.7905017   6.7819987   7.0005006 159.7905017
  12.9819987   3.6755006   5.9895017  13.9389987   3.6755006   5.9895017
  12.7419987   4.6025006   5.9895017   5.6939987   7.2515006 157.3585017
   6.6509987   7.2515006 157.3585017   5.4539987   8.1785006 157.3585017
  16.1869987  19.3475006  12.3095017  17.1439987  19.3475006  12.3095017
  15.9469987  20.2745006  12.3095017   3.8569987  11.7935006  11.8935017
   4.8139987  11.7935006  11.8935017   3.6169987  12.7205006  11.8935017
   9.8589987   7.2275006   4.6415017  10.8159987   7.2275006   4.6415017
   9.6189987   8.1545006   4.6415017   4.8429987   3.3775006   1.0445017
   5.7999987   3.3775006   1.0445017   4.6029987   4.3045006   1.0445017
   8.4909987   5.5775006   7.0485017   9.4479987   5.5775006   7.0485017
   8.2509987   6.5045006   7.0485017   9.0699987  11.8075006 159.2835017
  10.0269987  11.8075006 159.2835017   8.8299987  12.7345006 159.2835017
  16.2419987  10.9665006   7.5515017  17.1989987  10.9665006   7.5515017
  16.0019987  11.8935006   7.5515017  12.9299987   4.6015006 157.4645017
  13.8869987   4.6015006 157.4645017  12.6899987   5.5285006 157.4645017
  10.5579987  12.0375006   9.9695017  11.5149987  12.0375006   9.9695017
  10.3179987  12.9645006   9.9695017  13.6469987   6.5055006 159.1125017
  14.6039987   6.5055006 159.1125017  13.4069987   7.4325006 159.1125017
   4.1789987  11.1695006   4.5235017   5.1359987  11.1695006   4.5235017
   3.9389987  12.0965006   4.5235017  11.1869987  13.2575006 158.3225017
  12.1439987  13.2575006 158.3225017  10.9469987  14.1845006 158.3225017
   1.1629987   9.5825006   9.8245017   2.1199987   9.5825006   9.8245017
   0.9229987  10.5095006   9.8245017   8.1889987   9.1345006  12.0075017
   9.1459987   9.1345006  12.0075017   7.9489987  10.0615006  12.0075017
  12.8509987  14.4675006   9.9125017  13.8079987  14.4675006   9.9125017
  12.6109987  15.3945006   9.9125017  18.5419987   6.6685006 158.8695017
  19.4989987   6.6685006 158.8695017  18.3019987   7.5955006 158.8695017
  18.5279987  12.5185006  11.1475017  19.4849987  12.5185006  11.1475017
  18.2879987  13.4455006  11.1475017  16.8139987  15.4875006 159.2795017
  17.7709987  15.4875006 159.2795017  16.5739987  16.4145006 159.2795017
  14.0239987  10.3155006   5.8155017  14.9809987  10.3155006   5.8155017
  13.7839987  11.2425006   5.8155017   6.5659987  14.6095006   1.9135017
   7.5229987  14.6095006   1.9135017   6.3259987  15.5365006   1.9135017
   2.2829987   9.4515006 157.0815017   3.2399987   9.4515006 157.0815017
   2.0429987  10.3785006 157.0815017   7.9859987  12.2985006   1.4735017
   8.9429987  12.2985006   1.4735017   7.7459987  13.2255006   1.4735017
   8.4719987  16.4365006   7.7995017   9.4289987  16.4365006   7.7995017
   8.2319987  17.3635006   7.7995017   6.6599987  17.2585006   1.0145017
   7.6169987  17.2585006   1.0145017   6.4199987  18.1855006   1.0145017
  11.9429987  12.4905006   7.4595017  12.8999987  12.4905006   7.4595017
  11.7029987  13.4175006   7.4595017  14.2729987  13.5245006 157.1045017
  15.2299987  13.5245006 157.1045017  14.0329987  14.4515006 157.1045017
  14.7439987  17.0665006   9.9815017  15.7009987  17.0665006   9.9815017
  14.5039987  17.9935006   9.9815017  18.7479987  17.9075006 157.3565017
  19.7049987  17.9075006 157.3565017  18.5079987  18.8345006 157.3565017
   2.8199987   4.3335006   9.3905017   3.7769987   4.3335006   9.3905017
   2.5799987   5.2605006   9.3905017  15.0629987  12.1765006 159.3465017
  16.0199987  12.1765006 159.3465017  14.8229987  13.1035006 159.3465017
   2.4899987  16.1165006   7.7705017   3.4469987  16.1165006   7.7705017
   2.2499987  17.0435006   7.7705017   8.3909987  14.6175006 155.5925017
   9.3479987  14.6175006 155.5925017   8.1509987  15.5445006 155.5925017
   7.1869987  14.1495006 158.0625017   8.1439987  14.1495006 158.0625017
   6.9469987  15.0765006 158.0625017   3.7169987  11.3755006 158.5705017
   4.6739987  11.3755006 158.5705017   3.4769987  12.3025006 158.5705017
  11.5539987   4.0815006   8.3005017  12.5109987   4.0815006   8.3005017
  11.3139987   5.0085006   8.3005017  12.3279987   3.6585006 159.9375017
  13.2849987   3.6585006 159.9375017  12.0879987   4.5855006 159.9375017
   9.9969987  15.8205006 158.7665017  10.9539987  15.8205006 158.7665017
   9.7569987  16.7475006 158.7665017   9.5449987   5.3995006   0.2215017
  10.5019987   5.3995006   0.2215017   9.3049987   6.3265006   0.2215017
  10.0839987   6.4285006   9.4075017  11.0409987   6.4285006   9.4075017
   9.8439987   7.3555006   9.4075017  10.4039987   2.4775006   1.1375017
  11.3609987   2.4775006   1.1375017  10.1639987   3.4045006   1.1375017
   7.3549987  16.8515006 158.7795017   8.3119987  16.8515006 158.7795017
   7.1149987  17.7785006 158.7795017   6.0379987   3.5835006 158.3605017
   6.9949987   3.5835006 158.3605017   5.7979987   4.5105006 158.3605017
  16.2749987   4.3255006  10.2455017  17.2319987   4.3255006  10.2455017
  16.0349987   5.2525006  10.2455017  14.8749987   8.0945006   4.2865017
  15.8319987   8.0945006   4.2865017  14.6349987   9.0215006   4.2865017
   4.3039987  13.9975006 157.4625017   5.2609987  13.9975006 157.4625017
   4.0639987  14.9245006 157.4625017   2.6269987   6.7385006 156.6305017
   3.5839987   6.7385006 156.6305017   2.3869987   7.6655006 156.6305017
  15.9389987  17.3475006   5.9515017  16.8959987  17.3475006   5.9515017
  15.6989987  18.2745006   5.9515017   3.2309987   1.6595006   4.6015017
   4.1879987   1.6595006   4.6015017   2.9909987   2.5865006   4.6015017
   2.3039987  15.5335006   0.9655017   3.2609987  15.5335006   0.9655017
   2.0639987  16.4605006   0.9655017   1.7149987  17.9865006  12.1115017
   2.6719987  17.9865006  12.1115017   1.4749987  18.9135006  12.1115017
   6.2679987  16.9495006  13.7945017   7.2249987  16.9495006  13.7945017
   6.0279987  17.8765006  13.7945017  10.3959987  16.4715006 155.7235017
  11.3529987  16.4715006 155.7235017  10.1559987  17.3985006 155.7235017
  12.8029987  15.3375006  12.5255017  13.7599987  15.3375006  12.5255017
  12.5629987  16.2645006  12.5255017  14.9679987  16.2295006 155.9245017
  15.9249987  16.2295006 155.9245017  14.7279987  17.1565006 155.9245017
   1.5089987  11.8265006  13.1675017   2.4659987  11.8265006  13.1675017
   1.2689987  12.7535006  13.1675017   5.8629987  12.1695006 155.7755017
   6.8199987  12.1695006 155.7755017   5.6229987  13.0965006 155.7755017
   8.2309987  11.8025006  12.5615017   9.1879987  11.8025006  12.5615017
   7.9909987  12.7295006  12.5615017  11.2829987  13.2575006 155.5185017
  12.2399987  13.2575006 155.5185017  11.0429987  14.1845006 155.5185017
  13.9339987  11.6725006   9.9465017  14.8909987  11.6725006   9.9465017
  13.6939987  12.5995006   9.9465017   2.3709987   9.0275006  12.5455017
   3.3279987   9.0275006  12.5455017   2.1309987   9.9545006  12.5455017
   7.0509987  10.1815006 158.1525017   8.0079987  10.1815006 158.1525017
   6.8109987  11.1085006 158.1525017   6.3379987   7.9985006   9.9175017
   7.2949987   7.9985006   9.9175017   6.0979987   8.9255006   9.9175017
   8.1329987   8.3955006 156.3675017   9.0899987   8.3955006 156.3675017
   7.8929987   9.3225006 156.3675017  11.3949987  10.5425006  13.2335017
  12.3519987  10.5425006  13.2335017  11.1549987  11.4695006  13.2335017
  17.4909987  10.7245006 155.7955017  18.4479987  10.7245006 155.7955017
  17.2509987  11.6515006 155.7955017   6.7239987   5.3685006  10.9815017
   7.6809987   5.3685006  10.9815017   6.4839987   6.2955006  10.9815017
   7.1399987   3.7405006   8.5195017   8.0969987   3.7405006   8.5195017
   6.8999987   4.6675006   8.5195017   8.6819987   9.2135006   8.7645017
   9.6389987   9.2135006   8.7645017   8.4419987  10.1405006   8.7645017
  13.0799987   6.9975006  13.7395017  14.0369987   6.9975006  13.7395017
  12.8399987   7.9245006  13.7395017  14.4049987   9.7885006  11.8815017
  15.3619987   9.7885006  11.8815017  14.1649987  10.7155006  11.8815017
   5.1789987   6.6255006  12.8955017   6.1359987   6.6255006  12.8955017
   4.9389987   7.5525006  12.8955017   8.0029987   1.2295006   8.7945017
   8.9599987   1.2295006   8.7945017   7.7629987   2.1565006   8.7945017
   9.1899987   5.5165006  12.5185017  10.1469987   5.5165006  12.5185017
   8.9499987   6.4435006  12.5185017  11.9099987   4.6865006  11.6125017
  12.8669987   4.6865006  11.6125017  11.6699987   5.6135006  11.6125017
  13.5389987   3.3055006  13.5485017  14.4959987   3.3055006  13.5485017
  13.2989987   4.2325006  13.5485017   3.3269987   4.5335006  12.6495017
   4.2839987   4.5335006  12.6495017   3.0869987   5.4605006  12.6495017
   8.7129987 108.5275006  11.6665017   9.6699987 108.5275006  11.6665017
   8.4729987 109.4545006  11.6665017   8.4869987   2.2525006  13.7555017
   9.4439987   2.2525006  13.7555017   8.2469987   3.1795006  13.7555017
   7.9809987  19.0995006 157.4325017   8.9379987  19.0995006 157.4325017
   7.7409987  20.0265006 157.4325017   1.5939987  13.6815006 156.9125017
   2.5509987  13.6815006 156.9125017   1.3539987  14.6085006 156.9125017
 108.0889987  19.1325006   1.3595017 109.0459987  19.1325006   1.3595017
 107.8489987  20.0595006   1.3595017   1.5159987  17.3345006   3.3095017
   2.4729987  17.3345006   3.3095017   1.2759987  18.2615006   3.3095017
  18.6619987  17.9905006   6.1485017  19.6189987  17.9905006   6.1485017
  18.4219987  18.9175006   6.1485017  18.2379987  17.5885006   9.0925017
  19.1949987  17.5885006   9.0925017  17.9979987  18.5155006   9.0925017
  16.6829987  13.3205006  13.7475017  17.6399987  13.3205006  13.7475017
  16.4429987  14.2475006  13.7475017  17.9899987  11.6315006 159.7455017
  18.9469987  11.6315006 159.7455017  17.7499987  12.5585006 159.7455017
  18.3639987   9.7025006   1.0705017  19.3209987   9.7025006   1.0705017
  18.1239987  10.6295006   1.0705017  18.1159987  12.4195006   6.0525017
  19.0729987  12.4195006   6.0525017  17.8759987  13.3465006   6.0525017
  16.6649987  15.3155006   8.3335017  17.6219987  15.3155006   8.3335017
  16.4249987  16.2425006   8.3335017  18.6649987   9.5385006 158.0105017
  19.6219987   9.5385006 158.0105017  18.4249987  10.4655006 158.0105017
  17.0299987   6.7845006 156.5315017  17.9869987   6.7845006 156.5315017
  16.7899987   7.7115006 156.5315017  16.1769987   8.1875006   1.6345017
  17.1339987   8.1875006   1.6345017  15.9369987   9.1145006   1.6345017
   1.1829987  10.2585006   5.6975017   2.1399987  10.2585006   5.6975017
   0.9429987  11.1855006   5.6975017  17.0259987  10.1585006  11.3135017
  17.9829987  10.1585006  11.3135017  16.7859987  11.0855006  11.3135017
  18.5369987   8.0485006  11.9785017  19.4939987   8.0485006  11.9785017
  18.2969987   8.9755006  11.9785017  16.2569987   4.2595006 155.6885017
  17.2139987   4.2595006 155.6885017  16.0169987   5.1865006 155.6885017
  15.8349987   5.7785006 160.6145017  16.7919987   5.7785006 160.6145017
  15.5949987   6.7055006 160.6145017  16.4789987   6.3265006   5.5315017
  17.4359987   6.3265006   5.5315017  16.2389987   7.2535006   5.5315017
  16.5439987   7.0555006   8.3205017  17.5009987   7.0555006   8.3205017
  16.3039987   7.9825006   8.3205017   0.8829987   5.5375006  11.7615017
   1.8399987   5.5375006  11.7615017   0.6429987   6.4645006  11.7615017
  18.7509987   1.1855006  13.6155017  19.7079987   1.1855006  13.6155017
  18.5109987   2.1125006  13.6155017  16.4969987   3.0585006   0.1205017
  17.4539987   3.0585006   0.1205017  16.2569987   3.9855006   0.1205017
   2.0529987   3.9345006   4.6945017   3.0099987   3.9345006   4.6945017
   1.8129987   4.8615006   4.6945017   0.8849987   6.8355006   5.9045017
   1.8419987   6.8355006   5.9045017   0.6449987   7.7625006   5.9045017
  18.3379987   3.2095006  12.0145017  19.2949987   3.2095006  12.0145017
  18.0979987   4.1365006  12.0145017  18.3529987   3.1185006 157.2525017
  19.3099987   3.1185006 157.2525017  18.1129987   4.0455006 157.2525017
   0.8789987   3.0335006 160.3875017   1.8359987   3.0335006 160.3875017
   0.6389987   3.9605006 160.3875017  15.3789987  18.0845006   1.7615017
  16.3359987  18.0845006   1.7615017  15.1389987  19.0115006   1.7615017
 108.3439987   1.8605006   8.1865017 109.3009987   1.8605006   8.1865017
 108.1039987   2.7875006   8.1865017   2.8159987  15.0105006  12.2965017
   3.7729987  15.0105006  12.2965017   2.5759987  15.9375006  12.2965017
   5.7389987  15.9705006   8.5375017   6.6959987  15.9705006   8.5375017
   5.4989987  16.8975006   8.5375017  10.0569987  17.4025006  11.4695017
  11.0139987  17.4025006  11.4695017   9.8169987  18.3295006  11.4695017
  12.3559987  18.6725006  10.7585017  13.3129987  18.6725006  10.7585017
  12.1159987  19.5995006  10.7585017  17.4409987   1.4255006   9.8145017
  18.3979987   1.4255006   9.8145017  17.2009987   2.3525006   9.8145017
   3.1489987  19.2355006   8.5855017   4.1059987  19.2355006   8.5855017
   2.9089987  20.1625006   8.5855017   5.6469987  18.8165006   7.6295017
   6.6039987  18.8165006   7.6295017   5.4069987  19.7435006   7.6295017
  10.3279987  18.7065006   6.7895017  11.2849987  18.7065006   6.7895017
  10.0879987  19.6335006   6.7895017  12.6379987  17.5345006   7.7675017
  13.5949987  17.5345006   7.7675017  12.3979987  18.4615006   7.7675017
  15.2209987  19.1125006   8.0495017  16.1779987  19.1125006   8.0495017
  14.9809987  20.0395006   8.0495017   2.6389987  17.8945006   5.5505017
   3.5959987  17.8945006   5.5505017   2.3989987  18.8215006   5.5505017
   4.7009987  16.5645006   4.1155017   5.6579987  16.5645006   4.1155017
   4.4609987  17.4915006   4.1155017   7.2899987  17.0615006   5.0165017
   8.2469987  17.0615006   5.0165017   7.0499987  17.9885006   5.0165017
  10.7439987   2.7455006   4.1565017  11.7009987   2.7455006   4.1565017
  10.5039987   3.6725006   4.1565017  15.9649987   1.0805006   4.4125017
  16.9219987   1.0805006   4.4125017  15.7249987   2.0075006   4.4125017
  17.5979987   1.9945006   2.5365017  18.5549987   1.9945006   2.5365017
  17.3579987   2.9215006   2.5365017   3.1069987   1.3465006   1.9365017
   4.0639987   1.3465006   1.9365017   2.8669987   2.2735006   1.9365017
   2.1929987   1.5005006 158.6575017   3.1499987   1.5005006 158.6575017
   1.9529987   2.4275006 158.6575017   7.6309987   1.3045006   1.7795017
   8.5879987   1.3045006   1.7795017   7.3909987   2.2315006   1.7795017
  13.2229987   1.3265006   3.4265017  14.1799987   1.3265006   3.4265017
  12.9829987   2.2535006   3.4265017  14.5769987   1.3535006 159.7125017
  15.5339987   1.3535006 159.7125017  14.3369987   2.2805006 159.7125017
   1.9239987  17.0595006 159.2755017   2.8809987  17.0595006 159.2755017
   1.6839987  17.9865006 159.2755017   3.7249987   3.0765006 156.7325017
   4.6819987   3.0765006 156.7325017   3.4849987   4.0035006 156.7325017
   8.7359987   3.3105006 159.2005017   9.6929987   3.3105006 159.2005017
   8.4959987   4.2375006 159.2005017  10.6769987  18.3335006 157.6365017
  11.6339987  18.3335006 157.6365017  10.4369987  19.2605006 157.6365017
  17.3909987  17.8625006 160.3395017  18.3479987  17.8625006 160.3395017
  17.1509987  18.7895006 160.3395017   2.9889987   1.9195006  11.5245017
   3.9459987   1.9195006  11.5245017   2.7489987   2.8465006  11.5245017
   5.0109987   1.2525006  13.0715017   5.9679987   1.2525006  13.0715017
   4.7709987   2.1795006  13.0715017   3.5869987  18.0105006 156.2145017
   4.5439987  18.0105006 156.2145017   3.3469987  18.9375006 156.2145017
  13.4939987 108.3825006  13.0995017  14.4509987 108.3825006  13.0995017
  13.2539987 109.3095006  13.0995017  16.6269987  16.6015006  11.8955017
  17.5839987  16.6015006  11.8955017  16.3869987  17.5285006  11.8955017
  31.0559987  10.4795006   1.8835017  32.0129987  10.4795006   1.8835017
  30.8159987  11.4065006   1.8835017  29.9289987   9.7475006   5.3675017
  30.8859987   9.7475006   5.3675017  29.6889987  10.6745006   5.3675017
  22.2839987   9.4025006   6.9225017  23.2409987   9.4025006   6.9225017
  22.0439987  10.3295006   6.9225017  33.6259987  12.6875006   3.6435017
  34.5829987  12.6875006   3.6435017  33.3859987  13.6145006   3.6435017
  23.2119987  13.8525006   5.4455017  24.1689987  13.8525006   5.4455017
  22.9719987  14.7795006   5.4455017  19.8549987   7.4315006   0.9025017
  20.8119987   7.4315006   0.9025017  19.6149987   8.3585006   0.9025017
  20.5509987   9.6535006   3.0355017  21.5079987   9.6535006   3.0355017
  20.3109987  10.5805006   3.0355017  30.6749987  17.7385006   3.8645017
  31.6319987  17.7385006   3.8645017  30.4349987  18.6655006   3.8645017
  28.3039987  12.1545006   5.8115017  29.2609987  12.1545006   5.8115017
  28.0639987  13.0815006   5.8115017  36.9379987   3.7615006   6.5675017
  37.8949987   3.7615006   6.5675017  36.6979987   4.6885006   6.5675017
  31.4699987   6.5985006   6.1395017  32.4269987   6.5985006   6.1395017
  31.2299987   7.5255006   6.1395017  24.5999987   4.7025006   3.3625017
  25.5569987   4.7025006   3.3625017  24.3599987   5.6295006   3.3625017
  32.3369987   4.7915006   1.7455017  33.2939987   4.7915006   1.7455017
  32.0969987   5.7185006   1.7455017  21.2149987   7.1055006   4.1085017
  22.1719987   7.1055006   4.1085017  20.9749987   8.0325006   4.1085017
  26.3769987   8.6595006   3.3955017  27.3339987   8.6595006   3.3955017
  26.1369987   9.5865006   3.3955017  37.3659987   5.2215006   8.8345017
  38.3229987   5.2215006   8.8345017  37.1259987   6.1485006   8.8345017
  23.4929987   3.6045006   7.4215017  24.4499987   3.6045006   7.4215017
  23.2529987   4.5315006   7.4215017  30.7929987  13.0845006   0.9575017
  31.7499987  13.0845006   0.9575017  30.5529987  14.0115006   0.9575017
  26.0099987  11.2415006   7.6695017  26.9669987  11.2415006   7.6695017
  25.7699987  12.1685006   7.6695017  34.1239987   4.1085006   3.7205017
  35.0809987   4.1085006   3.7205017  33.8839987   5.0355006   3.7205017
  23.0389987   5.4805006   5.4155017  23.9959987   5.4805006   5.4155017
  22.7989987   6.4075006   5.4155017  24.4469987  13.2315006   8.4795017
  25.4039987  13.2315006   8.4795017  24.2069987  14.1585006   8.4795017
  20.5339987  12.8675006 159.8155017  21.4909987  12.8675006 159.8155017
  20.2939987  13.7945006 159.8155017  34.1489987  14.5205006   6.0145017
  35.1059987  14.5205006   6.0145017  33.9089987  15.4475006   6.0145017
  34.4989987   2.8005006   7.4765017  35.4559987   2.8005006   7.4765017
  34.2589987   3.7275006   7.4765017  27.4179987   0.9635006   4.7345017
  28.3749987   0.9635006   4.7345017  27.1779987   1.8905006   4.7345017
  32.4029987  16.2995006   2.6165017  33.3599987  16.2995006   2.6165017
  32.1629987  17.2265006   2.6165017  33.6179987  14.2345006   1.1175017
  34.5749987  14.2345006   1.1175017  33.3779987  15.1615006   1.1175017
  35.2399987  12.8155006   9.6205017  36.1969987  12.8155006   9.6205017
  34.9999987  13.7425006   9.6205017  29.7309987   9.7255006 159.9365017
  30.6879987   9.7255006 159.9365017  29.4909987  10.6525006 159.9365017
  29.7909987   8.2595006 156.9455017  30.7479987   8.2595006 156.9455017
  29.5509987   9.1865006 156.9455017  37.1159987   9.1305006   7.6735017
  38.0729987   9.1305006   7.6735017  36.8759987  10.0575006   7.6735017
  33.1699987   9.9425006   0.3095017  34.1269987   9.9425006   0.3095017
  32.9299987  10.8695006   0.3095017  33.0899987   8.0965006   9.4205017
  34.0469987   8.0965006   9.4205017  32.8499987   9.0235006   9.4205017
  24.7849987  10.5965006   2.2205017  25.7419987  10.5965006   2.2205017
  24.5449987  11.5235006   2.2205017  26.1099987  13.9885006   4.9035017
  27.0669987  13.9885006   4.9035017  25.8699987  14.9155006   4.9035017
  25.1229987   9.3385006   5.8715017  26.0799987   9.3385006   5.8715017
  24.8829987  10.2655006   5.8715017  31.5089987  14.9015006   6.5775017
  32.4659987  14.9015006   6.5775017  31.2689987  15.8285006   6.5775017
  26.0619987  13.7605006  10.5755017  27.0189987  13.7605006  10.5755017
  25.8219987  14.6875006  10.5755017  32.0209987   9.1245006 158.5215017
  32.9779987   9.1245006 158.5215017  31.7809987  10.0515006 158.5215017
  22.9959987   9.9275006   9.7515017  23.9529987   9.9275006   9.7515017
  22.7559987  10.8545006   9.7515017  29.7599987  15.8525006   1.4385017
  30.7169987  15.8525006   1.4385017  29.5199987  16.7795006   1.4385017
  24.3029987  15.8115006  11.3295017  25.2599987  15.8115006  11.3295017
  24.0629987  16.7385006  11.3295017  35.7749987   0.8985006 158.3835017
  36.7319987   0.8985006 158.3835017  35.5349987   1.8255006 158.3835017
  23.7609987   9.6225006 160.3785017  24.7179987   9.6225006 160.3785017
  23.5209987  10.5495006 160.3785017  36.8809987  15.2385006 156.7275017
  37.8379987  15.2385006 156.7275017  36.6409987  16.1655006 156.7275017
  19.8539987  12.0435006   8.7025017  20.8109987  12.0435006   8.7025017
  19.6139987  12.9705006   8.7025017  19.6079987  14.7795006   5.5075017
  20.5649987  14.7795006   5.5075017  19.3679987  15.7065006   5.5075017
  37.8449987  15.4795006  11.1935017  38.8019987  15.4795006  11.1935017
  37.6049987  16.4065006  11.1935017  28.8019987  15.0235006  10.0575017
  29.7589987  15.0235006  10.0575017  28.5619987  15.9505006  10.0575017
  29.2239987  18.7705006 160.3995017  30.1809987  18.7705006 160.3995017
  28.9839987  19.6975006 160.3995017  22.8769987  17.6365006   1.6695017
  23.8339987  17.6365006   1.6695017  22.6369987  18.5635006   1.6695017
  32.3229987  17.9945006 157.3905017  33.2799987  17.9945006 157.3905017
  32.0829987  18.9215006 157.3905017  31.9829987  17.8805006 160.1255017
  32.9399987  17.8805006 160.1255017  31.7429987  18.8075006 160.1255017
  34.9819987   6.9605006  11.6775017  35.9389987   6.9605006  11.6775017
  34.7419987   7.8875006  11.6775017  22.1239987  13.3585006   9.6685017
  23.0809987  13.3585006   9.6685017  21.8839987  14.2855006   9.6685017
  24.8869987   1.9225006   5.5675017  25.8439987   1.9225006   5.5675017
  24.6469987   2.8495006   5.5675017  29.4639987   1.5585006   9.0465017
  30.4209987   1.5585006   9.0465017  29.2239987   2.4855006   9.0465017
  32.7359987   5.2995006   9.8825017  33.6929987   5.2995006   9.8825017
  32.4959987   6.2265006   9.8825017  33.4909987  10.1515006 156.2825017
  34.4479987  10.1515006 156.2825017  33.2509987  11.0785006 156.2825017
  29.0889987   4.0655006 156.8505017  30.0459987   4.0655006 156.8505017
  28.8489987   4.9925006 156.8505017  24.8939987   6.7895006   6.8445017
  25.8509987   6.7895006   6.8445017  24.6539987   7.7165006   6.8445017
  24.8589987   6.9495006   1.7225017  25.8159987   6.9495006   1.7225017
  24.6189987   7.8765006   1.7225017  30.3809987   7.4215006   0.5125017
  31.3379987   7.4215006   0.5125017  30.1409987   8.3485006   0.5125017
  29.4539987   7.6255006  11.9555017  30.4109987   7.6255006  11.9555017
  29.2139987   8.5525006  11.9555017  31.4089987   6.9015006   3.3455017
  32.3659987   6.9015006   3.3455017  31.1689987   7.8285006   3.3455017
  22.5419987   7.0735006   8.5755017  23.4989987   7.0735006   8.5755017
  22.3019987   8.0005006   8.5755017  25.9219987   4.4935006 155.9695017
  26.8789987   4.4935006 155.9695017  25.6819987   5.4205006 155.9695017
  19.1749987   4.2085006   2.5125017  20.1319987   4.2085006   2.5125017
  18.9349987   5.1355006   2.5125017  20.4639987   4.9265006 158.4615017
  21.4209987   4.9265006 158.4615017  20.2239987   5.8535006 158.4615017
  30.6229987   8.5055006   7.9295017  31.5799987   8.5055006   7.9295017
  30.3829987   9.4325006   7.9295017  27.4239987   4.4745006   2.7415017
  28.3809987   4.4745006   2.7415017  27.1839987   5.4015006   2.7415017
  22.2409987   6.0435006   1.6125017  23.1979987   6.0435006   1.6125017
  22.0009987   6.9705006   1.6125017  25.8819987   6.0705006 159.7875017
  26.8389987   6.0705006 159.7875017  25.6419987   6.9975006 159.7875017
  31.8379987   3.6745006   5.9895017  32.7949987   3.6745006   5.9895017
  31.5979987   4.6015006   5.9895017  24.5749987   7.2505006 157.3705017
  25.5319987   7.2505006 157.3705017  24.3349987   8.1775006 157.3705017
  35.0469987  19.3385006  12.3085017  36.0039987  19.3385006  12.3085017
  34.8069987  20.2655006  12.3085017  22.7119987  11.8115006  11.8805017
  23.6689987  11.8115006  11.8805017  22.4719987  12.7385006  11.8805017
  28.7129987   7.2265006   4.6405017  29.6699987   7.2265006   4.6405017
  28.4729987   8.1535006   4.6405017  23.7079987   3.3695006   1.0635017
  24.6649987   3.3695006   1.0635017  23.4679987   4.2965006   1.0635017
  27.3469987   5.5785006   7.0485017  28.3039987   5.5785006   7.0485017
  27.1069987   6.5055006   7.0485017  27.9369987  11.7915006 159.2865017
  28.8939987  11.7915006 159.2865017  27.6969987  12.7185006 159.2865017
  35.0989987  10.9665006   7.5515017  36.0559987  10.9665006   7.5515017
  34.8589987  11.8935006   7.5515017  31.7859987   4.6015006 157.4655017
  32.7429987   4.6015006 157.4655017  31.5459987   5.5285006 157.4655017
  29.4229987  12.0295006   9.9865017  30.3799987  12.0295006   9.9865017
  29.1829987  12.9565006   9.9865017  32.5049987   6.5075006 159.1125017
  33.4619987   6.5075006 159.1125017  32.2649987   7.4345006 159.1125017
  23.0389987  11.1595006   4.5455017  23.9959987  11.1595006   4.5455017
  22.7989987  12.0865006   4.5455017  30.0419987  13.2555006 158.3185017
  30.9989987  13.2555006 158.3185017  29.8019987  14.1825006 158.3185017
  20.0309987   9.5815006   9.8155017  20.9879987   9.5815006   9.8155017
  19.7909987  10.5085006   9.8155017  27.0449987   9.1345006  12.0075017
  28.0019987   9.1345006  12.0075017  26.8049987  10.0615006  12.0075017
  31.7159987  14.4655006   9.9295017  32.6729987  14.4655006   9.9295017
  31.4759987  15.3925006   9.9295017  37.4049987   6.6905006 158.8815017
  38.3619987   6.6905006 158.8815017  37.1649987   7.6175006 158.8815017
  37.3839987  12.5185006  11.1475017  38.3409987  12.5185006  11.1475017
  37.1439987  13.4455006  11.1475017  35.6699987  15.4955006 159.2745017
  36.6269987  15.4955006 159.2745017  35.4299987  16.4225006 159.2745017
  32.8899987  10.3015006   5.8245017  33.8469987  10.3015006   5.8245017
  32.6499987  11.2285006   5.8245017  25.4119987  14.6235006   1.9305017
  26.3689987  14.6235006   1.9305017  25.1719987  15.5505006   1.9305017
  21.1759987   9.4735006 157.0415017  22.1329987   9.4735006 157.0415017
  20.9359987  10.4005006 157.0415017  26.8369987  12.2895006   1.4565017
  27.7939987  12.2895006   1.4565017  26.5969987  13.2165006   1.4565017
  27.2919987  16.4665006   7.8465017  28.2489987  16.4665006   7.8465017
  27.0519987  17.3935006   7.8465017  25.5099987  17.2905006   0.9945017
  26.4669987  17.2905006   0.9945017  25.2699987  18.2175006   0.9945017
  30.8329987  12.4975006   7.4885017  31.7899987  12.4975006   7.4885017
  30.5929987  13.4245006   7.4885017  33.1389987  13.5545006 157.1085017
  34.0959987  13.5545006 157.1085017  32.8989987  14.4815006 157.1085017
  33.6009987  17.0675006   9.9815017  34.5579987  17.0675006   9.9815017
  33.3609987  17.9945006   9.9815017  37.5719987  17.9195006 157.2985017
  38.5289987  17.9195006 157.2985017  37.3319987  18.8465006 157.2985017
  21.6879987   4.3045006   9.3915017  22.6449987   4.3045006   9.3915017
  21.4479987   5.2315006   9.3915017  33.9239987  12.1705006 159.3385017
  34.8809987  12.1705006 159.3385017  33.6839987  13.0975006 159.3385017
  21.3049987  16.1115006   7.7945017  22.2619987  16.1115006   7.7945017
  21.0649987  17.0385006   7.7945017  27.2469987  14.6175006 155.5915017
  28.2039987  14.6175006 155.5915017  27.0069987  15.5445006 155.5915017
  26.0669987  14.1485006 158.0475017  27.0239987  14.1485006 158.0475017
  25.8269987  15.0755006 158.0475017  22.5799987  11.3945006 158.5375017
  23.5369987  11.3945006 158.5375017  22.3399987  12.3215006 158.5375017
  30.4099987   4.0815006   8.3005017  31.3669987   4.0815006   8.3005017
  30.1699987   5.0085006   8.3005017  31.1849987   3.6575006 159.9375017
  32.1419987   3.6575006 159.9375017  30.9449987   4.5845006 159.9375017
  28.8519987  15.8195006 158.7655017  29.8089987  15.8195006 158.7655017
  28.6119987  16.7465006 158.7655017  28.4019987   5.3995006   0.2215017
  29.3589987   5.3995006   0.2215017  28.1619987   6.3265006   0.2215017
  28.9399987   6.4285006   9.4075017  29.8969987   6.4285006   9.4075017
  28.6999987   7.3555006   9.4075017  29.2599987   2.4765006   1.1375017
  30.2169987   2.4765006   1.1375017  29.0199987   3.4035006   1.1375017
  26.2289987  16.8545006 158.7765017  27.1859987  16.8545006 158.7765017
  25.9889987  17.7815006 158.7765017  24.8989987   3.5775006 158.3665017
  25.8559987   3.5775006 158.3665017  24.6589987   4.5045006 158.3665017
  35.1309987   4.3245006  10.2455017  36.0879987   4.3245006  10.2455017
  34.8909987   5.2515006  10.2455017  33.7319987   8.0935006   4.2855017
  34.6889987   8.0935006   4.2855017  33.4919987   9.0205006   4.2855017
  23.1419987  14.0105006 157.4205017  24.0989987  14.0105006 157.4205017
  22.9019987  14.9375006 157.4205017  21.4839987   6.6845006 156.5555017
  22.4409987   6.6845006 156.5555017  21.2439987   7.6115006 156.5555017
  34.7959987  17.3185006   5.9655017  35.7529987  17.3185006   5.9655017
  34.5559987  18.2455006   5.9655017  22.0679987   1.6735006   4.6045017
  23.0249987   1.6735006   4.6045017  21.8279987   2.6005006   4.6045017
  21.2499987  15.3895006   0.8785017  22.2069987  15.3895006   0.8785017
  21.0099987  16.3165006   0.8785017  20.4709987  18.0405006  12.1795017
  21.4279987  18.0405006  12.1795017  20.2309987  18.9675006  12.1795017
  25.1279987  16.9575006  13.7945017  26.0849987  16.9575006  13.7945017
  24.8879987  17.8845006  13.7945017  29.2559987  16.4715006 155.7235017
  30.2129987  16.4715006 155.7235017  29.0159987  17.3985006 155.7235017
  31.6579987  15.3385006  12.5265017  32.6149987  15.3385006  12.5265017
  31.4179987  16.2655006  12.5265017  33.8559987  16.2585006 155.9485017
  34.8129987  16.2585006 155.9485017  33.6159987  17.1855006 155.9485017
  20.3909987  11.8235006  13.1645017  21.3479987  11.8235006  13.1645017
  20.1509987  12.7505006  13.1645017  24.7219987  12.1635006 155.7575017
  25.6789987  12.1635006 155.7575017  24.4819987  13.0905006 155.7575017
  27.0869987  11.8025006  12.5625017  28.0439987  11.8025006  12.5625017
  26.8469987  12.7295006  12.5625017  30.1459987  13.2605006 155.5165017
  31.1029987  13.2605006 155.5165017  29.9059987  14.1875006 155.5165017
  32.7909987  11.6725006   9.9485017  33.7479987  11.6725006   9.9485017
  32.5509987  12.5995006   9.9485017  21.2829987   9.0425006  12.5515017
  22.2399987   9.0425006  12.5515017  21.0429987   9.9695006  12.5515017
  25.9179987  10.1725006 158.1445017  26.8749987  10.1725006 158.1445017
  25.6779987  11.0995006 158.1445017  25.1939987   7.9985006   9.9175017
  26.1509987   7.9985006   9.9175017  24.9539987   8.9255006   9.9175017
  26.9889987   8.3925006 156.3715017  27.9459987   8.3925006 156.3715017
  26.7489987   9.3195006 156.3715017  30.2499987  10.5425006  13.2325017
  31.2069987  10.5425006  13.2325017  30.0099987  11.4695006  13.2325017
  36.3589987  10.7255006 155.8255017  37.3159987  10.7255006 155.8255017
  36.1189987  11.6525006 155.8255017  25.5799987   5.3685006  10.9805017
  26.5369987   5.3685006  10.9805017  25.3399987   6.2955006  10.9805017
  25.9959987   3.7415006   8.5195017  26.9529987   3.7415006   8.5195017
  25.7559987   4.6685006   8.5195017  27.5369987   9.2185006   8.7645017
  28.4939987   9.2185006   8.7645017  27.2969987  10.1455006   8.7645017
  31.9359987   6.9975006  13.7405017  32.8929987   6.9975006  13.7405017
  31.6959987   7.9245006  13.7405017  33.2629987   9.7885006  11.8815017
  34.2199987   9.7885006  11.8815017  33.0229987  10.7155006  11.8815017
  24.0459987   6.6195006  12.9005017  25.0029987   6.6195006  12.9005017
  23.8059987   7.5465006  12.9005017  26.8599987   1.2295006   8.7945017
  27.8169987   1.2295006   8.7945017  26.6199987   2.1565006   8.7945017
  28.0439987   5.5145006  12.5185017  29.0009987   5.5145006  12.5185017
  27.8039987   6.4415006  12.5185017  30.7649987   4.6865006  11.6125017
  31.7219987   4.6865006  11.6125017  30.5249987   5.6135006  11.6125017
  32.3949987   3.3055006  13.5485017  33.3519987   3.3055006  13.5485017
  32.1549987   4.2325006  13.5485017  22.1389987   4.5265006  12.6405017
  23.0959987   4.5265006  12.6405017  21.8989987   5.4535006  12.6405017
  27.5709987 108.5285006  11.6675017  28.5279987 108.5285006  11.6675017
  27.3309987 109.4555006  11.6675017  27.3419987   2.2535006  13.7555017
  28.2989987   2.2535006  13.7555017  27.1019987   3.1805006  13.7555017
  26.8369987  19.0905006 157.4275017  27.7939987  19.0905006 157.4275017
  26.5969987  20.0175006 157.4275017  20.3989987  13.6935006 156.8965017
  21.3559987  13.6935006 156.8965017  20.1589987  14.6205006 156.8965017
  19.1509987  19.0785006   1.3465017  20.1079987  19.0785006   1.3465017
  18.9109987  20.0055006   1.3465017  19.9829987  17.1935006   3.1975017
  20.9399987  17.1935006   3.1975017  19.7429987  18.1205006   3.1975017
  37.5329987  17.9715006   6.1565017  38.4899987  17.9715006   6.1565017
  37.2929987  18.8985006   6.1565017  37.0929987  17.5885006   9.0925017
  38.0499987  17.5885006   9.0925017  36.8529987  18.5155006   9.0925017
  35.5389987  13.3195006  13.7475017  36.4959987  13.3195006  13.7475017
  35.2989987  14.2465006  13.7475017  36.8899987  11.5915006 159.7135017
  37.8469987  11.5915006 159.7135017  36.6499987  12.5185006 159.7135017
  37.0219987   9.8195006   1.1915017  37.9789987   9.8195006   1.1915017
  36.7819987  10.7465006   1.1915017  36.9769987  12.4155006   6.0555017
  37.9339987  12.4155006   6.0555017  36.7369987  13.3425006   6.0555017
  35.5229987  15.3095006   8.3375017  36.4799987  15.3095006   8.3375017
  35.2829987  16.2365006   8.3375017  37.5339987   9.5495006 158.0415017
  38.4909987   9.5495006 158.0415017  37.2939987  10.4765006 158.0415017
  35.9119987   6.7895006 156.5485017  36.8689987   6.7895006 156.5485017
  35.6719987   7.7165006 156.5485017  35.0479987   8.1685006   1.6425017
  36.0049987   8.1685006   1.6425017  34.8079987   9.0955006   1.6425017
  20.0379987  10.2705006   5.6895017  20.9949987  10.2705006   5.6895017
  19.7979987  11.1975006   5.6895017  35.8819987  10.1585006  11.3135017
  36.8389987  10.1585006  11.3135017  35.6419987  11.0855006  11.3135017
  37.3929987   8.0485006  11.9795017  38.3499987   8.0485006  11.9795017
  37.1529987   8.9755006  11.9795017  35.1119987   4.2615006 155.6895017
  36.0689987   4.2615006 155.6895017  34.8719987   5.1885006 155.6895017
  34.6989987   5.7875006 160.6185017  35.6559987   5.7875006 160.6185017
  34.4589987   6.7145006 160.6185017  35.3359987   6.3275006   5.5315017
  36.2929987   6.3275006   5.5315017  35.0959987   7.2545006   5.5315017
  35.3929987   7.0555006   8.3175017  36.3499987   7.0555006   8.3175017
  35.1529987   7.9825006   8.3175017  19.6569987   5.5765006  11.8325017
  20.6139987   5.5765006  11.8325017  19.4169987   6.5035006  11.8325017
  37.6069987   1.1855006  13.6155017  38.5639987   1.1855006  13.6155017
  37.3669987   2.1125006  13.6155017  35.3549987   3.0645006   0.1205017
  36.3119987   3.0645006   0.1205017  35.1149987   3.9915006   0.1205017
  20.8289987   3.8995006   4.6955017  21.7859987   3.8995006   4.6955017
  20.5889987   4.8265006   4.6955017  19.1439987   6.8515006   5.7465017
  20.1009987   6.8515006   5.7465017  18.9039987   7.7785006   5.7465017
  37.1939987   3.2095006  12.0145017  38.1509987   3.2095006  12.0145017
  36.9539987   4.1365006  12.0145017  37.2089987   3.1195006 157.2525017
  38.1659987   3.1195006 157.2525017  36.9689987   4.0465006 157.2525017
  19.4929987   3.0925006 160.3795017  20.4499987   3.0925006 160.3795017
  19.2529987   4.0195006 160.3795017  34.2539987  18.0305006   1.7545017
  35.2109987  18.0305006   1.7545017  34.0139987  18.9575006   1.7545017
  19.4709987   1.8185006   8.1275017  20.4279987   1.8185006   8.1275017
  19.2309987   2.7455006   8.1275017  21.6819987  14.9835006  12.2795017
  22.6389987  14.9835006  12.2795017  21.4419987  15.9105006  12.2795017
  24.5929987  15.9785006   8.5545017  25.5499987  15.9785006   8.5545017
  24.3529987  16.9055006   8.5545017  28.9129987  17.4035006  11.4695017
  29.8699987  17.4035006  11.4695017  28.6729987  18.3305006  11.4695017
  31.2109987  18.6725006  10.7585017  32.1679987  18.6725006  10.7585017
  30.9709987  19.5995006  10.7585017  36.3069987   1.4465006   9.8125017
  37.2639987   1.4465006   9.8125017  36.0669987   2.3735006   9.8125017
  22.0189987  19.2245006   8.5625017  22.9759987  19.2245006   8.5625017
  21.7789987  20.1515006   8.5625017  24.4889987  18.8065006   7.6265017
  25.4459987  18.8065006   7.6265017  24.2489987  19.7335006   7.6265017
  29.1909987  18.7155006   6.7965017  30.1479987  18.7155006   6.7965017
  28.9509987  19.6425006   6.7965017  31.4989987  17.5475006   7.7905017
  32.4559987  17.5475006   7.7905017  31.2589987  18.4745006   7.7905017
  34.0819987  19.1175006   8.0485017  35.0389987  19.1175006   8.0485017
  33.8419987  20.0445006   8.0485017  21.4539987  17.8735006   5.4925017
  22.4109987  17.8735006   5.4925017  21.2139987  18.8005006   5.4925017
  23.5489987  16.5855006   4.1455017  24.5059987  16.5855006   4.1455017
  23.3089987  17.5125006   4.1455017  26.1379987  17.0675006   5.0165017
  27.0949987  17.0675006   5.0165017  25.8979987  17.9945006   5.0165017
  29.6009987   2.7445006   4.1565017  30.5579987   2.7445006   4.1565017
  29.3609987   3.6715006   4.1565017  34.8229987   1.0685006   4.4075017
  35.7799987   1.0685006   4.4075017  34.5829987   1.9955006   4.4075017
  36.4499987   2.0025006   2.5345017  37.4069987   2.0025006   2.5345017
  36.2099987   2.9295006   2.5345017  21.9269987   1.3245006   1.9955017
  22.8839987   1.3245006   1.9955017  21.6869987   2.2515006   1.9955017
  21.0289987   1.5155006 158.6875017  21.9859987   1.5155006 158.6875017
  20.7889987   2.4425006 158.6875017  26.4869987   1.3035006   1.7795017
  27.4439987   1.3035006   1.7795017  26.2469987   2.2305006   1.7795017
  32.0869987   1.3215006   3.4295017  33.0439987   1.3215006   3.4295017
  31.8469987   2.2485006   3.4295017  33.4329987   1.3535006 159.7135017
  34.3899987   1.3535006 159.7135017  33.1929987   2.2805006 159.7135017
  20.6719987  17.0555006 159.2735017  21.6289987  17.0555006 159.2735017
  20.4319987  17.9825006 159.2735017  22.5959987   3.0375006 156.7425017
  23.5529987   3.0375006 156.7425017  22.3559987   3.9645006 156.7425017
  27.5969987   3.3085006 159.1985017  28.5539987   3.3085006 159.1985017
  27.3569987   4.2355006 159.1985017  29.5289987  18.3355006 157.6405017
  30.4859987  18.3355006 157.6405017  29.2889987  19.2625006 157.6405017
  36.2499987  17.8565006 160.3365017  37.2069987  17.8565006 160.3365017
  36.0099987  18.7835006 160.3365017  21.8439987   1.9025006  11.5195017
  22.8009987   1.9025006  11.5195017  21.6039987   2.8295006  11.5195017
  23.8699987   1.2435006  13.0635017  24.8269987   1.2435006  13.0635017
  23.6299987   2.1705006  13.0635017  22.4669987  18.0265006 156.2375017
  23.4239987  18.0265006 156.2375017  22.2269987  18.9535006 156.2375017
  32.3489987 108.3835006  13.0975017  33.3059987 108.3835006  13.0975017
  32.1089987 109.3105006  13.0975017  35.4809987  16.5995006  11.8935017
  36.4379987  16.5995006  11.8935017  35.2409987  17.5265006  11.8935017
  49.9139987  10.4805006   1.8835017  50.8709987  10.4805006   1.8835017
  49.6739987  11.4075006   1.8835017  48.7839987   9.7475006   5.3695017
  49.7409987   9.7475006   5.3695017  48.5439987  10.6745006   5.3695017
  41.1389987   9.4015006   6.9275017  42.0959987   9.4015006   6.9275017
  40.8989987  10.3285006   6.9275017  52.4719987  12.7145006   3.6475017
  53.4289987  12.7145006   3.6475017  52.2319987  13.6415006   3.6475017
  42.0679987  13.8495006   5.4465017  43.0249987  13.8495006   5.4465017
  41.8279987  14.7765006   5.4465017  38.6609987   7.3385006   0.9325017
  39.6179987   7.3385006   0.9325017  38.4209987   8.2655006   0.9325017
  39.3809987   9.6085006   2.9475017  40.3379987   9.6085006   2.9475017
  39.1409987  10.5355006   2.9475017  49.6249987  17.8465006   3.8845017
  50.5819987  17.8465006   3.8845017  49.3849987  18.7735006   3.8845017
  47.1539987  12.1605006   5.8155017  48.1109987  12.1605006   5.8155017
  46.9139987  13.0875006   5.8155017  55.7829987   3.7555006   6.5715017
  56.7399987   3.7555006   6.5715017  55.5429987   4.6825006   6.5715017
  50.3289987   6.5975006   6.1375017  51.2859987   6.5975006   6.1375017
  50.0889987   7.5245006   6.1375017  43.4679987   4.6955006   3.3635017
  44.4249987   4.6955006   3.3635017  43.2279987   5.6225006   3.3635017
  51.1849987   4.7815006   1.7445017  52.1419987   4.7815006   1.7445017
  50.9449987   5.7085006   1.7445017  40.0809987   7.1155006   4.1015017
  41.0379987   7.1155006   4.1015017  39.8409987   8.0425006   4.1015017
  45.2359987   8.6605006   3.3935017  46.1929987   8.6605006   3.3935017
  44.9959987   9.5875006   3.3935017  56.2439987   5.2285006   8.8365017
  57.2009987   5.2285006   8.8365017  56.0039987   6.1555006   8.8365017
  42.3459987   3.5955006   7.4155017  43.3029987   3.5955006   7.4155017
  42.1059987   4.5225006   7.4155017  49.6459987  13.0825006   0.9555017
  50.6029987  13.0825006   0.9555017  49.4059987  14.0095006   0.9555017
  44.8599987  11.2595006   7.6465017  45.8169987  11.2595006   7.6465017
  44.6199987  12.1865006   7.6465017  52.9919987   4.0955006   3.7175017
  53.9489987   4.0955006   3.7175017  52.7519987   5.0225006   3.7175017
  41.8829987   5.4825006   5.3935017  42.8399987   5.4825006   5.3935017
  41.6429987   6.4095006   5.3935017  43.3019987  13.2535006   8.4865017
  44.2589987  13.2535006   8.4865017  43.0619987  14.1805006   8.4865017
  39.4299987  12.8555006 159.8075017  40.3869987  12.8555006 159.8075017
  39.1899987  13.7825006 159.8075017  52.9999987  14.5345006   5.9545017
  53.9569987  14.5345006   5.9545017  52.7599987  15.4615006   5.9545017
  53.3379987   2.7695006   7.4335017  54.2949987   2.7695006   7.4335017
  53.0979987   3.6965006   7.4335017  46.2739987   0.9635006   4.7345017
  47.2309987   0.9635006   4.7345017  46.0339987   1.8905006   4.7345017
  51.3009987  16.3065006   2.6265017  52.2579987  16.3065006   2.6265017
  51.0609987  17.2335006   2.6265017  52.4579987  14.2515006   1.1455017
  53.4149987  14.2515006   1.1455017  52.2179987  15.1785006   1.1455017
  54.0959987  12.8185006   9.6195017  55.0529987  12.8185006   9.6195017
  53.8559987  13.7455006   9.6195017  48.5899987   9.7105006 159.9405017
  49.5469987   9.7105006 159.9405017  48.3499987  10.6375006 159.9405017
  48.6489987   8.2615006 156.9475017  49.6059987   8.2615006 156.9475017
  48.4089987   9.1885006 156.9475017  55.9609987   9.1215006   7.6565017
  56.9179987   9.1215006   7.6565017  55.7209987  10.0485006   7.6565017
  52.0399987   9.9435006   0.3145017  52.9969987   9.9435006   0.3145017
  51.7999987  10.8705006   0.3145017  51.9519987   8.0985006   9.4195017
  52.9089987   8.0985006   9.4195017  51.7119987   9.0255006   9.4195017
  43.6189987  10.5865006   2.2245017  44.5759987  10.5865006   2.2245017
  43.3789987  11.5135006   2.2245017  44.9749987  14.0025006   4.9145017
  45.9319987  14.0025006   4.9145017  44.7349987  14.9295006   4.9145017
  43.9709987   9.3525006   5.8545017  44.9279987   9.3525006   5.8545017
  43.7309987  10.2795006   5.8545017  50.3789987  14.9035006   6.5715017
  51.3359987  14.9035006   6.5715017  50.1389987  15.8305006   6.5715017
  44.9499987  13.8255006  10.5315017  45.9069987  13.8255006  10.5315017
  44.7099987  14.7525006  10.5315017  50.8899987   9.1235006 158.5275017
  51.8469987   9.1235006 158.5275017  50.6499987  10.0505006 158.5275017
  41.8209987   9.9985006   9.7385017  42.7779987   9.9985006   9.7385017
  41.5809987  10.9255006   9.7385017  48.6329987  15.8615006   1.4355017
  49.5899987  15.8615006   1.4355017  48.3929987  16.7885006   1.4355017
  43.1829987  15.8325006  11.3085017  44.1399987  15.8325006  11.3085017
  42.9429987  16.7595006  11.3085017  54.6309987   0.8985006 158.3845017
  55.5879987   0.8985006 158.3845017  54.3909987   1.8255006 158.3845017
  42.5719987   9.6335006 160.4195017  43.5289987   9.6335006 160.4195017
  42.3319987  10.5605006 160.4195017  55.7369987  15.2155006 156.7645017
  56.6939987  15.2155006 156.7645017  55.4969987  16.1425006 156.7645017
  38.7119987  12.0405006   8.7035017  39.6689987  12.0405006   8.7035017
  38.4719987  12.9675006   8.7035017  38.4729987  14.7855006   5.5065017
  39.4299987  14.7855006   5.5065017  38.2329987  15.7125006   5.5065017
  56.7009987  15.4795006  11.1925017  57.6579987  15.4795006  11.1925017
  56.4609987  16.4065006  11.1925017  47.6279987  15.0525006  10.0195017
  48.5849987  15.0525006  10.0195017  47.3879987  15.9795006  10.0195017
  48.0909987  18.7725006 160.4015017  49.0479987  18.7725006 160.4015017
  47.8509987  19.6995006 160.4015017  41.7509987  17.6065006   1.6545017
  42.7079987  17.6065006   1.6545017  41.5109987  18.5335006   1.6545017
  51.1469987  17.9775006 157.3925017  52.1039987  17.9775006 157.3925017
  50.9069987  18.9045006 157.3925017  50.8499987  17.9135006 160.1665017
  51.8069987  17.9135006 160.1665017  50.6099987  18.8405006 160.1665017
  53.8399987   6.9585006  11.6765017  54.7969987   6.9585006  11.6765017
  53.5999987   7.8855006  11.6765017  40.9799987  13.3875006   9.6775017
  41.9369987  13.3875006   9.6775017  40.7399987  14.3145006   9.6775017
  43.7419987   1.9225006   5.5675017  44.6989987   1.9225006   5.5675017
  43.5019987   2.8495006   5.5675017  48.3209987   1.5525006   9.0405017
  49.2779987   1.5525006   9.0405017  48.0809987   2.4795006   9.0405017
  51.5899987   5.3035006   9.8875017  52.5469987   5.3035006   9.8875017
  51.3499987   6.2305006   9.8875017  52.3489987  10.1495006 156.2845017
  53.3059987  10.1495006 156.2845017  52.1089987  11.0765006 156.2845017
  47.9509987   4.0645006 156.8625017  48.9079987   4.0645006 156.8625017
  47.7109987   4.9915006 156.8625017  43.7279987   6.7765006   6.8025017
  44.6849987   6.7765006   6.8025017  43.4879987   7.7035006   6.8025017
  43.7029987   6.9695006   1.7105017  44.6599987   6.9695006   1.7105017
  43.4629987   7.8965006   1.7105017  49.2339987   7.4205006   0.5105017
  50.1909987   7.4205006   0.5105017  48.9939987   8.3475006   0.5105017
  48.3969987   7.6305006  12.0085017  49.3539987   7.6305006  12.0085017
  48.1569987   8.5575006  12.0085017  50.2659987   6.9015006   3.3465017
  51.2229987   6.9015006   3.3465017  50.0259987   7.8285006   3.3465017
  41.3259987   7.0785006   8.5505017  42.2829987   7.0785006   8.5505017
  41.0859987   8.0055006   8.5505017  44.7719987   4.4965006 155.9815017
  45.7289987   4.4965006 155.9815017  44.5319987   5.4235006 155.9815017
  38.0359987   4.2235006   2.5065017  38.9929987   4.2235006   2.5065017
  37.7959987   5.1505006   2.5065017  39.3309987   4.9425006 158.4795017
  40.2879987   4.9425006 158.4795017  39.0909987   5.8695006 158.4795017
  49.4829987   8.5095006   7.9265017  50.4399987   8.5095006   7.9265017
  49.2429987   9.4365006   7.9265017  46.2819987   4.4745006   2.7405017
  47.2389987   4.4745006   2.7405017  46.0419987   5.4015006   2.7405017
  41.0959987   6.0655006   1.5875017  42.0529987   6.0655006   1.5875017
  40.8559987   6.9925006   1.5875017  44.7349987   6.0755006 159.8005017
  45.6919987   6.0755006 159.8005017  44.4949987   7.0025006 159.8005017
  50.6999987   3.6425006   5.9905017  51.6569987   3.6425006   5.9905017
  50.4599987   4.5695006   5.9905017  43.4179987   7.2635006 157.3775017
  44.3749987   7.2635006 157.3775017  43.1779987   8.1905006 157.3775017
  53.9019987  19.3435006  12.3095017  54.8589987  19.3435006  12.3095017
  53.6619987  20.2705006  12.3095017  41.5749987  11.8115006  11.8835017
  42.5319987  11.8115006  11.8835017  41.3349987  12.7385006  11.8835017
  47.5659987   7.2245006   4.6455017  48.5229987   7.2245006   4.6455017
  47.3259987   8.1515006   4.6455017  42.5639987   3.3695006   1.0645017
  43.5209987   3.3695006   1.0645017  42.3239987   4.2965006   1.0645017
  46.2079987   5.5775006   7.0325017  47.1649987   5.5775006   7.0325017
  45.9679987   6.5045006   7.0325017  46.7809987  11.8115006 159.2885017
  47.7379987  11.8115006 159.2885017  46.5409987  12.7385006 159.2885017
  53.9539987  10.9685006   7.5545017  54.9109987  10.9685006   7.5545017
  53.7139987  11.8955006   7.5545017  50.6419987   4.6005006 157.4685017
  51.5989987   4.6005006 157.4685017  50.4019987   5.5275006 157.4685017
  48.2669987  12.0335006   9.9795017  49.2239987  12.0335006   9.9795017
  48.0269987  12.9605006   9.9795017  51.3599987   6.5055006 159.1135017
  52.3169987   6.5055006 159.1135017  51.1199987   7.4325006 159.1135017
  41.8529987  11.1285006   4.4965017  42.8099987  11.1285006   4.4965017
  41.6129987  12.0555006   4.4965017  48.8909987  13.2605006 158.3155017
  49.8479987  13.2605006 158.3155017  48.6509987  14.1875006 158.3155017
  38.8829987   9.5855006   9.8165017  39.8399987   9.5855006   9.8165017
  38.6429987  10.5125006   9.8165017  46.0399987   9.5075006  12.0645017
  46.9969987   9.5075006  12.0645017  45.7999987  10.4345006  12.0645017
  50.5669987  14.4725006   9.9275017  51.5239987  14.4725006   9.9275017
  50.3269987  15.3995006   9.9275017  56.2319987   6.6785006 158.8855017
  57.1889987   6.6785006 158.8855017  55.9919987   7.6055006 158.8855017
  56.2399987  12.5175006  11.1485017  57.1969987  12.5175006  11.1485017
  55.9999987  13.4445006  11.1485017  54.5219987  15.4935006 159.2875017
  55.4789987  15.4935006 159.2875017  54.2819987  16.4205006 159.2875017
  51.7429987  10.3035006   5.8255017  52.6999987  10.3035006   5.8255017
  51.5029987  11.2305006   5.8255017  44.2669987  14.6115006   1.8755017
  45.2239987  14.6115006   1.8755017  44.0269987  15.5385006   1.8755017
  40.0309987   9.4515006 157.1035017  40.9879987   9.4515006 157.1035017
  39.7909987  10.3785006 157.1035017  45.6739987  12.2995006   1.4335017
  46.6309987  12.2995006   1.4335017  45.4339987  13.2265006   1.4335017
  46.1679987  16.4595006   7.7565017  47.1249987  16.4595006   7.7565017
  45.9279987  17.3865006   7.7565017  44.3589987  17.2915006   0.9525017
  45.3159987  17.2915006   0.9525017  44.1189987  18.2185006   0.9525017
  49.6939987  12.4995006   7.4895017  50.6509987  12.4995006   7.4895017
  49.4539987  13.4265006   7.4895017  51.9799987  13.5315006 157.1125017
  52.9369987  13.5315006 157.1125017  51.7399987  14.4585006 157.1125017
  52.4569987  17.0655006   9.9845017  53.4139987  17.0655006   9.9845017
  52.2169987  17.9925006   9.9845017  56.4599987  17.9085006 157.3565017
  57.4169987  17.9085006 157.3565017  56.2199987  18.8355006 157.3565017
  40.5419987   4.3045006   9.3835017  41.4989987   4.3045006   9.3835017
  40.3019987   5.2315006   9.3835017  52.7759987  12.1755006 159.3475017
  53.7329987  12.1755006 159.3475017  52.5359987  13.1025006 159.3475017
  40.1829987  16.1155006   7.7895017  41.1399987  16.1155006   7.7895017
  39.9429987  17.0425006   7.7895017  46.0759987  14.6285006 155.5785017
  47.0329987  14.6285006 155.5785017  45.8359987  15.5555006 155.5785017
  45.1839987  13.9525006 157.9725017  46.1409987  13.9525006 157.9725017
  44.9439987  14.8795006 157.9725017  41.4349987  11.3895006 158.5755017
  42.3919987  11.3895006 158.5755017  41.1949987  12.3165006 158.5755017
  49.2889987   4.0635006   8.2755017  50.2459987   4.0635006   8.2755017
  49.0489987   4.9905006   8.2755017  50.0389987   3.6595006 159.9405017
  50.9959987   3.6595006 159.9405017  49.7989987   4.5865006 159.9405017
  47.6879987  15.8045006 158.7475017  48.6449987  15.8045006 158.7475017
  47.4479987  16.7315006 158.7475017  47.2579987   5.3985006   0.2215017
  48.2149987   5.3985006   0.2215017  47.0179987   6.3255006   0.2215017
  47.9709987   6.4695006   9.2905017  48.9279987   6.4695006   9.2905017
  47.7309987   7.3965006   9.2905017  48.1249987   2.4725006   1.1435017
  49.0819987   2.4725006   1.1435017  47.8849987   3.3995006   1.1435017
  45.2669987  16.9965006 158.8175017  46.2239987  16.9965006 158.8175017
  45.0269987  17.9235006 158.8175017  43.7529987   3.5745006 158.3725017
  44.7099987   3.5745006 158.3725017  43.5129987   4.5015006 158.3725017
  53.9889987   4.3285006  10.2455017  54.9459987   4.3285006  10.2455017
  53.7489987   5.2555006  10.2455017  52.6049987   8.0855006   4.2615017
  53.5619987   8.0855006   4.2615017  52.3649987   9.0125006   4.2615017
  41.9799987  13.9635006 157.4015017  42.9369987  13.9635006 157.4015017
  41.7399987  14.8905006 157.4015017  40.3289987   6.6915006 156.5695017
  41.2859987   6.6915006 156.5695017  40.0889987   7.6185006 156.5695017
  53.6659987  17.3245006   5.9205017  54.6229987  17.3245006   5.9205017
  53.4259987  18.2515006   5.9205017  40.9229987   1.6745006   4.6035017
  41.8799987   1.6745006   4.6035017  40.6829987   2.6015006   4.6035017
  40.1019987  15.3665006   0.8545017  41.0589987  15.3665006   0.8545017
  39.8619987  16.2935006   0.8545017  39.3309987  18.0385006  12.1755017
  40.2879987  18.0385006  12.1755017  39.0909987  18.9655006  12.1755017
  43.9899987  16.9595006  13.7915017  44.9469987  16.9595006  13.7915017
  43.7499987  17.8865006  13.7915017  48.0989987  16.4715006 155.7325017
  49.0559987  16.4715006 155.7325017  47.8589987  17.3985006 155.7325017
  50.4949987  15.3425006  12.5245017  51.4519987  15.3425006  12.5245017
  50.2549987  16.2695006  12.5245017  52.6829987  16.2365006 155.9365017
  53.6399987  16.2365006 155.9365017  52.4429987  17.1635006 155.9365017
  39.2499987  11.8225006  13.1625017  40.2069987  11.8225006  13.1625017
  39.0099987  12.7495006  13.1625017  43.5879987  12.1875006 155.7835017
  44.5449987  12.1875006 155.7835017  43.3479987  13.1145006 155.7835017
  45.9419987  11.9305006  12.5715017  46.8989987  11.9305006  12.5715017
  45.7019987  12.8575006  12.5715017  48.9959987  13.2575006 155.5165017
  49.9529987  13.2575006 155.5165017  48.7559987  14.1845006 155.5165017
  51.6499987  11.6745006   9.9455017  52.6069987  11.6745006   9.9455017
  51.4099987  12.6015006   9.9455017  40.1399987   9.0395006  12.5525017
  41.0969987   9.0395006  12.5525017  39.8999987   9.9665006  12.5525017
  44.7729987  10.1885006 158.1485017  45.7299987  10.1885006 158.1485017
  44.5329987  11.1155006 158.1485017  43.6029987   8.1195006   9.5195017
  44.5599987   8.1195006   9.5195017  43.3629987   9.0465006   9.5195017
  45.8469987   8.3645006 156.3585017  46.8039987   8.3645006 156.3585017
  45.6069987   9.2915006 156.3585017  49.1139987  10.5635006  13.2505017
  50.0709987  10.5635006  13.2505017  48.8739987  11.4905006  13.2505017
  55.2039987  10.7235006 155.7955017  56.1609987  10.7235006 155.7955017
  54.9639987  11.6505006 155.7955017  43.9429987   5.0065006  10.8325017
  44.8999987   5.0065006  10.8325017  43.7029987   5.9335006  10.8325017
  44.8659987   3.7155006   8.4965017  45.8229987   3.7155006   8.4965017
  44.6259987   4.6425006   8.4965017  46.3879987   9.2355006   8.7415017
  47.3449987   9.2355006   8.7415017  46.1479987  10.1625006   8.7415017
  50.8019987   7.0015006  13.7475017  51.7589987   7.0015006  13.7475017
  50.5619987   7.9285006  13.7475017  52.1279987   9.7955006  11.8885017
  53.0849987   9.7955006  11.8885017  51.8879987  10.7225006  11.8885017
  42.8959987   6.6105006  12.9225017  43.8529987   6.6105006  12.9225017
  42.6559987   7.5375006  12.9225017  45.7169987   1.2335006   8.7955017
  46.6739987   1.2335006   8.7955017  45.4769987   2.1605006   8.7955017
  47.0429987   5.2045006  12.6435017  47.9999987   5.2045006  12.6435017
  46.8029987   6.1315006  12.6435017  49.6299987   4.6845006  11.6105017
  50.5869987   4.6845006  11.6105017  49.3899987   5.6115006  11.6105017
  51.2539987   3.3055006  13.5495017  52.2109987   3.3055006  13.5495017
  51.0139987   4.2325006  13.5495017  40.9839987   4.5205006  12.6485017
  41.9409987   4.5205006  12.6485017  40.7439987   5.4475006  12.6485017
  46.4299987 108.5295006  11.6655017  47.3869987 108.5295006  11.6655017
  46.1899987 109.4565006  11.6655017  46.1799987   2.2335006  13.7715017
  47.1369987   2.2335006  13.7715017  45.9399987   3.1605006  13.7715017
  45.6859987  19.0995006 157.4065017  46.6429987  19.0995006 157.4065017
  45.4459987  20.0265006 157.4065017  39.2559987  13.6945006 156.9085017
  40.2129987  13.6945006 156.9085017  39.0159987  14.6215006 156.9085017
  38.0629987  19.0425006   1.2975017  39.0199987  19.0425006   1.2975017
  37.8229987  19.9695006   1.2975017  38.8409987  17.1925006   3.1965017
  39.7979987  17.1925006   3.1965017  38.6009987  18.1195006   3.1965017
  56.3489987  18.0095006   6.1355017  57.3059987  18.0095006   6.1355017
  56.1089987  18.9365006   6.1355017  55.9529987  17.5825006   9.0875017
  56.9099987  17.5825006   9.0875017  55.7129987  18.5095006   9.0875017
  54.3989987  13.3215006  13.7485017  55.3559987  13.3215006  13.7485017
  54.1589987  14.2485006  13.7485017  55.7029987  11.6305006 159.7505017
  56.6599987  11.6305006 159.7505017  55.4629987  12.5575006 159.7505017
  56.0909987   9.6675006   1.0535017  57.0479987   9.6675006   1.0535017
  55.8509987  10.5945006   1.0535017  55.8329987  12.4075006   6.0435017
  56.7899987  12.4075006   6.0435017  55.5929987  13.3345006   6.0435017
  54.3739987  15.3365006   8.3125017  55.3309987  15.3365006   8.3125017
  54.1339987  16.2635006   8.3125017  56.3739987   9.5355006 158.0405017
  57.3309987   9.5355006 158.0405017  56.1339987  10.4625006 158.0405017
  54.7409987   6.7805006 156.5335017  55.6979987   6.7805006 156.5335017
  54.5009987   7.7075006 156.5335017  53.9599987   8.1755006   1.6755017
  54.9169987   8.1755006   1.6755017  53.7199987   9.1025006   1.6755017
  38.9079987  10.2725006   5.6845017  39.8649987  10.2725006   5.6845017
  38.6679987  11.1995006   5.6845017  54.7389987  10.1585006  11.3125017
  55.6959987  10.1585006  11.3125017  54.4989987  11.0855006  11.3125017
  56.2489987   8.0485006  11.9795017  57.2059987   8.0485006  11.9795017
  56.0089987   8.9755006  11.9795017  53.9629987   4.2635006 155.6885017
  54.9199987   4.2635006 155.6885017  53.7229987   5.1905006 155.6885017
  53.5589987   5.7925006 160.6355017  54.5159987   5.7925006 160.6355017
  53.3189987   6.7195006 160.6355017  54.2219987   6.3495006   5.5075017
  55.1789987   6.3495006   5.5075017  53.9819987   7.2765006   5.5075017
  54.2429987   7.0525006   8.3155017  55.1999987   7.0525006   8.3155017
  54.0029987   7.9795006   8.3155017  38.5159987   5.5785006  11.8315017
  39.4729987   5.5785006  11.8315017  38.2759987   6.5055006  11.8315017
  56.4579987   1.1835006  13.6115017  57.4149987   1.1835006  13.6115017
  56.2179987   2.1105006  13.6115017  54.2129987   3.0655006   0.1155017
  55.1699987   3.0655006   0.1155017  53.9729987   3.9925006   0.1155017
  39.6839987   3.9015006   4.6915017  40.6409987   3.9015006   4.6915017
  39.4439987   4.8285006   4.6915017  37.9999987   6.8515006   5.7505017
  38.9569987   6.8515006   5.7505017  37.7599987   7.7785006   5.7505017
  56.0489987   3.2095006  12.0145017  57.0059987   3.2095006  12.0145017
  55.8089987   4.1365006  12.0145017  56.0609987   3.1095006 157.2465017
  57.0179987   3.1095006 157.2465017  55.8209987   4.0365006 157.2465017
  38.3489987   3.0905006 160.3795017  39.3059987   3.0905006 160.3795017
  38.1089987   4.0175006 160.3795017  53.0869987  18.2985006   1.2825017
  54.0439987  18.2985006   1.2825017  52.8469987  19.2255006   1.2825017
  38.3339987   1.8305006   8.1305017  39.2909987   1.8305006   8.1305017
  38.0939987   2.7575006   8.1305017  40.5539987  14.9935006  12.2755017
  41.5109987  14.9935006  12.2755017  40.3139987  15.9205006  12.2755017
  43.4919987  16.0145006   8.6045017  44.4489987  16.0145006   8.6045017
  43.2519987  16.9415006   8.6045017  47.7669987  17.3895006  11.4595017
  48.7239987  17.3895006  11.4595017  47.5269987  18.3165006  11.4595017
  50.0529987  18.6575006  10.7675017  51.0099987  18.6575006  10.7675017
  49.8129987  19.5845006  10.7675017  55.1529987   1.4245006   9.8025017
  56.1099987   1.4245006   9.8025017  54.9129987   2.3515006   9.8025017
  40.8869987  19.2265006   8.5705017  41.8439987  19.2265006   8.5705017
  40.6469987  20.1535006   8.5705017  43.3539987  18.8075006   7.6385017
  44.3109987  18.8075006   7.6385017  43.1139987  19.7345006   7.6385017
  48.0059987  18.7015006   6.8255017  48.9629987  18.7015006   6.8255017
  47.7659987  19.6285006   6.8255017  50.3519987  17.5465006   7.7785017
  51.3089987  17.5465006   7.7785017  50.1119987  18.4735006   7.7785017
  52.9309987  19.1115006   8.0495017  53.8879987  19.1115006   8.0495017
  52.6909987  20.0385006   8.0495017  40.3119987  17.8735006   5.4935017
  41.2689987  17.8735006   5.4935017  40.0719987  18.8005006   5.4935017
  42.4029987  16.5855006   4.1435017  43.3599987  16.5855006   4.1435017
  42.1629987  17.5125006   4.1435017  44.9949987  17.0625006   5.0185017
  45.9519987  17.0625006   5.0185017  44.7549987  17.9895006   5.0185017
  48.4549987   2.7465006   4.1575017  49.4119987   2.7465006   4.1575017
  48.2149987   3.6735006   4.1575017  53.6579987   1.1555006   4.3535017
  54.6149987   1.1555006   4.3535017  53.4179987   2.0825006   4.3535017
  55.3219987   1.9855006   2.5405017  56.2789987   1.9855006   2.5405017
  55.0819987   2.9125006   2.5405017  40.7829987   1.3245006   1.9955017
  41.7399987   1.3245006   1.9955017  40.5429987   2.2515006   1.9955017
  39.8869987   1.5175006 158.6865017  40.8439987   1.5175006 158.6865017
  39.6469987   2.4445006 158.6865017  45.3439987   1.3035006   1.7795017
  46.3009987   1.3035006   1.7795017  45.1039987   2.2305006   1.7795017
  50.9829987   1.2995006   3.4375017  51.9399987   1.2995006   3.4375017
  50.7429987   2.2265006   3.4375017  52.2889987   1.3535006 159.7135017
  53.2459987   1.3535006 159.7135017  52.0489987   2.2805006 159.7135017
  39.5439987  17.0615006 159.2475017  40.5009987  17.0615006 159.2475017
  39.3039987  17.9885006 159.2475017  41.4519987   3.0375006 156.7425017
  42.4089987   3.0375006 156.7425017  41.2119987   3.9645006 156.7425017
  46.4539987   3.3085006 159.1985017  47.4109987   3.3085006 159.1985017
  46.2139987   4.2355006 159.1985017  48.3799987  18.3275006 157.6395017
  49.3369987  18.3275006 157.6395017  48.1399987  19.2545006 157.6395017
  55.1679987  17.8335006 160.3205017  56.1249987  17.8335006 160.3205017
  54.9279987  18.7605006 160.3205017  40.6979987   1.9025006  11.5195017
  41.6549987   1.9025006  11.5195017  40.4579987   2.8295006  11.5195017
  42.7159987   1.2335006  13.0635017  43.6729987   1.2335006  13.0635017
  42.4759987   2.1605006  13.0635017  41.2949987  18.0055006 156.2425017
  42.2519987  18.0055006 156.2425017  41.0549987  18.9325006 156.2425017
  51.2069987 108.3865006  13.1045017  52.1639987 108.3865006  13.1045017
  50.9669987 109.3135006  13.1045017  54.3379987  16.6005006  11.8935017
  55.2949987  16.6005006  11.8935017  54.0979987  17.5275006  11.8935017
  68.7669987  10.4805006   1.8845017  69.7239987  10.4805006   1.8845017
  68.5269987  11.4075006   1.8845017  67.6389987   9.7485006   5.3695017
  68.5959987   9.7485006   5.3695017  67.3989987  10.6755006   5.3695017
  60.0069987   9.3775006   6.8995017  60.9639987   9.3775006   6.8995017
  59.7669987  10.3045006   6.8995017  71.3379987  12.6915006   3.6485017
  72.2949987  12.6915006   3.6485017  71.0979987  13.6185006   3.6485017
  60.9239987  13.8525006   5.4465017  61.8809987  13.8525006   5.4465017
  60.6839987  14.7795006   5.4465017  57.6339987   7.3735006   0.5875017
  58.5909987   7.3735006   0.5875017  57.3939987   8.3005006   0.5875017
  58.5559987   9.8905006   3.1925017  59.5129987   9.8905006   3.1925017
  58.3159987  10.8175006   3.1925017  68.4499987  17.8365006   3.8875017
  69.4069987  17.8365006   3.8875017  68.2099987  18.7635006   3.8875017
  66.0129987  12.1545006   5.8135017  66.9699987  12.1545006   5.8135017
  65.7729987  13.0815006   5.8135017  74.6459987   3.7605006   6.5705017
  75.6029987   3.7605006   6.5705017  74.4059987   4.6875006   6.5705017
  69.1819987   6.5985006   6.1395017  70.1389987   6.5985006   6.1395017
  68.9419987   7.5255006   6.1395017  62.3029987   4.7045006   3.3825017
  63.2599987   4.7045006   3.3825017  62.0629987   5.6315006   3.3825017
  70.0429987   4.7815006   1.7435017  70.9999987   4.7815006   1.7435017
  69.8029987   5.7085006   1.7435017  58.9279987   7.0925006   4.0955017
  59.8849987   7.0925006   4.0955017  58.6879987   8.0195006   4.0955017
  64.0909987   8.6595006   3.3945017  65.0479987   8.6595006   3.3945017
  63.8509987   9.5865006   3.3945017  75.0769987   5.2225006   8.8345017
  76.0339987   5.2225006   8.8345017  74.8369987   6.1495006   8.8345017
  61.2049987   3.6215006   7.4195017  62.1619987   3.6215006   7.4195017
  60.9649987   4.5485006   7.4195017  68.5049987  13.0835006   0.9585017
  69.4619987  13.0835006   0.9585017  68.2649987  14.0105006   0.9585017
  63.7199987  11.2395006   7.6715017  64.6769987  11.2395006   7.6715017
  63.4799987  12.1665006   7.6715017  71.8339987   4.1045006   3.7225017
  72.7909987   4.1045006   3.7225017  71.5939987   5.0315006   3.7225017
  60.7499987   5.4925006   5.4215017  61.7069987   5.4925006   5.4215017
  60.5099987   6.4195006   5.4215017  62.1499987  13.2275006   8.4705017
  63.1069987  13.2275006   8.4705017  61.9099987  14.1545006   8.4705017
  58.2369987  12.8585006 159.8235017  59.1939987  12.8585006 159.8235017
  57.9969987  13.7855006 159.8235017  71.8579987  14.5245006   5.9935017
  72.8149987  14.5245006   5.9935017  71.6179987  15.4515006   5.9935017
  72.2059987   2.8035006   7.4765017  73.1629987   2.8035006   7.4765017
  71.9659987   3.7305006   7.4765017  65.1279987   0.9655006   4.7325017
  66.0849987   0.9655006   4.7325017  64.8879987   1.8925006   4.7325017
  70.1139987  16.3075006   2.6175017  71.0709987  16.3075006   2.6175017
  69.8739987  17.2345006   2.6175017  71.3159987  14.2345006   1.1255017
  72.2729987  14.2345006   1.1255017  71.0759987  15.1615006   1.1255017
  72.9299987  12.8215006   9.6225017  73.8869987  12.8215006   9.6225017
  72.6899987  13.7485006   9.6225017  67.4379987   9.7245006 159.9355017
  68.3949987   9.7245006 159.9355017  67.1979987  10.6515006 159.9355017
  67.5039987   8.2595006 156.9455017  68.4609987   8.2595006 156.9455017
  67.2639987   9.1865006 156.9455017  74.8269987   9.1305006   7.6735017
  75.7839987   9.1305006   7.6735017  74.5869987  10.0575006   7.6735017
  70.8799987   9.9405006   0.3075017  71.8369987   9.9405006   0.3075017
  70.6399987  10.8675006   0.3075017  70.8029987   8.0965006   9.4205017
  71.7599987   8.0965006   9.4205017  70.5629987   9.0235006   9.4205017
  62.4779987  10.5885006   2.2265017  63.4349987  10.5885006   2.2265017
  62.2379987  11.5155006   2.2265017  63.8259987  13.9905006   4.9025017
  64.7829987  13.9905006   4.9025017  63.5859987  14.9175006   4.9025017
  62.8469987   9.3115006   5.8855017  63.8039987   9.3115006   5.8855017
  62.6069987  10.2385006   5.8855017  69.2159987  14.9025006   6.5845017
  70.1729987  14.9025006   6.5845017  68.9759987  15.8295006   6.5845017
  63.7959987  13.7705006  10.5745017  64.7529987  13.7705006  10.5745017
  63.5559987  14.6975006  10.5745017  69.7449987   9.1235006 158.5265017
  70.7019987   9.1235006 158.5265017  69.5049987  10.0505006 158.5265017
  60.7059987   9.9085006   9.7575017  61.6629987   9.9085006   9.7575017
  60.4659987  10.8355006   9.7575017  67.4659987  15.8505006   1.4455017
  68.4229987  15.8505006   1.4455017  67.2259987  16.7775006   1.4455017
  62.0309987  15.7955006  11.3285017  62.9879987  15.7955006  11.3285017
  61.7909987  16.7225006  11.3285017  73.4869987   0.8985006 158.3835017
  74.4439987   0.8985006 158.3835017  73.2469987   1.8255006 158.3835017
  61.4529987   9.6275006 160.4015017  62.4099987   9.6275006 160.4015017
  61.2129987  10.5545006 160.4015017  74.5949987  15.2145006 156.7615017
  75.5519987  15.2145006 156.7615017  74.3549987  16.1415006 156.7615017
  57.5539987  12.0415006   8.7155017  58.5109987  12.0415006   8.7155017
  57.3139987  12.9685006   8.7155017  57.3029987  14.7975006   5.4965017
  58.2599987  14.7975006   5.4965017  57.0629987  15.7245006   5.4965017
  75.6329987  15.4055006  11.3605017  76.5899987  15.4055006  11.3605017
  75.3929987  16.3325006  11.3605017  66.2499987  15.2135006   9.8335017
  67.2069987  15.2135006   9.8335017  66.0099987  16.1405006   9.8335017
  66.9479987  18.7725006 160.4045017  67.9049987  18.7725006 160.4045017
  66.7079987  19.6995006 160.4045017  60.5889987  17.6385006   1.6695017
  61.5459987  17.6385006   1.6695017  60.3489987  18.5655006   1.6695017
  70.0129987  17.9775006 157.3875017  70.9699987  17.9775006 157.3875017
  69.7729987  18.9045006 157.3875017  69.7019987  17.9045006 160.1515017
  70.6589987  17.9045006 160.1515017  69.4619987  18.8315006 160.1515017
  72.6929987   6.9635006  11.6785017  73.6499987   6.9635006  11.6785017
  72.4529987   7.8905006  11.6785017  59.8359987  13.3565006   9.6695017
  60.7929987  13.3565006   9.6695017  59.5959987  14.2835006   9.6695017
  62.5939987   1.9285006   5.5765017  63.5509987   1.9285006   5.5765017
  62.3539987   2.8555006   5.5765017  67.1739987   1.5675006   9.0535017
  68.1309987   1.5675006   9.0535017  66.9339987   2.4945006   9.0535017
  70.4469987   5.2995006   9.8815017  71.4039987   5.2995006   9.8815017
  70.2069987   6.2265006   9.8815017  71.1999987  10.1585006 156.2795017
  72.1569987  10.1585006 156.2795017  70.9599987  11.0855006 156.2795017
  66.8009987   4.0655006 156.8505017  67.7579987   4.0655006 156.8505017
  66.5609987   4.9925006 156.8505017  62.6139987   6.8045006   6.8515017
  63.5709987   6.8045006   6.8515017  62.3739987   7.7315006   6.8515017
  62.5569987   6.9545006   1.7225017  63.5139987   6.9545006   1.7225017
  62.3169987   7.8815006   1.7225017  68.0929987   7.4215006   0.5125017
  69.0499987   7.4215006   0.5125017  67.8529987   8.3485006   0.5125017
  67.1659987   7.6265006  11.9555017  68.1229987   7.6265006  11.9555017
  66.9259987   8.5535006  11.9555017  69.1209987   6.9015006   3.3455017
  70.0779987   6.9015006   3.3455017  68.8809987   7.8285006   3.3455017
  60.1409987   7.1625006   8.5875017  61.0979987   7.1625006   8.5875017
  59.9009987   8.0895006   8.5875017  63.6339987   4.4935006 155.9695017
  64.5909987   4.4935006 155.9695017  63.3939987   5.4205006 155.9695017
  56.9099987   4.2665006   2.5025017  57.8669987   4.2665006   2.5025017
  56.6699987   5.1935006   2.5025017  58.1779987   4.9365006 158.4785017
  59.1349987   4.9365006 158.4785017  57.9379987   5.8635006 158.4785017
  68.3349987   8.5045006   7.9295017  69.2919987   8.5045006   7.9295017
  68.0949987   9.4315006   7.9295017  65.1339987   4.4745006   2.7465017
  66.0909987   4.4745006   2.7465017  64.8939987   5.4015006   2.7465017
  59.9159987   6.0455006   1.6365017  60.8729987   6.0455006   1.6365017
  59.6759987   6.9725006   1.6365017  63.5939987   6.0715006 159.7895017
  64.5509987   6.0715006 159.7895017  63.3539987   6.9985006 159.7895017
  69.5479987   3.6935006   5.9815017  70.5049987   3.6935006   5.9815017
  69.3079987   4.6205006   5.9815017  62.2979987   7.2485006 157.3635017
  63.2549987   7.2485006 157.3635017  62.0579987   8.1755006 157.3635017
  72.7279987  19.3485006  12.3645017  73.6849987  19.3485006  12.3645017
  72.4879987  20.2755006  12.3645017  60.4249987  11.8115006  11.8795017
  61.3819987  11.8115006  11.8795017  60.1849987  12.7385006  11.8795017
  66.4249987   7.2275006   4.6365017  67.3819987   7.2275006   4.6365017
  66.1849987   8.1545006   4.6365017  61.4229987   3.3695006   1.0655017
  62.3799987   3.3695006   1.0655017  61.1829987   4.2965006   1.0655017
  65.0359987   5.5515006   7.0775017  65.9929987   5.5515006   7.0775017
  64.7959987   6.4785006   7.0775017  65.6469987  11.7925006 159.2865017
  66.6039987  11.7925006 159.2865017  65.4069987  12.7195006 159.2865017
  72.8029987  10.9775006   7.5595017  73.7599987  10.9775006   7.5595017
  72.5629987  11.9045006   7.5595017  69.4979987   4.6015006 157.4645017
  70.4549987   4.6015006 157.4645017  69.2579987   5.5285006 157.4645017
  67.1829987  12.0215006  10.0165017  68.1399987  12.0215006  10.0165017
  66.9429987  12.9485006  10.0165017  70.2149987   6.5055006 159.1125017
  71.1719987   6.5055006 159.1125017  69.9749987   7.4325006 159.1125017
  60.7579987  11.1615006   4.5525017  61.7149987  11.1615006   4.5525017
  60.5179987  12.0885006   4.5525017  67.7539987  13.2545006 158.3185017
  68.7109987  13.2545006 158.3185017  67.5139987  14.1815006 158.3185017
  57.7559987   9.5665006   9.8075017  58.7129987   9.5665006   9.8075017
  57.5159987  10.4935006   9.8075017  64.7549987   9.1345006  12.0015017
  65.7119987   9.1345006  12.0015017  64.5149987  10.0615006  12.0015017
  69.5089987  14.4685006   9.8755017  70.4659987  14.4685006   9.8755017
  69.2689987  15.3955006   9.8755017  75.1099987   6.6685006 158.8695017
  76.0669987   6.6685006 158.8695017  74.8699987   7.5955006 158.8695017
  75.0929987  12.5095006  11.1445017  76.0499987  12.5095006  11.1445017
  74.8529987  13.4365006  11.1445017  73.3869987  15.4895006 159.2815017
  74.3439987  15.4895006 159.2815017  73.1469987  16.4165006 159.2815017
  70.6009987  10.3005006   5.8245017  71.5579987  10.3005006   5.8245017
  70.3609987  11.2275006   5.8245017  63.1259987  14.6255006   1.9295017
  64.0829987  14.6255006   1.9295017  62.8859987  15.5525006   1.9295017
  58.8859987   9.4735006 157.0395017  59.8429987   9.4735006 157.0395017
  58.6459987  10.4005006 157.0395017  64.5429987  12.2855006   1.4585017
  65.4999987  12.2855006   1.4585017  64.3029987  13.2125006   1.4585017
  64.9969987  16.4755006   7.8185017  65.9539987  16.4755006   7.8185017
  64.7569987  17.4025006   7.8185017  63.2219987  17.2915006   0.9935017
  64.1789987  17.2915006   0.9935017  62.9819987  18.2185006   0.9935017
  68.5619987  12.5175006   7.5155017  69.5189987  12.5175006   7.5155017
  68.3219987  13.4445006   7.5155017  70.8389987  13.5325006 157.1115017
  71.7959987  13.5325006 157.1115017  70.5989987  14.4595006 157.1115017
  71.2539987  17.0705006  10.0065017  72.2109987  17.0705006  10.0065017
  71.0139987  17.9975006  10.0065017  75.3149987  17.9085006 157.3545017
  76.2719987  17.9085006 157.3545017  75.0749987  18.8355006 157.3545017
  59.4229987   4.3155006   9.3895017  60.3799987   4.3155006   9.3895017
  59.1829987   5.2425006   9.3895017  71.6349987  12.1755006 159.3465017
  72.5919987  12.1755006 159.3465017  71.3949987  13.1025006 159.3465017
  59.0189987  16.1115006   7.7955017  59.9759987  16.1115006   7.7955017
  58.7789987  17.0385006   7.7955017  64.9589987  14.6175006 155.5915017
  65.9159987  14.6175006 155.5915017  64.7189987  15.5445006 155.5915017
  63.7779987  14.1475006 158.0475017  64.7349987  14.1475006 158.0475017
  63.5379987  15.0745006 158.0475017  60.2929987  11.3955006 158.5365017
  61.2499987  11.3955006 158.5365017  60.0529987  12.3225006 158.5365017
  68.1159987   4.0945006   8.3035017  69.0729987   4.0945006   8.3035017
  67.8759987   5.0215006   8.3035017  68.8959987   3.6585006 159.9375017
  69.8529987   3.6585006 159.9375017  68.6559987   4.5855006 159.9375017
  66.5649987  15.8195006 158.7665017  67.5219987  15.8195006 158.7665017
  66.3249987  16.7465006 158.7665017  66.1139987   5.3995006   0.2215017
  67.0709987   5.3995006   0.2215017  65.8739987   6.3265006   0.2215017
  66.6289987   6.4125006   9.4175017  67.5859987   6.4125006   9.4175017
  66.3889987   7.3395006   9.4175017  66.9719987   2.4775006   1.1375017
  67.9289987   2.4775006   1.1375017  66.7319987   3.4045006   1.1375017
  63.9469987  16.8555006 158.7765017  64.9039987  16.8555006 158.7765017
  63.7069987  17.7825006 158.7765017  62.6099987   3.5775006 158.3665017
  63.5669987   3.5775006 158.3665017  62.3699987   4.5045006 158.3665017
  72.8409987   4.3355006  10.2475017  73.7979987   4.3355006  10.2475017
  72.6009987   5.2625006  10.2475017  71.4429987   8.0935006   4.2865017
  72.3999987   8.0935006   4.2865017  71.2029987   9.0205006   4.2865017
  60.8539987  14.0115006 157.4195017  61.8109987  14.0115006 157.4195017
  60.6139987  14.9385006 157.4195017  59.1959987   6.6845006 156.5515017
  60.1529987   6.6845006 156.5515017  58.9559987   7.6115006 156.5515017
  72.5059987  17.3385006   5.9425017  73.4629987  17.3385006   5.9425017
  72.2659987  18.2655006   5.9425017  59.7769987   1.6765006   4.6035017
  60.7339987   1.6765006   4.6035017  59.5369987   2.6035006   4.6035017
  58.9679987  15.3995006   0.8755017  59.9249987  15.3995006   0.8755017
  58.7279987  16.3265006   0.8755017  58.1839987  18.0405006  12.1795017
  59.1409987  18.0405006  12.1795017  57.9439987  18.9675006  12.1795017
  62.8339987  16.9625006  13.7955017  63.7909987  16.9625006  13.7955017
  62.5939987  17.8895006  13.7955017  66.9649987  16.4725006 155.7255017
  67.9219987  16.4725006 155.7255017  66.7249987  17.3995006 155.7255017
  69.3999987  15.3315006  12.5485017  70.3569987  15.3315006  12.5485017
  69.1599987  16.2585006  12.5485017  71.5359987  16.2305006 155.9245017
  72.4929987  16.2305006 155.9245017  71.2959987  17.1575006 155.9245017
  58.1029987  11.8195006  13.1635017  59.0599987  11.8195006  13.1635017
  57.8629987  12.7465006  13.1635017  62.4339987  12.1645006 155.7575017
  63.3909987  12.1645006 155.7575017  62.1939987  13.0915006 155.7575017
  64.8639987  11.8205006  12.5285017  65.8209987  11.8205006  12.5285017
  64.6239987  12.7475006  12.5285017  67.8509987  13.2575006 155.5185017
  68.8079987  13.2575006 155.5185017  67.6109987  14.1845006 155.5185017
  70.5009987  11.6835006   9.9695017  71.4579987  11.6835006   9.9695017
  70.2609987  12.6105006   9.9695017  59.0039987   9.0385006  12.5475017
  59.9609987   9.0385006  12.5475017  58.7639987   9.9655006  12.5475017
  63.6289987  10.1725006 158.1435017  64.5859987  10.1725006 158.1435017
  63.3889987  11.0995006 158.1435017  62.8499987   7.9525006   9.8625017
  63.8069987   7.9525006   9.8625017  62.6099987   8.8795006   9.8625017
  64.7019987   8.3945006 156.3655017  65.6589987   8.3945006 156.3655017
  64.4619987   9.3215006 156.3655017  67.9629987  10.5745006  13.2225017
  68.9199987  10.5745006  13.2225017  67.7229987  11.5015006  13.2225017
  74.0579987  10.7245006 155.7945017  75.0149987  10.7245006 155.7945017
  73.8179987  11.6515006 155.7945017  63.2499987   5.3605006  10.9795017
  64.2069987   5.3605006  10.9795017  63.0099987   6.2875006  10.9795017
  63.6899987   3.7825006   8.5265017  64.6469987   3.7825006   8.5265017
  63.4499987   4.7095006   8.5265017  65.2289987   9.2005006   8.7465017
  66.1859987   9.2005006   8.7465017  64.9889987  10.1275006   8.7465017
  69.6479987   6.9975006  13.7395017  70.6049987   6.9975006  13.7395017
  69.4079987   7.9245006  13.7395017  70.9689987   9.7965006  11.8825017
  71.9259987   9.7965006  11.8825017  70.7289987  10.7235006  11.8825017
  61.7399987   6.6285006  12.8845017  62.6969987   6.6285006  12.8845017
  61.4999987   7.5555006  12.8845017  64.5629987   1.2405006   8.7955017
  65.5199987   1.2405006   8.7955017  64.3229987   2.1675006   8.7955017
  65.7509987   5.5245006  12.5145017  66.7079987   5.5245006  12.5145017
  65.5109987   6.4515006  12.5145017  68.4779987   4.6865006  11.6135017
  69.4349987   4.6865006  11.6135017  68.2379987   5.6135006  11.6135017
  70.1059987   3.3125006  13.5525017  71.0629987   3.3125006  13.5525017
  69.8659987   4.2395006  13.5525017  59.8709987   4.5265006  12.6325017
  60.8279987   4.5265006  12.6325017  59.6309987   5.4535006  12.6325017
  65.2659987 108.5305006  11.6785017  66.2229987 108.5305006  11.6785017
  65.0259987 109.4575006  11.6785017  65.0579987   2.2525006  13.7595017
  66.0149987   2.2525006  13.7595017  64.8179987   3.1795006  13.7595017
  64.5489987  19.0905006 157.4275017  65.5059987  19.0905006 157.4275017
  64.3089987  20.0175006 157.4275017  58.1109987  13.6925006 156.8965017
  59.0679987  13.6925006 156.8965017  57.8709987  14.6195006 156.8965017
  56.8439987  19.0785006   1.3625017  57.8009987  19.0785006   1.3625017
  56.6039987  20.0055006   1.3625017  57.6439987  17.2055006   3.2075017
  58.6009987  17.2055006   3.2075017  57.4039987  18.1325006   3.2075017
  75.2219987  17.9515006   6.0735017  76.1789987  17.9515006   6.0735017
  74.9819987  18.8785006   6.0735017  74.3769987  16.8365006   9.5965017
  75.3339987  16.8365006   9.5965017  74.1369987  17.7635006   9.5965017
  73.2589987  13.3035006  13.7665017  74.2159987  13.3035006  13.7665017
  73.0189987  14.2305006  13.7665017  74.5579987  11.6315006 159.7455017
  75.5149987  11.6315006 159.7455017  74.3179987  12.5585006 159.7455017
  74.9319987   9.7025006   1.0705017  75.8889987   9.7025006   1.0705017
  74.6919987  10.6295006   1.0705017  74.6889987  12.4155006   6.0505017
  75.6459987  12.4155006   6.0505017  74.4489987  13.3425006   6.0505017
  73.1619987  15.1625006   8.2735017  74.1189987  15.1625006   8.2735017
  72.9219987  16.0895006   8.2735017  75.2309987   9.5395006 158.0105017
  76.1879987   9.5395006 158.0105017  74.9909987  10.4665006 158.0105017
  73.5979987   6.7835006 156.5325017  74.5549987   6.7835006 156.5325017
  73.3579987   7.7105006 156.5325017  72.7449987   8.1875006   1.6345017
  73.7019987   8.1875006   1.6345017  72.5049987   9.1145006   1.6345017
  57.7429987  10.2275006   5.6985017  58.6999987  10.2275006   5.6985017
  57.5029987  11.1545006   5.6985017  73.5939987  10.1575006  11.3125017
  74.5509987  10.1575006  11.3125017  73.3539987  11.0845006  11.3125017
  75.1049987   8.0485006  11.9785017  76.0619987   8.0485006  11.9785017
  74.8649987   8.9755006  11.9785017  72.8249987   4.2595006 155.6895017
  73.7819987   4.2595006 155.6895017  72.5849987   5.1865006 155.6895017
  72.4029987   5.7785006 160.6145017  73.3599987   5.7785006 160.6145017
  72.1629987   6.7055006 160.6145017  73.0469987   6.3265006   5.5315017
  74.0039987   6.3265006   5.5315017  72.8069987   7.2535006   5.5315017
  73.1109987   7.0535006   8.3195017  74.0679987   7.0535006   8.3195017
  72.8709987   7.9805006   8.3195017  57.3809987   5.5665006  11.8115017
  58.3379987   5.5665006  11.8115017  57.1409987   6.4935006  11.8115017
  75.3229987   1.1855006  13.6165017  76.2799987   1.1855006  13.6165017
  75.0829987   2.1125006  13.6165017  73.0649987   3.0585006   0.1205017
  74.0219987   3.0585006   0.1205017  72.8249987   3.9855006   0.1205017
  58.5409987   3.9195006   4.6965017  59.4979987   3.9195006   4.6965017
  58.3009987   4.8465006   4.6965017  56.8359987   6.8875006   5.7005017
  57.7929987   6.8875006   5.7005017  56.5959987   7.8145006   5.7005017
  74.9059987   3.2085006  12.0165017  75.8629987   3.2085006  12.0165017
  74.6659987   4.1355006  12.0165017  74.9209987   3.1185006 157.2525017
  75.8779987   3.1185006 157.2525017  74.6809987   4.0455006 157.2525017
  57.2039987   3.1195006 160.3975017  58.1609987   3.1195006 160.3975017
  56.9639987   4.0465006 160.3975017  71.9579987  18.0795006   1.7615017
  72.9149987  18.0795006   1.7615017  71.7179987  19.0065006   1.7615017
  57.1829987   1.8305006   8.1155017  58.1399987   1.8305006   8.1155017
  56.9429987   2.7575006   8.1155017  59.3949987  14.9835006  12.2795017
  60.3519987  14.9835006  12.2795017  59.1549987  15.9105006  12.2795017
  62.2979987  15.9785006   8.5515017  63.2549987  15.9785006   8.5515017
  62.0579987  16.9055006   8.5515017  66.6539987  17.3265006  11.4575017
  67.6109987  17.3265006  11.4575017  66.4139987  18.2535006  11.4575017
  68.9149987  18.6495006  10.7745017  69.8719987  18.6495006  10.7745017
  68.6749987  19.5765006  10.7745017  74.0709987   1.5395006   9.7895017
  75.0279987   1.5395006   9.7895017  73.8309987   2.4665006   9.7895017
  59.7299987  19.2245006   8.5625017  60.6869987  19.2245006   8.5625017
  59.4899987  20.1515006   8.5625017  62.1989987  18.8085006   7.6265017
  63.1559987  18.8085006   7.6265017  61.9589987  19.7355006   7.6265017
  66.9069987  18.7185006   6.7905017  67.8639987  18.7185006   6.7905017
  66.6669987  19.6455006   6.7905017  69.1969987  17.5375006   7.8115017
  70.1539987  17.5375006   7.8115017  68.9569987  18.4645006   7.8115017
  71.7479987  19.1155006   8.0295017  72.7049987  19.1155006   8.0295017
  71.5079987  20.0425006   8.0295017  59.1629987  17.8715006   5.4915017
  60.1199987  17.8715006   5.4915017  58.9229987  18.7985006   5.4915017
  61.2589987  16.5855006   4.1455017  62.2159987  16.5855006   4.1455017
  61.0189987  17.5125006   4.1455017  63.8379987  17.0695006   5.0055017
  64.7949987  17.0695006   5.0055017  63.5979987  17.9965006   5.0055017
  67.3099987   2.7455006   4.1595017  68.2669987   2.7455006   4.1595017
  67.0699987   3.6725006   4.1595017  72.5389987   1.0825006   4.4095017
  73.4959987   1.0825006   4.4095017  72.2989987   2.0095006   4.4095017
  74.1669987   1.9935006   2.5365017  75.1239987   1.9935006   2.5365017
  73.9269987   2.9205006   2.5365017  59.6399987   1.3275006   1.9905017
  60.5969987   1.3275006   1.9905017  59.3999987   2.2545006   1.9905017
  58.7409987   1.5245006 158.6905017  59.6979987   1.5245006 158.6905017
  58.5009987   2.4515006 158.6905017  64.1989987   1.3045006   1.7785017
  65.1559987   1.3045006   1.7785017  63.9589987   2.2315006   1.7785017
  69.7919987   1.3265006   3.4285017  70.7489987   1.3265006   3.4285017
  69.5519987   2.2535006   3.4285017  71.1449987   1.3525006 159.7125017
  72.1019987   1.3525006 159.7125017  70.9049987   2.2795006 159.7125017
  58.3909987  17.0565006 159.2665017  59.3479987  17.0565006 159.2665017
  58.1509987  17.9835006 159.2665017  60.3069987   3.0385006 156.7455017
  61.2639987   3.0385006 156.7455017  60.0669987   3.9655006 156.7455017
  65.3079987   3.3095006 159.1995017  66.2649987   3.3095006 159.1995017
  65.0679987   4.2365006 159.1995017  67.2449987  18.3375006 157.6375017
  68.2019987  18.3375006 157.6375017  67.0049987  19.2645006 157.6375017
  73.9589987  17.8635006 160.3395017  74.9159987  17.8635006 160.3395017
  73.7189987  18.7905006 160.3395017  59.5689987   1.9175006  11.5045017
  60.5259987   1.9175006  11.5045017  59.3289987   2.8445006  11.5045017
  61.5779987   1.2475006  13.0525017  62.5349987   1.2475006  13.0525017
  61.3379987   2.1745006  13.0525017  60.1789987  18.0265006 156.2385017
  61.1359987  18.0265006 156.2385017  59.9389987  18.9535006 156.2385017
  70.0589987 108.3985006  13.1075017  71.0159987 108.3985006  13.1075017
  69.8189987 109.3255006  13.1075017  73.1429987  16.5765006  11.9975017
  74.0999987  16.5765006  11.9975017  72.9029987  17.5035006  11.9975017
  87.6239987  10.4805006   1.8835017  88.5809987  10.4805006   1.8835017
  87.3839987  11.4075006   1.8835017  86.4959987   9.7485006   5.3685017
  87.4529987   9.7485006   5.3685017  86.2559987  10.6755006   5.3685017
  78.8519987   9.3995006   6.9265017  79.8089987   9.3995006   6.9265017
  78.6119987  10.3265006   6.9265017  90.1949987  12.6875006   3.6455017
  91.1519987  12.6875006   3.6455017  89.9549987  13.6145006   3.6455017
  79.7799987  13.8525006   5.4445017  80.7369987  13.8525006   5.4445017
  79.5399987  14.7795006   5.4445017  76.4199987   7.4335006   0.9005017
  77.3769987   7.4335006   0.9005017  76.1799987   8.3605006   0.9005017
  77.1189987   9.6535006   3.0355017  78.0759987   9.6535006   3.0355017
  76.8789987  10.5805006   3.0355017  87.3069987  17.8375006   3.8825017
  88.2639987  17.8375006   3.8825017  87.0669987  18.7645006   3.8825017
  84.8719987  12.1545006   5.8115017  85.8289987  12.1545006   5.8115017
  84.6319987  13.0815006   5.8115017  93.5039987   3.7595006   6.5715017
  94.4609987   3.7595006   6.5715017  93.2639987   4.6865006   6.5715017
  88.0669987   6.6085006   6.1345017  89.0239987   6.6085006   6.1345017
  87.8269987   7.5355006   6.1345017  81.1609987   4.7015006   3.3545017
  82.1179987   4.7015006   3.3545017  80.9209987   5.6285006   3.3545017
  88.9009987   4.7805006   1.7425017  89.8579987   4.7805006   1.7425017
  88.6609987   5.7075006   1.7425017  77.7849987   7.1045006   4.1105017
  78.7419987   7.1045006   4.1105017  77.5449987   8.0315006   4.1105017
  82.9459987   8.6595006   3.3955017  83.9029987   8.6595006   3.3955017
  82.7059987   9.5865006   3.3955017  93.9349987   5.2215006   8.8345017
  94.8919987   5.2215006   8.8345017  93.6949987   6.1485006   8.8345017
  79.9599987   3.5205006   7.3675017  80.9169987   3.5205006   7.3675017
  79.7199987   4.4475006   7.3675017  87.3609987  13.0835006   0.9585017
  88.3179987  13.0835006   0.9585017  87.1209987  14.0105006   0.9585017
  82.5779987  11.2425006   7.6705017  83.5349987  11.2425006   7.6705017
  82.3379987  12.1695006   7.6705017  90.6899987   4.1035006   3.7215017
  91.6469987   4.1035006   3.7215017  90.4499987   5.0305006   3.7215017
  79.5939987   5.5035006   5.3935017  80.5509987   5.5035006   5.3935017
  79.3539987   6.4305006   5.3935017  81.0159987  13.2315006   8.4795017
  81.9729987  13.2315006   8.4795017  80.7759987  14.1585006   8.4795017
  77.1019987  12.8675006 159.8155017  78.0589987  12.8675006 159.8155017
  76.8619987  13.7945006 159.8155017  90.7179987  14.5225006   6.0155017
  91.6749987  14.5225006   6.0155017  90.4779987  15.4495006   6.0155017
  91.0649987   2.8035006   7.4745017  92.0219987   2.8035006   7.4745017
  90.8249987   3.7305006   7.4745017  83.9639987   0.9555006   4.6895017
  84.9209987   0.9555006   4.6895017  83.7239987   1.8825006   4.6895017
  88.9709987  16.3075006   2.6185017  89.9279987  16.3075006   2.6185017
  88.7309987  17.2345006   2.6185017  90.1719987  14.2345006   1.1255017
  91.1289987  14.2345006   1.1255017  89.9319987  15.1615006   1.1255017
  91.8079987  12.8155006   9.6205017  92.7649987  12.8155006   9.6205017
  91.5679987  13.7425006   9.6205017  86.2989987   9.7255006 159.9355017
  87.2559987   9.7255006 159.9355017  86.0589987  10.6525006 159.9355017
  86.3599987   8.2595006 156.9455017  87.3169987   8.2595006 156.9455017
  86.1199987   9.1865006 156.9455017  93.6839987   9.1305006   7.6745017
  94.6409987   9.1305006   7.6745017  93.4439987  10.0575006   7.6745017
  89.7359987   9.9395006   0.3075017  90.6929987   9.9395006   0.3075017
  89.4959987  10.8665006   0.3075017  89.6579987   8.0975006   9.4195017
  90.6149987   8.0975006   9.4195017  89.4179987   9.0245006   9.4195017
  81.3529987  10.5965006   2.2205017  82.3099987  10.5965006   2.2205017
  81.1129987  11.5235006   2.2205017  82.6859987  13.9935006   4.9005017
  83.6429987  13.9935006   4.9005017  82.4459987  14.9205006   4.9005017
  81.6819987   9.3625006   5.8595017  82.6389987   9.3625006   5.8595017
  81.4419987  10.2895006   5.8595017  88.0779987  14.8995006   6.5795017
  89.0349987  14.8995006   6.5795017  87.8379987  15.8265006   6.5795017
  82.6299987  13.7605006  10.5755017  83.5869987  13.7605006  10.5755017
  82.3899987  14.6875006  10.5755017  88.6009987   9.1235006 158.5265017
  89.5579987   9.1235006 158.5265017  88.3609987  10.0505006 158.5265017
  79.5639987   9.9275006   9.7515017  80.5209987   9.9275006   9.7515017
  79.3239987  10.8545006   9.7515017  86.3219987  15.8505006   1.4455017
  87.2789987  15.8505006   1.4455017  86.0819987  16.7775006   1.4455017
  80.8699987  15.8115006  11.3295017  81.8269987  15.8115006  11.3295017
  80.6299987  16.7385006  11.3295017  92.3429987   0.8985006 158.3825017
  93.2999987   0.8985006 158.3825017  92.1029987   1.8255006 158.3825017
  80.3289987   9.6225006 160.3785017  81.2859987   9.6225006 160.3785017
  80.0889987  10.5495006 160.3785017  93.4509987  15.2145006 156.7615017
  94.4079987  15.2145006 156.7615017  93.2109987  16.1415006 156.7615017
  76.4269987  12.0415006   8.7005017  77.3839987  12.0415006   8.7005017
  76.1869987  12.9685006   8.7005017  76.1789987  14.7725006   5.4965017
  77.1359987  14.7725006   5.4965017  75.9389987  15.6995006   5.4965017
  94.4099987  15.4765006  11.1915017  95.3669987  15.4765006  11.1915017
  94.1699987  16.4035006  11.1915017  85.3699987  15.0235006  10.0575017
  86.3269987  15.0235006  10.0575017  85.1299987  15.9505006  10.0575017
  85.8039987  18.7725006 160.4045017  86.7609987  18.7725006 160.4045017
  85.5639987  19.6995006 160.4045017  79.4459987  17.6365006   1.6695017
  80.4029987  17.6365006   1.6695017  79.2059987  18.5635006   1.6695017
  88.8689987  17.9775006 157.3875017  89.8259987  17.9775006 157.3875017
  88.6289987  18.9045006 157.3875017  88.5579987  17.9045006 160.1515017
  89.5149987  17.9045006 160.1515017  88.3179987  18.8315006 160.1515017
  91.5509987   6.9595006  11.6775017  92.5079987   6.9595006  11.6775017
  91.3109987   7.8865006  11.6775017  78.6919987  13.3685006   9.6675017
  79.6489987  13.3685006   9.6675017  78.4519987  14.2955006   9.6675017
  81.4389987   1.9145006   5.5515017  82.3959987   1.9145006   5.5515017
  81.1989987   2.8415006   5.5515017  86.1439987   1.3885006   9.0915017
  87.1009987   1.3885006   9.0915017  85.9039987   2.3155006   9.0915017
  89.3279987   5.3145006   9.9035017  90.2849987   5.3145006   9.9035017
  89.0879987   6.2415006   9.9035017  90.0559987  10.1585006 156.2795017
  91.0129987  10.1585006 156.2795017  89.8159987  11.0855006 156.2795017
  85.6569987   4.0655006 156.8505017  86.6139987   4.0655006 156.8505017
  85.4169987   4.9925006 156.8505017  81.4329987   6.7985006   6.8155017
  82.3899987   6.7985006   6.8155017  81.1929987   7.7255006   6.8155017
  81.4219987   6.9565006   1.7115017  82.3789987   6.9565006   1.7115017
  81.1819987   7.8835006   1.7115017  86.9489987   7.4215006   0.5125017
  87.9059987   7.4215006   0.5125017  86.7089987   8.3485006   0.5125017
  86.0229987   7.6255006  11.9555017  86.9799987   7.6255006  11.9555017
  85.7829987   8.5525006  11.9555017  87.9769987   6.9005006   3.3455017
  88.9339987   6.9005006   3.3455017  87.7369987   7.8275006   3.3455017
  79.1039987   7.0765006   8.5745017  80.0609987   7.0765006   8.5745017
  78.8639987   8.0035006   8.5745017  82.4899987   4.4935006 155.9695017
  83.4469987   4.4935006 155.9695017  82.2499987   5.4205006 155.9695017
  75.7439987   4.2075006   2.5135017  76.7009987   4.2075006   2.5135017
  75.5039987   5.1345006   2.5135017  77.0319987   4.9275006 158.4625017
  77.9889987   4.9275006 158.4625017  76.7919987   5.8545006 158.4625017
  87.1999987   8.4985006   7.9345017  88.1569987   8.4985006   7.9345017
  86.9599987   9.4255006   7.9345017  83.9889987   4.4785006   2.7515017
  84.9459987   4.4785006   2.7515017  83.7489987   5.4055006   2.7515017
  78.8079987   6.0435006   1.6115017  79.7649987   6.0435006   1.6115017
  78.5679987   6.9705006   1.6115017  82.4509987   6.0705006 159.7875017
  83.4079987   6.0705006 159.7875017  82.2109987   6.9975006 159.7875017
  88.4139987   3.6835006   5.9835017  89.3709987   3.6835006   5.9835017
  88.1739987   4.6105006   5.9835017  81.1429987   7.2495006 157.3705017
  82.0999987   7.2495006 157.3705017  80.9029987   8.1765006 157.3705017
  91.6109987  19.3465006  12.3095017  92.5679987  19.3465006  12.3095017
  91.3709987  20.2735006  12.3095017  79.2799987  11.8105006  11.8795017
  80.2369987  11.8105006  11.8795017  79.0399987  12.7375006  11.8795017
  85.2869987   7.2325006   4.6395017  86.2439987   7.2325006   4.6395017
  85.0469987   8.1595006   4.6395017  80.2749987   3.3695006   1.0625017
  81.2319987   3.3695006   1.0625017  80.0349987   4.2965006   1.0625017
  83.9729987   5.8665006   6.9435017  84.9299987   5.8665006   6.9435017
  83.7329987   6.7935006   6.9435017  84.5039987  11.7925006 159.2865017
  85.4609987  11.7925006 159.2865017  84.2639987  12.7195006 159.2865017
  91.6669987  10.9665006   7.5515017  92.6239987  10.9665006   7.5515017
  91.4269987  11.8935006   7.5515017  88.3539987   4.6015006 157.4645017
  89.3109987   4.6015006 157.4645017  88.1139987   5.5285006 157.4645017
  85.9909987  12.0295006   9.9875017  86.9479987  12.0295006   9.9875017
  85.7509987  12.9565006   9.9875017  89.0709987   6.5055006 159.1125017
  90.0279987   6.5055006 159.1125017  88.8309987   7.4325006 159.1125017
  79.6059987  11.1595006   4.5445017  80.5629987  11.1595006   4.5445017
  79.3659987  12.0865006   4.5445017  86.6099987  13.2545006 158.3185017
  87.5669987  13.2545006 158.3185017  86.3699987  14.1815006 158.3185017
  76.5969987   9.5815006   9.8175017  77.5539987   9.5815006   9.8175017
  76.3569987  10.5085006   9.8175017  83.6129987   9.1345006  12.0075017
  84.5699987   9.1345006  12.0075017  83.3729987  10.0615006  12.0075017
  88.2839987  14.4655006   9.9295017  89.2409987  14.4655006   9.9295017
  88.0439987  15.3925006   9.9295017  93.9659987   6.6685006 158.8695017
  94.9229987   6.6685006 158.8695017  93.7259987   7.5955006 158.8695017
  93.9519987  12.5185006  11.1475017  94.9089987  12.5185006  11.1475017
  93.7119987  13.4455006  11.1475017  92.2399987  15.4875006 159.2795017
  93.1969987  15.4875006 159.2795017  91.9999987  16.4145006 159.2795017
  89.4579987  10.3025006   5.8245017  90.4149987  10.3025006   5.8245017
  89.2179987  11.2295006   5.8245017  81.9819987  14.6255006   1.9295017
  82.9389987  14.6255006   1.9295017  81.7419987  15.5525006   1.9295017
  77.7429987   9.4715006 157.0435017  78.6999987   9.4715006 157.0435017
  77.5029987  10.3985006 157.0435017  83.4049987  12.2895006   1.4565017
  84.3619987  12.2895006   1.4565017  83.1649987  13.2165006   1.4565017
  83.8659987  16.4635006   7.8425017  84.8229987  16.4635006   7.8425017
  83.6259987  17.3905006   7.8425017  82.0779987  17.2915006   0.9935017
  83.0349987  17.2915006   0.9935017  81.8379987  18.2185006   0.9935017
  87.4009987  12.4975006   7.4885017  88.3579987  12.4975006   7.4885017
  87.1609987  13.4245006   7.4885017  89.6949987  13.5325006 157.1115017
  90.6519987  13.5325006 157.1115017  89.4549987  14.4595006 157.1115017
  90.1689987  17.0675006   9.9815017  91.1259987  17.0675006   9.9815017
  89.9289987  17.9945006   9.9815017  94.1709987  17.9095006 157.3545017
  95.1279987  17.9095006 157.3545017  93.9309987  18.8365006 157.3545017
  78.2549987   4.3055006   9.3955017  79.2119987   4.3055006   9.3955017
  78.0149987   5.2325006   9.3955017  90.4909987  12.1755006 159.3465017
  91.4479987  12.1755006 159.3465017  90.2509987  13.1025006 159.3465017
  77.8929987  16.1005006   7.7815017  78.8499987  16.1005006   7.7815017
  77.6529987  17.0275006   7.7815017  83.8149987  14.6175006 155.5915017
  84.7719987  14.6175006 155.5915017  83.5749987  15.5445006 155.5915017
  82.6349987  14.1485006 158.0475017  83.5919987  14.1485006 158.0475017
  82.3949987  15.0755006 158.0475017  79.1479987  11.3945006 158.5375017
  80.1049987  11.3945006 158.5375017  78.9079987  12.3215006 158.5375017
  87.0659987   4.0995006   8.2945017  88.0229987   4.0995006   8.2945017
  86.8259987   5.0265006   8.2945017  87.7529987   3.6575006 159.9375017
  88.7099987   3.6575006 159.9375017  87.5129987   4.5845006 159.9375017
  85.4209987  15.8195006 158.7665017  86.3779987  15.8195006 158.7665017
  85.1809987  16.7465006 158.7665017  84.9699987   5.3995006   0.2215017
  85.9269987   5.3995006   0.2215017  84.7299987   6.3265006   0.2215017
  85.5189987   6.4455006   9.4045017  86.4759987   6.4455006   9.4045017
  85.2789987   7.3725006   9.4045017  85.8259987   2.4785006   1.1365017
  86.7829987   2.4785006   1.1365017  85.5859987   3.4055006   1.1365017
  82.8019987  16.8555006 158.7775017  83.7589987  16.8555006 158.7775017
  82.5619987  17.7825006 158.7775017  81.4669987   3.5775006 158.3665017
  82.4239987   3.5775006 158.3665017  81.2269987   4.5045006 158.3665017
  91.7009987   4.3285006  10.2465017  92.6579987   4.3285006  10.2465017
  91.4609987   5.2555006  10.2465017  90.2999987   8.0935006   4.2855017
  91.2569987   8.0935006   4.2855017  90.0599987   9.0205006   4.2855017
  79.7099987  14.0115006 157.4195017  80.6669987  14.0115006 157.4195017
  79.4699987  14.9385006 157.4195017  78.0509987   6.6855006 156.5515017
  79.0079987   6.6855006 156.5515017  77.8109987   7.6125006 156.5515017
  91.3689987  17.3395006   5.9485017  92.3259987  17.3395006   5.9485017
  91.1289987  18.2665006   5.9485017  78.6369987   1.6725006   4.6035017
  79.5939987   1.6725006   4.6035017  78.3969987   2.5995006   4.6035017
  77.8179987  15.3895006   0.8785017  78.7749987  15.3895006   0.8785017
  77.5779987  16.3165006   0.8785017  77.0489987  18.0415006  12.1985017
  78.0059987  18.0415006  12.1985017  76.8089987  18.9685006  12.1985017
  81.6949987  16.9575006  13.7955017  82.6519987  16.9575006  13.7955017
  81.4549987  17.8845006  13.7955017  85.8209987  16.4725006 155.7255017
  86.7779987  16.4725006 155.7255017  85.5809987  17.3995006 155.7255017
  88.2259987  15.3385006  12.5265017  89.1829987  15.3385006  12.5265017
  87.9859987  16.2655006  12.5265017  90.3919987  16.2305006 155.9245017
  91.3489987  16.2305006 155.9245017  90.1519987  17.1575006 155.9245017
  76.9579987  11.8235006  13.1625017  77.9149987  11.8235006  13.1625017
  76.7179987  12.7505006  13.1625017  81.2899987  12.1645006 155.7575017
  82.2469987  12.1645006 155.7575017  81.0499987  13.0915006 155.7575017
  83.6549987  11.8025006  12.5625017  84.6119987  11.8025006  12.5625017
  83.4149987  12.7295006  12.5625017  86.7069987  13.2575006 155.5185017
  87.6639987  13.2575006 155.5185017  86.4669987  14.1845006 155.5185017
  89.3589987  11.6725006   9.9485017  90.3159987  11.6725006   9.9485017
  89.1189987  12.5995006   9.9485017  77.8509987   9.0425006  12.5515017
  78.8079987   9.0425006  12.5515017  77.6109987   9.9695006  12.5515017
  82.4849987  10.1725006 158.1435017  83.4419987  10.1725006 158.1435017
  82.2449987  11.0995006 158.1435017  81.7639987   8.0055006   9.9255017
  82.7209987   8.0055006   9.9255017  81.5239987   8.9325006   9.9255017
  83.5579987   8.3945006 156.3655017  84.5149987   8.3945006 156.3655017
  83.3179987   9.3215006 156.3655017  86.8179987  10.5435006  13.2325017
  87.7749987  10.5435006  13.2325017  86.5779987  11.4705006  13.2325017
  92.9139987  10.7245006 155.7945017  93.8709987  10.7245006 155.7945017
  92.6739987  11.6515006 155.7945017  82.1579987   5.3785006  11.0155017
  83.1149987   5.3785006  11.0155017  81.9179987   6.3055006  11.0155017
  82.1059987   4.3535006   8.5725017  83.0629987   4.3535006   8.5725017
  81.8659987   5.2805006   8.5725017  84.1079987   9.2195006   8.7695017
  85.0649987   9.2195006   8.7695017  83.8679987  10.1465006   8.7695017
  88.5009987   6.9965006  13.7435017  89.4579987   6.9965006  13.7435017
  88.2609987   7.9235006  13.7435017  89.8369987   9.7925006  11.8865017
  90.7939987   9.7925006  11.8865017  89.5969987  10.7195006  11.8865017
  80.6139987   6.6155006  12.8995017  81.5709987   6.6155006  12.8995017
  80.3739987   7.5425006  12.8995017  83.3169987   0.8895006   9.0025017
  84.2739987   0.8895006   9.0025017  83.0769987   1.8165006   9.0025017
  84.6129987   5.5225006  12.5275017  85.5699987   5.5225006  12.5275017
  84.3729987   6.4495006  12.5275017  87.3179987   4.6815006  11.6045017
  88.2749987   4.6815006  11.6045017  87.0779987   5.6085006  11.6045017
  88.9619987   3.3075006  13.5505017  89.9189987   3.3075006  13.5505017
  88.7219987   4.2345006  13.5505017  78.7069987   4.5245006  12.6415017
  79.6639987   4.5245006  12.6415017  78.4669987   5.4515006  12.6415017
  84.0689987 108.5125006  11.6575017  85.0259987 108.5125006  11.6575017
  83.8289987 109.4395006  11.6575017  83.9129987   2.2485006  13.7425017
  84.8699987   2.2485006  13.7425017  83.6729987   3.1755006  13.7425017
  83.4049987  19.0905006 157.4275017  84.3619987  19.0905006 157.4275017
  83.1649987  20.0175006 157.4275017  76.9669987  13.6935006 156.8965017
  77.9239987  13.6935006 156.8965017  76.7269987  14.6205006 156.8965017
  75.7239987  19.0755006   1.3405017  76.6809987  19.0755006   1.3405017
  75.4839987  20.0025006   1.3405017  76.5529987  17.2015006   3.1835017
  77.5099987  17.2015006   3.1835017  76.3129987  18.1285006   3.1835017
  94.1119987  17.9685006   6.1525017  95.0689987  17.9685006   6.1525017
  93.8719987  18.8955006   6.1525017  93.6929987  17.5855006   9.0765017
  94.6499987  17.5855006   9.0765017  93.4529987  18.5125006   9.0765017
  92.1069987  13.3195006  13.7475017  93.0639987  13.3195006  13.7475017
  91.8669987  14.2465006  13.7475017  93.4139987  11.6315006 159.7455017
  94.3709987  11.6315006 159.7455017  93.1739987  12.5585006 159.7455017
  93.7869987   9.7025006   1.0705017  94.7439987   9.7025006   1.0705017
  93.5469987  10.6295006   1.0705017  93.5429987  12.4155006   6.0495017
  94.4999987  12.4155006   6.0495017  93.3029987  13.3425006   6.0495017
  92.0899987  15.3155006   8.3345017  93.0469987  15.3155006   8.3345017
  91.8499987  16.2425006   8.3345017  94.0869987   9.5395006 158.0105017
  95.0439987   9.5395006 158.0105017  93.8469987  10.4665006 158.0105017
  92.4539987   6.7835006 156.5325017  93.4109987   6.7835006 156.5325017
  92.2139987   7.7105006 156.5325017  91.6009987   8.1875006   1.6355017
  92.5579987   8.1875006   1.6355017  91.3609987   9.1145006   1.6355017
  76.6059987  10.2705006   5.6895017  77.5629987  10.2705006   5.6895017
  76.3659987  11.1975006   5.6895017  92.4509987  10.1585006  11.3135017
  93.4079987  10.1585006  11.3135017  92.2109987  11.0855006  11.3135017
  93.9609987   8.0485006  11.9785017  94.9179987   8.0485006  11.9785017
  93.7209987   8.9755006  11.9785017  91.6809987   4.2595006 155.6895017
  92.6379987   4.2595006 155.6895017  91.4409987   5.1865006 155.6895017
  91.2589987   5.7785006 160.6145017  92.2159987   5.7785006 160.6145017
  91.0189987   6.7055006 160.6145017  91.9039987   6.3245006   5.5325017
  92.8609987   6.3245006   5.5325017  91.6639987   7.2515006   5.5325017
  91.9679987   7.0555006   8.3195017  92.9249987   7.0555006   8.3195017
  91.7279987   7.9825006   8.3195017  76.2249987   5.5765006  11.8335017
  77.1819987   5.5765006  11.8335017  75.9849987   6.5035006  11.8335017
  94.1749987   1.1865006  13.6175017  95.1319987   1.1865006  13.6175017
  93.9349987   2.1135006  13.6175017  91.9229987   3.0585006   0.1205017
  92.8799987   3.0585006   0.1205017  91.6829987   3.9855006   0.1205017
  77.3959987   3.8995006   4.6955017  78.3529987   3.8995006   4.6955017
  77.1559987   4.8265006   4.6955017  75.7119987   6.8525006   5.7465017
  76.6689987   6.8525006   5.7465017  75.4719987   7.7795006   5.7465017
  93.7629987   3.2095006  12.0155017  94.7199987   3.2095006  12.0155017
  93.5229987   4.1365006  12.0155017  93.7779987   3.1195006 157.2515017
  94.7349987   3.1195006 157.2515017  93.5379987   4.0465006 157.2515017
  76.0609987   3.0925006 160.3795017  77.0179987   3.0925006 160.3795017
  75.8209987   4.0195006 160.3795017  90.8129987  18.0755006   1.7645017
  91.7699987  18.0755006   1.7645017  90.5729987  19.0025006   1.7645017
  76.0449987   1.8235006   8.1245017  77.0019987   1.8235006   8.1245017
  75.8049987   2.7505006   8.1245017  78.2559987  14.9745006  12.2815017
  79.2129987  14.9745006  12.2815017  78.0159987  15.9015006  12.2815017
  81.1559987  15.9815006   8.5535017  82.1129987  15.9815006   8.5535017
  80.9159987  16.9085006   8.5535017  85.4809987  17.4035006  11.4695017
  86.4379987  17.4035006  11.4695017  85.2409987  18.3305006  11.4695017
  87.7789987  18.6735006  10.7585017  88.7359987  18.6735006  10.7585017
  87.5389987  19.6005006  10.7585017  92.8659987   1.4415006   9.8155017
  93.8229987   1.4415006   9.8155017  92.6259987   2.3685006   9.8155017
  78.6499987  19.2745006   8.5795017  79.6069987  19.2745006   8.5795017
  78.4099987  20.2015006   8.5795017  81.0669987  18.8065006   7.6235017
  82.0239987  18.8065006   7.6235017  80.8269987  19.7335006   7.6235017
  85.7599987  18.7155006   6.7935017  86.7169987  18.7155006   6.7935017
  85.5199987  19.6425006   6.7935017  88.0659987  17.5465006   7.7915017
  89.0229987  17.5465006   7.7915017  87.8259987  18.4735006   7.7915017
  90.6449987  19.1125006   8.0495017  91.6019987  19.1125006   8.0495017
  90.4049987  20.0395006   8.0495017  78.0249987  17.8735006   5.4795017
  78.9819987  17.8735006   5.4795017  77.7849987  18.8005006   5.4795017
  80.1179987  16.5845006   4.1445017  81.0749987  16.5845006   4.1445017
  79.8779987  17.5115006   4.1445017  82.7059987  17.0685006   5.0155017
  83.6629987  17.0685006   5.0155017  82.4659987  17.9955006   5.0155017
  86.1609987   2.7535006   4.1365017  87.1179987   2.7535006   4.1365017
  85.9209987   3.6805006   4.1365017  91.3859987   1.0805006   4.4065017
  92.3429987   1.0805006   4.4065017  91.1459987   2.0075006   4.4065017
  93.0239987   1.9935006   2.5295017  93.9809987   1.9935006   2.5295017
  92.7839987   2.9205006   2.5295017  78.4949987   1.3225006   1.9905017
  79.4519987   1.3225006   1.9905017  78.2549987   2.2495006   1.9905017
  77.5989987   1.5195006 158.6875017  78.5559987   1.5195006 158.6875017
  77.3589987   2.4465006 158.6875017  83.0549987   1.3035006   1.7865017
  84.0119987   1.3035006   1.7865017  82.8149987   2.2305006   1.7865017
  88.6419987   1.3305006   3.4265017  89.5989987   1.3305006   3.4265017
  88.4019987   2.2575006   3.4265017  89.9999987   1.3465006 159.7085017
  90.9569987   1.3465006 159.7085017  89.7599987   2.2735006 159.7085017
  77.2399987  17.0555006 159.2745017  78.1969987  17.0555006 159.2745017
  76.9999987  17.9825006 159.2745017  79.1639987   3.0375006 156.7425017
  80.1209987   3.0375006 156.7425017  78.9239987   3.9645006 156.7425017
  84.1649987   3.3085006 159.1985017  85.1219987   3.3085006 159.1985017
  83.9249987   4.2355006 159.1985017  86.1009987  18.3375006 157.6375017
  87.0579987  18.3375006 157.6375017  85.8609987  19.2645006 157.6375017
  92.8149987  17.8635006 160.3405017  93.7719987  17.8635006 160.3405017
  92.5749987  18.7905006 160.3405017  78.4109987   1.9035006  11.5225017
  79.3679987   1.9035006  11.5225017  78.1709987   2.8305006  11.5225017
  80.4369987   1.2515006  13.0775017  81.3939987   1.2515006  13.0775017
  80.1969987   2.1785006  13.0775017  79.0349987  18.0265006 156.2375017
  79.9919987  18.0265006 156.2375017  78.7949987  18.9535006 156.2375017
  88.9179987 108.3835006  13.0965017  89.8749987 108.3835006  13.0965017
  88.6779987 109.3105006  13.0965017  92.0499987  16.6015006  11.8925017
  93.0069987  16.6015006  11.8925017  91.8099987  17.5285006  11.8925017
 106.4669987  10.4505006   1.8565017 107.4239987  10.4505006   1.8565017
 106.2269987  11.3775006   1.8565017 105.2809987   9.7635006   5.3785017
 106.2379987   9.7635006   5.3785017 105.0409987  10.6905006   5.3785017
  97.7079987   9.4025006   6.9225017  98.6649987   9.4025006   6.9225017
  97.4679987  10.3295006   6.9225017  98.6439987  13.8725006   5.4595017
  99.6009987  13.8725006   5.4595017  98.4039987  14.7995006   5.4595017
  95.2789987   7.4315006   0.9025017  96.2359987   7.4315006   0.9025017
  95.0389987   8.3585006   0.9025017  95.9749987   9.6535006   3.0355017
  96.9319987   9.6535006   3.0355017  95.7349987  10.5805006   3.0355017
 106.1879987  17.8015006   3.8545017 107.1449987  17.8015006   3.8545017
 105.9479987  18.7285006   3.8545017 103.7019987  12.1435006   5.8015017
 104.6589987  12.1435006   5.8015017 103.4619987  13.0705006   5.8015017
 106.2249987   6.3615006   6.0955017 107.1819987   6.3615006   6.0955017
 105.9849987   7.2885006   6.0955017 100.0239987   4.7025006   3.3635017
 100.9809987   4.7025006   3.3635017  99.7839987   5.6295006   3.3635017
 107.7259987   5.2775006   1.3385017 108.6829987   5.2775006   1.3385017
 107.4859987   6.2045006   1.3385017  96.6389987   7.1055006   4.1085017
  97.5959987   7.1055006   4.1085017  96.3989987   8.0325006   4.1085017
 101.7919987   8.6635006   3.3925017 102.7489987   8.6635006   3.3925017
 101.5519987   9.5905006   3.3925017  98.9169987   3.6035006   7.4215017
  99.8739987   3.6035006   7.4215017  98.6769987   4.5305006   7.4215017
 106.2729987  13.0995006   0.9435017 107.2299987  13.0995006   0.9435017
 106.0329987  14.0265006   0.9435017 101.4419987  11.2365006   7.6685017
 102.3989987  11.2365006   7.6685017 101.2019987  12.1635006   7.6685017
  98.4619987   5.4795006   5.4155017  99.4189987   5.4795006   5.4155017
  98.2219987   6.4065006   5.4155017  99.8599987  13.2075006   8.4645017
 100.8169987  13.2075006   8.4645017  99.6199987  14.1345006   8.4645017
  95.9579987  12.8675006 159.8155017  96.9149987  12.8675006 159.8155017
  95.7179987  13.7945006 159.8155017 102.8499987   0.9645006   4.7405017
 103.8069987   0.9645006   4.7405017 102.6099987   1.8915006   4.7405017
 107.5019987  16.1335006   2.2055017 108.4589987  16.1335006   2.2055017
 107.2619987  17.0605006   2.2055017 105.1319987   9.7355006 159.9225017
 106.0889987   9.7355006 159.9225017 104.8919987  10.6625006 159.9225017
 105.1909987   8.2435006 156.9465017 106.1479987   8.2435006 156.9465017
 104.9509987   9.1705006 156.9465017 100.2089987  10.5965006   2.2205017
 101.1659987  10.5965006   2.2205017  99.9689987  11.5235006   2.2205017
 101.5319987  14.0085006   4.9165017 102.4889987  14.0085006   4.9165017
 101.2919987  14.9355006   4.9165017 100.5469987   9.3375006   5.8715017
 101.5039987   9.3375006   5.8715017 100.3069987  10.2645006   5.8715017
 106.5399987  14.9235006   6.6225017 107.4969987  14.9235006   6.6225017
 106.2999987  15.8505006   6.6225017 101.4899987  13.7695006  10.5655017
 102.4469987  13.7695006  10.5655017 101.2499987  14.6965006  10.5655017
 107.4789987   9.0755006 158.5235017 108.4359987   9.0755006 158.5235017
 107.2389987  10.0025006 158.5235017  98.4199987   9.9285006   9.7515017
  99.3769987   9.9285006   9.7515017  98.1799987  10.8555006   9.7515017
 105.0809987  15.8445006   1.4375017 106.0379987  15.8445006   1.4375017
 104.8409987  16.7715006   1.4375017  99.7129987  15.8395006  11.3365017
 100.6699987  15.8395006  11.3365017  99.4729987  16.7665006  11.3365017
  99.1849987   9.6225006 160.3785017 100.1419987   9.6225006 160.3785017
  98.9449987  10.5495006 160.3785017  95.2779987  12.0435006   8.7025017
  96.2349987  12.0435006   8.7025017  95.0379987  12.9705006   8.7025017
  95.0569987  14.7855006   5.5205017  96.0139987  14.7855006   5.5205017
  94.8169987  15.7125006   5.5205017 104.2459987  15.0235006  10.0775017
 105.2029987  15.0235006  10.0775017 104.0059987  15.9505006  10.0775017
 104.6669987  18.7775006 160.4075017 105.6239987  18.7775006 160.4075017
 104.4269987  19.7045006 160.4075017  98.3019987  17.6375006   1.6755017
  99.2589987  17.6375006   1.6755017  98.0619987  18.5645006   1.6755017
 107.7399987  17.9625006 157.3665017 108.6969987  17.9625006 157.3665017
 107.4999987  18.8895006 157.3665017 107.2579987  17.7255006 160.0075017
 108.2149987  17.7255006 160.0075017 107.0179987  18.6525006 160.0075017
  97.5419987  13.3675006   9.6635017  98.4989987  13.3675006   9.6635017
  97.3019987  14.2945006   9.6635017 100.3099987   1.9235006   5.5675017
 101.2669987   1.9235006   5.5675017 100.0699987   2.8505006   5.5675017
 104.9229987   1.5325006   9.0545017 105.8799987   1.5325006   9.0545017
 104.6829987   2.4595006   9.0545017 104.5579987   4.0515006 156.8715017
 105.5149987   4.0515006 156.8715017 104.3179987   4.9785006 156.8715017
 100.3059987   6.7865006   6.8445017 101.2629987   6.7865006   6.8445017
 100.0659987   7.7135006   6.8445017 100.2819987   6.9495006   1.7225017
 101.2389987   6.9495006   1.7225017 100.0419987   7.8765006   1.7225017
 105.7849987   7.4345006   0.5135017 106.7419987   7.4345006   0.5135017
 105.5449987   8.3615006   0.5135017 104.8979987   7.6515006  11.9885017
 105.8549987   7.6515006  11.9885017 104.6579987   8.5785006  11.9885017
 106.7869987   6.8805006   3.3345017 107.7439987   6.8805006   3.3345017
 106.5469987   7.8075006   3.3345017  97.9659987   7.0735006   8.5755017
  98.9229987   7.0735006   8.5755017  97.7259987   8.0005006   8.5755017
 101.3339987   4.4935006 155.9645017 102.2909987   4.4935006 155.9645017
 101.0939987   5.4205006 155.9645017  94.5989987   4.2085006   2.5125017
  95.5559987   4.2085006   2.5125017  94.3589987   5.1355006   2.5125017
  95.8879987   4.9275006 158.4625017  96.8449987   4.9275006 158.4625017
  95.6479987   5.8545006 158.4625017 106.0439987   8.5005006   7.9485017
 107.0009987   8.5005006   7.9485017 105.8039987   9.4275006   7.9485017
 102.8539987   4.4665006   2.7395017 103.8109987   4.4665006   2.7395017
 102.6139987   5.3935006   2.7395017  97.6649987   6.0425006   1.6115017
  98.6219987   6.0425006   1.6115017  97.4249987   6.9695006   1.6115017
 101.3089987   6.0725006 159.7885017 102.2659987   6.0725006 159.7885017
 101.0689987   6.9995006 159.7885017 107.2339987   3.6525006   6.0265017
 108.1909987   3.6525006   6.0265017 106.9939987   4.5795006   6.0265017
 100.0029987   7.2495006 157.3705017 100.9599987   7.2495006 157.3705017
  99.7629987   8.1765006 157.3705017  98.1349987  11.8165006  11.8795017
  99.0919987  11.8165006  11.8795017  97.8949987  12.7435006  11.8795017
 104.0969987   7.2205006   4.5955017 105.0539987   7.2205006   4.5955017
 103.8569987   8.1475006   4.5955017  99.1319987   3.3695006   1.0635017
 100.0889987   3.3695006   1.0635017  98.8919987   4.2965006   1.0635017
 102.7549987   5.5695006   7.0505017 103.7119987   5.5695006   7.0505017
 102.5149987   6.4965006   7.0505017 103.3659987  11.7945006 159.2835017
 104.3229987  11.7945006 159.2835017 103.1259987  12.7215006 159.2835017
 107.0609987   4.5405006 157.6495017 108.0179987   4.5405006 157.6495017
 106.8209987   5.4675006 157.6495017 104.8399987  12.0115006   9.9805017
 105.7969987  12.0115006   9.9805017 104.5999987  12.9385006   9.9805017
   0.1319987   6.6005006 159.1305017   1.0889987   6.6005006 159.1305017
  -0.1080013   7.5275006 159.1305017  98.4609987  11.1565006   4.5455017
  99.4179987  11.1565006   4.5455017  98.2209987  12.0835006   4.5455017
 105.4579987  13.2455006 158.3095017 106.4149987  13.2455006 158.3095017
 105.2179987  14.1725006 158.3095017  95.4549987   9.5815006   9.8155017
  96.4119987   9.5815006   9.8155017  95.2149987  10.5085006   9.8155017
 102.4729987   9.1315006  12.0065017 103.4299987   9.1315006  12.0065017
 102.2329987  10.0585006  12.0065017 107.1539987  14.5065006   9.9155017
 108.1109987  14.5065006   9.9155017 106.9139987  15.4335006   9.9155017
 100.8249987  14.6375006   1.9575017 101.7819987  14.6375006   1.9575017
 100.5849987  15.5645006   1.9575017  96.5989987   9.4715006 157.0435017
  97.5559987   9.4715006 157.0435017  96.3589987  10.3985006 157.0435017
 102.2549987  12.2955006   1.4595017 103.2119987  12.2955006   1.4595017
 102.0149987  13.2225006   1.4595017 102.6839987  16.4835006   7.8485017
 103.6409987  16.4835006   7.8485017 102.4439987  17.4105006   7.8485017
 100.9359987  17.2925006   0.9965017 101.8929987  17.2925006   0.9965017
 100.6959987  18.2195006   0.9965017 106.2749987  12.4755006   7.5025017
 107.2319987  12.4755006   7.5025017 106.0349987  13.4025006   7.5025017
  97.1119987   4.3045006   9.3925017  98.0689987   4.3045006   9.3925017
  96.8719987   5.2315006   9.3925017  96.8119987  16.1265006   7.7855017
  97.7689987  16.1265006   7.7855017  96.5719987  17.0535006   7.7855017
 102.6639987  14.6205006 155.5845017 103.6209987  14.6205006 155.5845017
 102.4239987  15.5475006 155.5845017 101.4919987  14.1475006 158.0465017
 102.4489987  14.1475006 158.0465017 101.2519987  15.0745006 158.0465017
  98.0039987  11.3945006 158.5375017  98.9609987  11.3945006 158.5375017
  97.7639987  12.3215006 158.5375017 105.8389987   4.0785006   8.3115017
 106.7959987   4.0785006   8.3115017 105.5989987   5.0055006   8.3115017
 106.3099987   3.8645006 159.9895017 107.2669987   3.8645006 159.9895017
 106.0699987   4.7915006 159.9895017 104.2859987  15.8145006 158.7725017
 105.2429987  15.8145006 158.7725017 104.0459987  16.7415006 158.7725017
 103.8079987   5.4175006   0.2195017 104.7649987   5.4175006   0.2195017
 103.5679987   6.3445006   0.2195017 104.3359987   6.3905006   9.4215017
 105.2929987   6.3905006   9.4215017 104.0959987   7.3175006   9.4215017
 104.7009987   2.4775006   1.1495017 105.6579987   2.4775006   1.1495017
 104.4609987   3.4045006   1.1495017 101.6349987  16.8525006 158.7705017
 102.5919987  16.8525006 158.7705017 101.3949987  17.7795006 158.7705017
 100.3219987   3.5775006 158.3665017 101.2789987   3.5775006 158.3665017
 100.0819987   4.5045006 158.3665017  98.5649987  14.0125006 157.4205017
  99.5219987  14.0125006 157.4205017  98.3249987  14.9395006 157.4205017
  96.9069987   6.6855006 156.5535017  97.8639987   6.6855006 156.5535017
  96.6669987   7.6125006 156.5535017  97.4919987   1.6735006   4.6045017
  98.4489987   1.6735006   4.6045017  97.2519987   2.6005006   4.6045017
  96.6749987  15.3905006   0.8785017  97.6319987  15.3905006   0.8785017
  96.4349987  16.3175006   0.8785017  95.8969987  18.0395006  12.1775017
  96.8539987  18.0395006  12.1775017  95.6569987  18.9665006  12.1775017
 100.5559987  16.9605006  13.7945017 101.5129987  16.9605006  13.7945017
 100.3159987  17.8875006  13.7945017 104.7059987  16.4585006 155.7205017
 105.6629987  16.4585006 155.7205017 104.4659987  17.3855006 155.7205017
 107.1359987  15.3425006  12.5245017 108.0929987  15.3425006  12.5245017
 106.8959987  16.2695006  12.5245017  95.8149987  11.8235006  13.1645017
  96.7719987  11.8235006  13.1645017  95.5749987  12.7505006  13.1645017
 100.1419987  12.1635006 155.7565017 101.0989987  12.1635006 155.7565017
  99.9019987  13.0905006 155.7565017 102.4979987  11.8015006  12.5675017
 103.4549987  11.8015006  12.5675017 102.2579987  12.7285006  12.5675017
 105.5979987  13.2395006 155.5255017 106.5549987  13.2395006 155.5255017
 105.3579987  14.1665006 155.5255017  96.7069987   9.0425006  12.5515017
  97.6639987   9.0425006  12.5515017  96.4669987   9.9695006  12.5515017
 101.3409987  10.1735006 158.1425017 102.2979987  10.1735006 158.1425017
 101.1009987  11.1005006 158.1425017 100.6189987   7.9985006   9.9175017
 101.5759987   7.9985006   9.9175017 100.3789987   8.9255006   9.9175017
 102.4109987   8.3915006 156.3675017 103.3679987   8.3915006 156.3675017
 102.1709987   9.3185006 156.3675017 105.6749987  10.5405006  13.2645017
 106.6319987  10.5405006  13.2645017 105.4349987  11.4675006  13.2645017
 101.0029987   5.3675006  10.9815017 101.9599987   5.3675006  10.9815017
 100.7629987   6.2945006  10.9815017 101.4159987   3.7385006   8.5195017
 102.3729987   3.7385006   8.5195017 101.1759987   4.6655006   8.5195017
 102.9789987   9.2185006   8.7655017 103.9359987   9.2185006   8.7655017
 102.7389987  10.1455006   8.7655017 107.3909987   7.0165006  13.8445017
 108.3479987   7.0165006  13.8445017 107.1509987   7.9435006  13.8445017
  99.4649987   6.6195006  12.9055017 100.4219987   6.6195006  12.9055017
  99.2249987   7.5465006  12.9055017 102.2949987   1.2375006   8.7865017
 103.2519987   1.2375006   8.7865017 102.0549987   2.1645006   8.7865017
 103.4669987   5.5225006  12.5225017 104.4239987   5.5225006  12.5225017
 103.2269987   6.4495006  12.5225017 106.1349987   4.6415006  11.5855017
 107.0919987   4.6415006  11.5855017 105.8949987   5.5685006  11.5855017
 107.8329987   3.3235006  13.5425017 108.7899987   3.3235006  13.5425017
 107.5929987   4.2505006  13.5425017  97.5639987   4.5265006  12.6415017
  98.5209987   4.5265006  12.6415017  97.3239987   5.4535006  12.6415017
 102.9969987 108.5305006  11.6655017 103.9539987 108.5305006  11.6655017
 102.7569987 109.4575006  11.6655017 102.7489987   2.2515006  13.7495017
 103.7059987   2.2515006  13.7495017 102.5089987   3.1785006  13.7495017
 102.2629987  19.0925006 157.4275017 103.2199987  19.0925006 157.4275017
 102.0229987  20.0195006 157.4275017  95.8229987  13.6925006 156.8965017
  96.7799987  13.6925006 156.8965017  95.5829987  14.6195006 156.8965017
  94.5779987  19.0715006   1.3485017  95.5349987  19.0715006   1.3485017
  94.3379987  19.9985006   1.3485017  95.4329987  17.1875006   3.2075017
  96.3899987  17.1875006   3.2075017  95.1929987  18.1145006   3.2075017
  95.4599987  10.2665006   5.6875017  96.4169987  10.2665006   5.6875017
  95.2199987  11.1935006   5.6875017  95.0809987   5.5765006  11.8325017
  96.0379987   5.5765006  11.8325017  94.8409987   6.5035006  11.8325017
  96.2529987   3.8985006   4.6965017  97.2099987   3.8985006   4.6965017
  96.0129987   4.8255006   4.6965017  94.5689987   6.8515006   5.7465017
  95.5259987   6.8515006   5.7465017  94.3289987   7.7785006   5.7465017
  94.9169987   3.0925006 160.3795017  95.8739987   3.0925006 160.3795017
  94.6769987   4.0195006 160.3795017  94.8989987   1.8265006   8.1335017
  95.8559987   1.8265006   8.1335017  94.6589987   2.7535006   8.1335017
  97.1059987  14.9885006  12.2755017  98.0629987  14.9885006  12.2755017
  96.8659987  15.9155006  12.2755017 100.1419987  15.8225006   8.6825017
 101.0989987  15.8225006   8.6825017  99.9019987  16.7495006   8.6825017
 104.3369987  17.4085006  11.4965017 105.2939987  17.4085006  11.4965017
 104.0969987  18.3355006  11.4965017 106.6879987  18.7135006  10.7205017
 107.6449987  18.7135006  10.7205017 106.4479987  19.6405006  10.7205017
  97.4279987  19.1685006   8.5325017  98.3849987  19.1685006   8.5325017
  97.1879987  20.0955006   8.5325017  99.9929987  19.1425006   7.7485017
 100.9499987  19.1425006   7.7485017  99.7529987  20.0695006   7.7485017
 104.5749987  18.7085006   6.8005017 105.5319987  18.7085006   6.8005017
 104.3349987  19.6355006   6.8005017 106.9359987  17.5825006   7.8085017
 107.8929987  17.5825006   7.8085017 106.6959987  18.5095006   7.8085017
  96.9129987  17.9015006   5.5205017  97.8699987  17.9015006   5.5205017
  96.6729987  18.8285006   5.5205017  98.9379987  16.5975006   4.2355017
  99.8949987  16.5975006   4.2355017  98.6979987  17.5245006   4.2355017
 101.4589987  17.0395006   5.0495017 102.4159987  17.0395006   5.0495017
 101.2189987  17.9665006   5.0495017 105.0119987   2.7345006   4.1525017
 105.9689987   2.7345006   4.1525017 104.7719987   3.6615006   4.1525017
  97.3499987   1.3255006   1.9945017  98.3069987   1.3255006   1.9945017
  97.1099987   2.2525006   1.9945017  96.4549987   1.5195006 158.6885017
  97.4119987   1.5195006 158.6885017  96.2149987   2.4465006 158.6885017
 101.9069987   1.3005006   1.7815017 102.8639987   1.3005006   1.7815017
 101.6669987   2.2275006   1.7815017 107.4079987   1.1805006   3.4665017
 108.3649987   1.1805006   3.4665017 107.1679987   2.1075006   3.4665017
  96.0959987  17.0555006 159.2745017  97.0529987  17.0555006 159.2745017
  95.8559987  17.9825006 159.2745017  98.0199987   3.0375006 156.7455017
  98.9769987   3.0375006 156.7455017  97.7799987   3.9645006 156.7455017
 102.9939987   3.3125006 159.2005017 103.9509987   3.3125006 159.2005017
 102.7539987   4.2395006 159.2005017 104.9369987  18.3385006 157.6255017
 105.8939987  18.3385006 157.6255017 104.6969987  19.2655006 157.6255017
  97.2669987   1.9045006  11.5215017  98.2239987   1.9045006  11.5215017
  97.0269987   2.8315006  11.5215017  99.2929987   1.2425006  13.0635017
 100.2499987   1.2425006  13.0635017  99.0529987   2.1695006  13.0635017
  97.8909987  18.0255006 156.2435017  98.8479987  18.0255006 156.2435017
  97.6509987  18.9525006 156.2435017   0.0049987 108.3795006  13.0925017
   0.9619987 108.3795006  13.0925017  -0.2350013 109.3065006  13.0925017
  12.1469987  29.4175006   1.8575017  13.1039987  29.4175006   1.8575017
  11.9069987  30.3445006   1.8575017  11.1229987  28.5715006   5.3435017
  12.0799987  28.5715006   5.3435017  10.8829987  29.4985006   5.3435017
   3.4819987  28.2305006   6.8925017   4.4389987  28.2305006   6.8925017
   3.2419987  29.1575006   6.8925017  14.7659987  31.5385006   3.6445017
  15.7229987  31.5385006   3.6445017  14.5259987  32.4655006   3.6445017
   4.3399987  32.7055006   5.4495017   5.2969987  32.7055006   5.4495017
   4.0999987  33.6325006   5.4495017   1.0639987  26.3815006   0.8565017
   2.0209987  26.3815006   0.8565017   0.8239987  27.3085006   0.8565017
   1.6879987  28.4735006   3.0315017   2.6449987  28.4735006   3.0315017
   1.4479987  29.4005006   3.0315017  11.8819987  36.6945006   3.8825017
  12.8389987  36.6945006   3.8825017  11.6419987  37.6215006   3.8825017
   9.4439987  31.0135006   5.8195017  10.4009987  31.0135006   5.8195017
   9.2039987  31.9405006   5.8195017  18.0669987  22.6455006   6.5795017
  19.0239987  22.6455006   6.5795017  17.8269987  23.5725006   6.5795017
  12.6419987  25.4805006   6.1305017  13.5989987  25.4805006   6.1305017
  12.4019987  26.4075006   6.1305017   5.7999987  23.5335006   3.3195017
   6.7569987  23.5335006   3.3195017   5.5599987  24.4605006   3.3195017
  13.4639987  23.6905006   1.7525017  14.4209987  23.6905006   1.7525017
  13.2239987  24.6175006   1.7525017   2.5419987  26.0045006   4.0085017
   3.4989987  26.0045006   4.0085017   2.3019987  26.9315006   4.0085017
   7.5619987  27.5035006   3.3645017   8.5189987  27.5035006   3.3645017
   7.3219987  28.4305006   3.3645017  18.5019987  24.0775006   8.8395017
  19.4589987  24.0775006   8.8395017  18.2619987  25.0045006   8.8395017
   4.6299987  22.4555006   7.4245017   5.5869987  22.4555006   7.4245017
   4.3899987  23.3825006   7.4245017  11.9369987  31.9385006   0.9585017
  12.8939987  31.9385006   0.9585017  11.6969987  32.8655006   0.9585017
   7.1529987  30.0985006   7.6695017   8.1099987  30.0985006   7.6695017
   6.9129987  31.0255006   7.6695017  15.2449987  22.9955006   3.7395017
  16.2019987  22.9955006   3.7395017  15.0049987  23.9225006   3.7395017
   4.2089987  24.2935006   5.4295017   5.1659987  24.2935006   5.4295017
   3.9689987  25.2205006   5.4295017   5.5919987  32.0855006   8.4735017
   6.5489987  32.0855006   8.4735017   5.3519987  33.0125006   8.4735017
   1.7049987  31.7395006 159.7845017   2.6619987  31.7395006 159.7845017
   1.4649987  32.6665006 159.7845017  15.2939987  33.3775006   6.0155017
  16.2509987  33.3775006   6.0155017  15.0539987  34.3045006   6.0155017
  15.6099987  21.6675006   7.4125017  16.5669987  21.6675006   7.4125017
  15.3699987  22.5945006   7.4125017   8.5899987  19.7745006   4.8605017
   9.5469987  19.7745006   4.8605017   8.3499987  20.7015006   4.8605017
  13.5509987  35.1715006   2.6195017  14.5079987  35.1715006   2.6195017
  13.3109987  36.0985006   2.6195017  14.7499987  33.1005006   1.1235017
  15.7069987  33.1005006   1.1235017  14.5099987  34.0275006   1.1235017
  16.3839987  31.6725006   9.6205017  17.3409987  31.6725006   9.6205017
  16.1439987  32.5995006   9.6205017  10.8689987  28.5785006 159.9415017
  11.8259987  28.5785006 159.9415017  10.6289987  29.5055006 159.9415017
  10.9349987  27.1155006 156.9345017  11.8919987  27.1155006 156.9345017
  10.6949987  28.0425006 156.9345017  18.2569987  27.9855006   7.6715017
  19.2139987  27.9855006   7.6715017  18.0169987  28.9125006   7.6715017
  14.2929987  28.7675006   0.3075017  15.2499987  28.7675006   0.3075017
  14.0529987  29.6945006   0.3075017  14.2349987  26.9535006   9.4195017
  15.1919987  26.9535006   9.4195017  13.9949987  27.8805006   9.4195017
   5.9459987  29.4765006   2.2245017   6.9029987  29.4765006   2.2245017
   5.7059987  30.4035006   2.2245017   7.2579987  32.8475006   4.9005017
   8.2149987  32.8475006   4.9005017   7.0179987  33.7745006   4.9005017
   6.2859987  28.1965006   5.8705017   7.2429987  28.1965006   5.8705017
   6.0459987  29.1235006   5.8705017  12.6449987  33.7575006   6.5765017
  13.6019987  33.7575006   6.5765017  12.4049987  34.6845006   6.5765017
   7.2039987  32.6185006  10.5765017   8.1609987  32.6185006  10.5765017
   6.9639987  33.5455006  10.5765017  13.1679987  27.9745006 158.5515017
  14.1249987  27.9745006 158.5515017  12.9279987  28.9015006 158.5515017
   4.1249987  28.7875006   9.7655017   5.0819987  28.7875006   9.7655017
   3.8849987  29.7145006   9.7655017  10.8989987  34.7075006   1.4465017
  11.8559987  34.7075006   1.4465017  10.6589987  35.6345006   1.4465017
   5.4409987  34.6655006  11.3315017   6.3979987  34.6655006  11.3315017
   5.2009987  35.5925006  11.3315017  16.9049987  19.7125006 158.3965017
  17.8619987  19.7125006 158.3965017  16.6649987  20.6395006 158.3965017
   4.9349987  28.4735006 160.3745017   5.8919987  28.4735006 160.3745017
   4.6949987  29.4005006 160.3745017  18.0269987  34.0705006 156.7615017
  18.9839987  34.0705006 156.7615017  17.7869987  34.9975006 156.7615017
   1.1249987  30.8735006   8.6535017   2.0819987  30.8735006   8.6535017
   0.8849987  31.8005006   8.6535017   1.0109987  33.7685006   5.2305017
   1.9679987  33.7685006   5.2305017   0.7709987  34.6955006   5.2305017
  18.9889987  34.3355006  11.1935017  19.9459987  34.3355006  11.1935017
  18.7489987  35.2625006  11.1935017   9.9449987  33.8795006  10.0575017
  10.9019987  33.8795006  10.0575017   9.7049987  34.8065006  10.0575017
  10.3809987  37.6275006 160.4085017  11.3379987  37.6275006 160.4085017
  10.1409987  38.5545006 160.4085017   4.0199987  36.4905006   1.6565017
   4.9769987  36.4905006   1.6565017   3.7799987  37.4175006   1.6565017
  13.4419987  36.8365006 157.3895017  14.3989987  36.8365006 157.3895017
  13.2019987  37.7635006 157.3895017  13.1329987  36.7615006 160.1515017
  14.0899987  36.7615006 160.1515017  12.8929987  37.6885006 160.1515017
  16.1289987  25.8095006  11.6745017  17.0859987  25.8095006  11.6745017
  15.8889987  26.7365006  11.6745017   3.2619987  32.2445006   9.6835017
   4.2189987  32.2445006   9.6835017   3.0219987  33.1715006   9.6835017
   5.9409987  20.6925006   5.6125017   6.8979987  20.6925006   5.6125017
   5.7009987  21.6195006   5.6125017  10.5829987  20.3645006   8.9965017
  11.5399987  20.3645006   8.9965017  10.3429987  21.2915006   8.9965017
  13.8849987  24.1835006   9.8855017  14.8419987  24.1835006   9.8855017
  13.6449987  25.1105006   9.8855017  14.6309987  29.0125006 156.2735017
  15.5879987  29.0125006 156.2735017  14.3909987  29.9395006 156.2735017
  10.2289987  22.9325006 156.8485017  11.1859987  22.9325006 156.8485017
   9.9889987  23.8595006 156.8485017   6.0449987  25.6475006   6.8455017
   7.0019987  25.6475006   6.8455017   5.8049987  26.5745006   6.8455017
   6.0059987  25.7385006   1.7305017   6.9629987  25.7385006   1.7305017
   5.7659987  26.6655006   1.7305017  11.5939987  26.3555006   0.5825017
  12.5509987  26.3555006   0.5825017  11.3539987  27.2825006   0.5825017
  10.5989987  26.4815006  11.9545017  11.5559987  26.4815006  11.9545017
  10.3589987  27.4085006  11.9545017  12.2089987  25.3045006   3.4145017
  13.1659987  25.3045006   3.4145017  11.9689987  26.2315006   3.4145017
   3.7039987  25.9225006   8.5845017   4.6609987  25.9225006   8.5845017
   3.4639987  26.8495006   8.5845017   7.1009987  23.3035006 155.9705017
   8.0579987  23.3035006 155.9705017   6.8609987  24.2305006 155.9705017
   0.4319987  22.3435006   2.8565017   1.3889987  22.3435006   2.8565017
   0.1919987  23.2705006   2.8565017   1.7949987  23.7435006 158.5565017
   2.7519987  23.7435006 158.5565017   1.5549987  24.6705006 158.5565017
  11.7649987  27.3605006   7.9115017  12.7219987  27.3605006   7.9115017
  11.5249987  28.2875006   7.9115017   8.6049987  23.2165006   2.9925017
   9.5619987  23.2165006   2.9925017   8.3649987  24.1435006   2.9925017
   3.3989987  24.8725006   1.5795017   4.3559987  24.8725006   1.5795017
   3.1589987  25.7995006   1.5795017   7.0159987  24.9845006 159.7125017
   7.9729987  24.9845006 159.7125017   6.7759987  25.9115006 159.7125017
  12.9739987  22.5665006   5.9855017  13.9309987  22.5665006   5.9855017
  12.7339987  23.4935006   5.9855017   5.7249987  26.0835006 157.3755017
   6.6819987  26.0835006 157.3755017   5.4849987  27.0105006 157.3755017
  16.1869987  38.2035006  12.3105017  17.1439987  38.2035006  12.3105017
  15.9469987  39.1305006  12.3105017   3.8569987  30.6485006  11.8935017
   4.8139987  30.6485006  11.8935017   3.6169987  31.5755006  11.8935017
   9.8549987  26.0775006   4.6195017  10.8119987  26.0775006   4.6195017
   9.6149987  27.0045006   4.6195017   4.8879987  22.2345006   1.0705017
   5.8449987  22.2345006   1.0705017   4.6479987  23.1615006   1.0705017
   8.5029987  24.4195006   7.0485017   9.4599987  24.4195006   7.0485017
   8.2629987  25.3465006   7.0485017   9.0779987  30.6485006 159.2865017
  10.0349987  30.6485006 159.2865017   8.8379987  31.5755006 159.2865017
  16.2469987  29.8215006   7.5535017  17.2039987  29.8215006   7.5535017
  16.0069987  30.7485006   7.5535017  12.9219987  23.4605006 157.4795017
  13.8789987  23.4605006 157.4795017  12.6819987  24.3875006 157.4795017
  10.5669987  30.8855006   9.9885017  11.5239987  30.8855006   9.9885017
  10.3269987  31.8125006   9.9885017  13.6399987  25.3865006 159.1505017
  14.5969987  25.3865006 159.1505017  13.3999987  26.3135006 159.1505017
   4.1839987  30.0195006   4.5455017   5.1409987  30.0195006   4.5455017
   3.9439987  30.9465006   4.5455017  11.1859987  32.1125006 158.3195017
  12.1429987  32.1125006 158.3195017  10.9459987  33.0395006 158.3195017
   1.1629987  28.4385006   9.8245017   2.1199987  28.4385006   9.8245017
   0.9229987  29.3655006   9.8245017   8.1889987  27.9905006  12.0075017
   9.1459987  27.9905006  12.0075017   7.9489987  28.9175006  12.0075017
  12.8599987  33.3215006   9.9295017  13.8169987  33.3215006   9.9295017
  12.6199987  34.2485006   9.9295017  18.5719987  25.5205006 158.8615017
  19.5289987  25.5205006 158.8615017  18.3319987  26.4475006 158.8615017
  18.5279987  31.3745006  11.1475017  19.4849987  31.3745006  11.1475017
  18.2879987  32.3015006  11.1475017  16.8159987  34.3435006 159.2795017
  17.7729987  34.3435006 159.2795017  16.5759987  35.2705006 159.2795017
  14.0269987  29.1635006   5.7785017  14.9839987  29.1635006   5.7785017
  13.7869987  30.0905006   5.7785017   6.5689987  33.4745006   1.9295017
   7.5259987  33.4745006   1.9295017   6.3289987  34.4015006   1.9295017
   2.2819987  28.3045006 157.1275017   3.2389987  28.3045006 157.1275017
   2.0419987  29.2315006 157.1275017   7.9829987  31.1465006   1.4555017
   8.9399987  31.1465006   1.4555017   7.7429987  32.0735006   1.4555017
   8.4319987  35.3245006   7.8475017   9.3889987  35.3245006   7.8475017
   8.1919987  36.2515006   7.8475017   6.6619987  36.1455006   0.9925017
   7.6189987  36.1455006   0.9925017   6.4219987  37.0725006   0.9925017
  11.9739987  31.3555006   7.4905017  12.9309987  31.3555006   7.4905017
  11.7339987  32.2825006   7.4905017  14.2719987  32.3865006 157.1145017
  15.2289987  32.3865006 157.1145017  14.0319987  33.3135006 157.1145017
  14.7449987  35.9235006   9.9815017  15.7019987  35.9235006   9.9815017
  14.5049987  36.8505006   9.9815017  18.7489987  36.7635006 157.3545017
  19.7059987  36.7635006 157.3545017  18.5089987  37.6905006 157.3545017
   2.8079987  23.1715006   9.3695017   3.7649987  23.1715006   9.3695017
   2.5679987  24.0985006   9.3695017  15.0649987  31.0255006 159.3565017
  16.0219987  31.0255006 159.3565017  14.8249987  31.9525006 159.3565017
   2.4749987  34.9735006   7.7775017   3.4319987  34.9735006   7.7775017
   2.2349987  35.9005006   7.7775017   8.3909987  33.4735006 155.5915017
   9.3479987  33.4735006 155.5915017   8.1509987  34.4005006 155.5915017
   7.2229987  33.0055006 158.0455017   8.1799987  33.0055006 158.0455017
   6.9829987  33.9325006 158.0455017   3.6979987  30.2365006 158.5355017
   4.6549987  30.2365006 158.5355017   3.4579987  31.1635006 158.5355017
  11.5509987  22.9395006   8.2985017  12.5079987  22.9395006   8.2985017
  11.3109987  23.8665006   8.2985017  12.2899987  22.5485006 159.9475017
  13.2469987  22.5485006 159.9475017  12.0499987  23.4755006 159.9475017
   9.9979987  34.6745006 158.7675017  10.9549987  34.6745006 158.7675017
   9.7579987  35.6015006 158.7675017   9.9639987  24.3805006   0.0385017
  10.9209987  24.3805006   0.0385017   9.7239987  25.3075006   0.0385017
  10.0829987  25.2875006   9.4065017  11.0399987  25.2875006   9.4065017
   9.8429987  26.2145006   9.4065017  10.3429987  21.3745006   1.0875017
  11.2999987  21.3745006   1.0875017  10.1029987  22.3015006   1.0875017
   7.3789987  35.7115006 158.7765017   8.3359987  35.7115006 158.7765017
   7.1389987  36.6385006 158.7765017   6.0479987  22.4275006 158.3945017
   7.0049987  22.4275006 158.3945017   5.8079987  23.3545006 158.3945017
  16.2759987  23.1645006  10.2565017  17.2329987  23.1645006  10.2565017
  16.0359987  24.0915006  10.2565017  14.8689987  26.9355006   4.2695017
  15.8259987  26.9355006   4.2695017  14.6289987  27.8625006   4.2695017
   4.2949987  32.8845006 157.4155017   5.2519987  32.8845006 157.4155017
   4.0549987  33.8115006 157.4155017   2.5269987  25.5435006 156.8575017
   3.4839987  25.5435006 156.8575017   2.2869987  26.4705006 156.8575017
  15.9439987  36.1935006   5.9485017  16.9009987  36.1935006   5.9485017
  15.7039987  37.1205006   5.9485017   3.4639987  20.3265006   4.7165017
   4.4209987  20.3265006   4.7165017   3.2239987  21.2535006   4.7165017
   2.3859987  34.2575006   0.8905017   3.3429987  34.2575006   0.8905017
   2.1459987  35.1845006   0.8905017   1.7139987  36.8425006  12.1115017
   2.6709987  36.8425006  12.1115017   1.4739987  37.7695006  12.1115017
   6.2679987  35.8005006  13.7975017   7.2249987  35.8005006  13.7975017
   6.0279987  36.7275006  13.7975017  10.3969987  35.3285006 155.7255017
  11.3539987  35.3285006 155.7255017  10.1569987  36.2555006 155.7255017
  12.8019987  34.1945006  12.5265017  13.7589987  34.1945006  12.5265017
  12.5619987  35.1215006  12.5265017  14.9639987  35.0925006 155.9305017
  15.9209987  35.0925006 155.9305017  14.7239987  36.0195006 155.9305017
   1.5089987  30.6825006  13.1665017   2.4659987  30.6825006  13.1665017
   1.2689987  31.6095006  13.1665017   5.8689987  31.0215006 155.7595017
   6.8259987  31.0215006 155.7595017   5.6289987  31.9485006 155.7595017
   8.2309987  30.6585006  12.5615017   9.1879987  30.6585006  12.5615017
   7.9909987  31.5855006  12.5615017  11.2839987  32.1135006 155.5185017
  12.2409987  32.1135006 155.5185017  11.0439987  33.0405006 155.5185017
  13.9349987  30.5285006   9.9475017  14.8919987  30.5285006   9.9475017
  13.6949987  31.4555006   9.9475017   2.3629987  27.8775006  12.5455017
   3.3199987  27.8775006  12.5455017   2.1229987  28.8045006  12.5455017
   7.0889987  29.0265006 158.1495017   8.0459987  29.0265006 158.1495017
   6.8489987  29.9535006 158.1495017   6.3379987  26.8545006   9.9175017
   7.2949987  26.8545006   9.9175017   6.0979987  27.7815006   9.9175017
   8.1379987  27.2485006 156.3695017   9.0949987  27.2485006 156.3695017
   7.8979987  28.1755006 156.3695017  11.3939987  29.3985006  13.2315017
  12.3509987  29.3985006  13.2315017  11.1539987  30.3255006  13.2315017
  17.4799987  29.5795006 155.8065017  18.4369987  29.5795006 155.8065017
  17.2399987  30.5065006 155.8065017   6.7329987  24.2285006  10.9855017
   7.6899987  24.2285006  10.9855017   6.4929987  25.1555006  10.9855017
   7.1319987  22.6065006   8.5175017   8.0889987  22.6065006   8.5175017
   6.8919987  23.5335006   8.5175017   8.6809987  28.0745006   8.7635017
   9.6379987  28.0745006   8.7635017   8.4409987  29.0015006   8.7635017
  13.0759987  25.8555006  13.7275017  14.0329987  25.8555006  13.7275017
  12.8359987  26.7825006  13.7275017  14.4069987  28.6335006  11.8755017
  15.3639987  28.6335006  11.8755017  14.1669987  29.5605006  11.8755017
   5.1809987  25.4775006  12.8945017   6.1379987  25.4775006  12.8945017
   4.9409987  26.4045006  12.8945017   7.9129987  20.0505006   8.9295017
   8.8699987  20.0505006   8.9295017   7.6729987  20.9775006   8.9295017
   9.1969987  24.3745006  12.5225017  10.1539987  24.3745006  12.5225017
   8.9569987  25.3015006  12.5225017  11.9139987  23.5085006  11.5995017
  12.8709987  23.5085006  11.5995017  11.6739987  24.4355006  11.5995017
  13.5099987  22.1395006  13.5395017  14.4669987  22.1395006  13.5395017
  13.2699987  23.0665006  13.5395017   3.3269987  23.4025006  12.6415017
   4.2839987  23.4025006  12.6415017   3.0869987  24.3295006  12.6415017
   8.1359987  19.4115006  11.6155017   9.0929987  19.4115006  11.6155017
   7.8959987  20.3385006  11.6155017   8.5029987  21.0455006  13.7045017
   9.4599987  21.0455006  13.7045017   8.2629987  21.9725006  13.7045017
   7.9809987  37.9465006 157.4275017   8.9379987  37.9465006 157.4275017
   7.7409987  38.8735006 157.4275017   1.5929987  32.5565006 156.8835017
   2.5499987  32.5565006 156.8835017   1.3529987  33.4835006 156.8835017
 108.0929987  37.9845006   1.3585017 109.0499987  37.9845006   1.3585017
 107.8529987  38.9115006   1.3585017   1.5089987  36.1965006   3.3075017
   2.4659987  36.1965006   3.3075017   1.2689987  37.1235006   3.3075017
  18.6619987  36.8475006   6.1485017  19.6189987  36.8475006   6.1485017
  18.4219987  37.7745006   6.1485017  18.2419987  36.4435006   9.0925017
  19.1989987  36.4435006   9.0925017  18.0019987  37.3705006   9.0925017
  16.6829987  32.1755006  13.7475017  17.6399987  32.1755006  13.7475017
  16.4429987  33.1025006  13.7475017  17.9869987  30.4875006 159.7445017
  18.9439987  30.4875006 159.7445017  17.7469987  31.4145006 159.7445017
  18.3509987  28.5605006   1.0745017  19.3079987  28.5605006   1.0745017
  18.1109987  29.4875006   1.0745017  18.1199987  31.2725006   6.0525017
  19.0769987  31.2725006   6.0525017  17.8799987  32.1995006   6.0525017
  16.6659987  34.1715006   8.3345017  17.6229987  34.1715006   8.3345017
  16.4259987  35.0985006   8.3345017  18.6919987  28.4125006 157.9985017
  19.6489987  28.4125006 157.9985017  18.4519987  29.3395006 157.9985017
  17.0349987  25.6255006 156.5375017  17.9919987  25.6255006 156.5375017
  16.7949987  26.5525006 156.5375017  16.1039987  27.0515006   1.6335017
  17.0609987  27.0515006   1.6335017  15.8639987  27.9785006   1.6335017
   1.1829987  29.1145006   5.6985017   2.1399987  29.1145006   5.6985017
   0.9429987  30.0415006   5.6985017  17.0289987  29.0115006  11.3145017
  17.9859987  29.0115006  11.3145017  16.7889987  29.9385006  11.3145017
  18.5369987  26.9045006  11.9785017  19.4939987  26.9045006  11.9785017
  18.2969987  27.8315006  11.9785017  16.2659987  23.0925006 155.6615017
  17.2229987  23.0925006 155.6615017  16.0259987  24.0195006 155.6615017
  15.8499987  24.6365006 160.6405017  16.8069987  24.6365006 160.6405017
  15.6099987  25.5635006 160.6405017  16.4709987  25.1915006   5.5335017
  17.4279987  25.1915006   5.5335017  16.2309987  26.1185006   5.5335017
  16.5499987  25.9005006   8.3215017  17.5069987  25.9005006   8.3215017
  16.3099987  26.8275006   8.3215017   0.8819987  24.3875006  11.7565017
   1.8389987  24.3875006  11.7565017   0.6419987  25.3145006  11.7565017
  18.8129987  19.9405006  13.6745017  19.7699987  19.9405006  13.6745017
  18.5729987  20.8675006  13.6745017  16.5089987  21.9105006   0.1465017
  17.4659987  21.9105006   0.1465017  16.2689987  22.8375006   0.1465017
   2.0879987  22.7445006   4.6865017   3.0449987  22.7445006   4.6865017
   1.8479987  23.6715006   4.6865017   0.8909987  25.6765006   5.8995017
   1.8479987  25.6765006   5.8995017   0.6509987  26.6035006   5.8995017
  18.3429987  22.0465006  12.0265017  19.2999987  22.0465006  12.0265017
  18.1029987  22.9735006  12.0265017  18.3379987  21.9535006 157.2345017
  19.2949987  21.9535006 157.2345017  18.0979987  22.8805006 157.2345017
   0.8919987  21.9195006 160.3755017   1.8489987  21.9195006 160.3755017
   0.6519987  22.8465006 160.3755017  15.3879987  36.9335006   1.7635017
  16.3449987  36.9335006   1.7635017  15.1479987  37.8605006   1.7635017
 108.3289987  20.6335006   8.1475017 109.2859987  20.6335006   8.1475017
 108.0889987  21.5605006   8.1475017   2.8149987  33.8635006  12.2965017
   3.7719987  33.8635006  12.2965017   2.5749987  34.7905006  12.2965017
   5.7339987  34.8345006   8.5555017   6.6909987  34.8345006   8.5555017
   5.4939987  35.7615006   8.5555017  10.0569987  36.2595006  11.4695017
  11.0139987  36.2595006  11.4695017   9.8169987  37.1865006  11.4695017
  12.3549987  37.5285006  10.7595017  13.3119987  37.5285006  10.7595017
  12.1149987  38.4555006  10.7595017  17.3569987  20.1425006   9.8635017
  18.3139987  20.1425006   9.8635017  17.1169987  21.0695006   9.8635017
   3.1489987  38.0915006   8.5865017   4.1059987  38.0915006   8.5865017
   2.9089987  39.0185006   8.5865017   5.6379987  37.6505006   7.6315017
   6.5949987  37.6505006   7.6315017   5.3979987  38.5775006   7.6315017
  10.3319987  37.5665006   6.7975017  11.2889987  37.5665006   6.7975017
  10.0919987  38.4935006   6.7975017  12.6419987  36.4025006   7.7915017
  13.5989987  36.4025006   7.7915017  12.4019987  37.3295006   7.7915017
  15.2209987  37.9735006   8.0485017  16.1779987  37.9735006   8.0485017
  14.9809987  38.9005006   8.0485017   2.6369987  36.7495006   5.5505017
   3.5939987  36.7495006   5.5505017   2.3969987  37.6765006   5.5505017
   4.6819987  35.4395006   4.1455017   5.6389987  35.4395006   4.1455017
   4.4419987  36.3665006   4.1455017   7.2689987  35.9175006   5.0195017
   8.2259987  35.9175006   5.0195017   7.0289987  36.8445006   5.0195017
  10.7299987  21.5765006   4.1215017  11.6869987  21.5765006   4.1215017
  10.4899987  22.5035006   4.1215017  15.8879987  19.6335006   4.2445017
  16.8449987  19.6335006   4.2445017  15.6479987  20.5605006   4.2445017
  17.5679987  20.8535006   2.5275017  18.5249987  20.8535006   2.5275017
  17.3279987  21.7805006   2.5275017   3.1359987  20.2105006   1.9625017
   4.0929987  20.2105006   1.9625017   2.8959987  21.1375006   1.9625017
   1.9379987  19.9605006 158.3355017   2.8949987  19.9605006 158.3355017
   1.6979987  20.8875006 158.3355017   7.6059987  20.1945006   1.7935017
   8.5629987  20.1945006   1.7935017   7.3659987  21.1215006   1.7935017
  13.2689987  20.1645006   3.4225017  14.2259987  20.1645006   3.4225017
  13.0289987  21.0915006   3.4225017  14.5809987  20.1805006 159.6555017
  15.5379987  20.1805006 159.6555017  14.3409987  21.1075006 159.6555017
   1.9219987  35.9265006 159.2685017   2.8789987  35.9265006 159.2685017
   1.6819987  36.8535006 159.2685017   3.7259987  21.8745006 156.7925017
   4.6829987  21.8745006 156.7925017   3.4859987  22.8015006 156.7925017
   8.7079987  22.1535006 159.2185017   9.6649987  22.1535006 159.2185017
   8.4679987  23.0805006 159.2185017  10.6769987  37.1935006 157.6385017
  11.6339987  37.1935006 157.6385017  10.4369987  38.1205006 157.6385017
  17.3919987  36.7195006 160.3395017  18.3489987  36.7195006 160.3395017
  17.1519987  37.6465006 160.3395017   2.9949987  20.7395006  11.4585017
   3.9519987  20.7395006  11.4585017   2.7549987  21.6665006  11.4585017
   5.0109987  20.1175006  13.0755017   5.9679987  20.1175006  13.0755017
   4.7709987  21.0445006  13.0755017   3.5879987  36.8605006 156.2235017
   4.5449987  36.8605006 156.2235017   3.3479987  37.7875006 156.2235017
  13.4189987  19.4165006  13.2385017  14.3759987  19.4165006  13.2385017
  13.1789987  20.3435006  13.2385017  16.6249987  35.4565006  11.8935017
  17.5819987  35.4565006  11.8935017  16.3849987  36.3835006  11.8935017
  31.0499987  29.3325006   1.8875017  32.0069987  29.3325006   1.8875017
  30.8099987  30.2595006   1.8875017  29.9269987  28.6045006   5.3685017
  30.8839987  28.6045006   5.3685017  29.6869987  29.5315006   5.3685017
  22.2889987  28.2575006   6.9145017  23.2459987  28.2575006   6.9145017
  22.0489987  29.1845006   6.9145017  33.6649987  31.5465006   3.6715017
  34.6219987  31.5465006   3.6715017  33.4249987  32.4735006   3.6715017
  23.2109987  32.7075006   5.4455017  24.1679987  32.7075006   5.4455017
  22.9709987  33.6345006   5.4455017  19.8689987  26.2965006   0.8755017
  20.8259987  26.2965006   0.8755017  19.6289987  27.2235006   0.8755017
  20.5429987  28.5025006   3.0415017  21.4999987  28.5025006   3.0415017
  20.3029987  29.4295006   3.0415017  30.7769987  36.6375006   3.8385017
  31.7339987  36.6375006   3.8385017  30.5369987  37.5645006   3.8385017
  28.3029987  31.0145006   5.8165017  29.2599987  31.0145006   5.8165017
  28.0629987  31.9415006   5.8165017  36.9399987  22.6535006   6.5975017
  37.8969987  22.6535006   6.5975017  36.6999987  23.5805006   6.5975017
  31.4569987  25.4505006   6.1335017  32.4139987  25.4505006   6.1335017
  31.2169987  26.3775006   6.1335017  24.5919987  23.5515006   3.3695017
  25.5489987  23.5515006   3.3695017  24.3519987  24.4785006   3.3695017
  32.2939987  23.7065006   1.7525017  33.2509987  23.7065006   1.7525017
  32.0539987  24.6335006   1.7525017  21.2139987  25.9575006   4.1075017
  22.1709987  25.9575006   4.1075017  20.9739987  26.8845006   4.1075017
  26.3769987  27.5145006   3.3975017  27.3339987  27.5145006   3.3975017
  26.1369987  28.4415006   3.3975017  37.3919987  24.0945006   8.8445017
  38.3489987  24.0945006   8.8445017  37.1519987  25.0215006   8.8445017
  23.4779987  22.4495006   7.4145017  24.4349987  22.4495006   7.4145017
  23.2379987  23.3765006   7.4145017  30.7899987  31.9505006   0.9595017
  31.7469987  31.9505006   0.9595017  30.5499987  32.8775006   0.9595017
  26.0099987  30.0975006   7.6695017  26.9669987  30.0975006   7.6695017
  25.7699987  31.0245006   7.6695017  34.0109987  23.5315006   4.1375017
  34.9679987  23.5315006   4.1375017  33.7709987  24.4585006   4.1375017
  23.0389987  24.3185006   5.4215017  23.9959987  24.3185006   5.4215017
  22.7989987  25.2455006   5.4215017  24.4419987  32.0845006   8.4745017
  25.3989987  32.0845006   8.4745017  24.2019987  33.0115006   8.4745017
  20.5529987  31.7195006 159.8045017  21.5099987  31.7195006 159.8045017
  20.3129987  32.6465006 159.8045017  34.1409987  33.3785006   5.9855017
  35.0979987  33.3785006   5.9855017  33.9009987  34.3055006   5.9855017
  34.4759987  21.6815006   7.4445017  35.4329987  21.6815006   7.4445017
  34.2359987  22.6085006   7.4445017  27.4459987  19.7795006   4.8765017
  28.4029987  19.7795006   4.8765017  27.2059987  20.7065006   4.8765017
  29.7249987  28.5745006 159.9305017  30.6819987  28.5745006 159.9305017
  29.4849987  29.5015006 159.9305017  29.7889987  27.1155006 156.9435017
  30.7459987  27.1155006 156.9435017  29.5489987  28.0425006 156.9435017
  33.1539987  28.7715006   0.3025017  34.1109987  28.7715006   0.3025017
  32.9139987  29.6985006   0.3025017  33.0809987  26.9535006   9.4065017
  34.0379987  26.9535006   9.4065017  32.8409987  27.8805006   9.4065017
  24.7929987  29.4555006   2.2115017  25.7499987  29.4555006   2.2115017
  24.5529987  30.3825006   2.2115017  26.1139987  32.8475006   4.9025017
  27.0709987  32.8475006   4.9025017  25.8739987  33.7745006   4.9025017
  25.1239987  28.1945006   5.8715017  26.0809987  28.1945006   5.8715017
  24.8839987  29.1215006   5.8715017  31.4869987  33.7615006   6.5685017
  32.4439987  33.7615006   6.5685017  31.2469987  34.6885006   6.5685017
  26.0419987  32.5985006  10.5765017  26.9989987  32.5985006  10.5765017
  25.8019987  33.5255006  10.5765017  32.0339987  27.9695006 158.5205017
  32.9909987  27.9695006 158.5205017  31.7939987  28.8965006 158.5205017
  22.9969987  28.7845006   9.7515017  23.9539987  28.7845006   9.7515017
  22.7569987  29.7115006   9.7515017  29.7589987  34.7035006   1.4615017
  30.7159987  34.7035006   1.4615017  29.5189987  35.6305006   1.4615017
  24.2839987  34.6805006  11.3285017  25.2409987  34.6805006  11.3285017
  24.0439987  35.6075006  11.3285017  35.7349987  19.6835006 158.2985017
  36.6919987  19.6835006 158.2985017  35.4949987  20.6105006 158.2985017
  23.7909987  28.4575006 160.3015017  24.7479987  28.4575006 160.3015017
  23.5509987  29.3845006 160.3015017  36.8959987  34.0735006 156.7125017
  37.8529987  34.0735006 156.7125017  36.6559987  35.0005006 156.7125017
  19.8499987  30.8945006   8.7025017  20.8069987  30.8945006   8.7025017
  19.6099987  31.8215006   8.7025017  19.6089987  33.6345006   5.5075017
  20.5659987  33.6345006   5.5075017  19.3689987  34.5615006   5.5075017
  28.6689987  34.0065006   9.7745017  29.6259987  34.0065006   9.7745017
  28.4289987  34.9335006   9.7745017  29.1989987  37.6365006 160.4155017
  30.1559987  37.6365006 160.4155017  28.9589987  38.5635006 160.4155017
  22.8769987  36.4925006   1.6685017  23.8339987  36.4925006   1.6685017
  22.6369987  37.4195006   1.6685017  32.2489987  36.8065006 157.3875017
  33.2059987  36.8065006 157.3875017  32.0089987  37.7335006 157.3875017
  34.9449987  25.8265006  11.6765017  35.9019987  25.8265006  11.6765017
  34.7049987  26.7535006  11.6765017  22.1189987  32.2145006   9.6685017
  23.0759987  32.2145006   9.6685017  21.8789987  33.1415006   9.6685017
  24.7929987  20.6775006   5.6315017  25.7499987  20.6775006   5.6315017
  24.5529987  21.6045006   5.6315017  29.4369987  20.3685006   9.0055017
  30.3939987  20.3685006   9.0055017  29.1969987  21.2955006   9.0055017
  32.7239987  24.1825006   9.8755017  33.6809987  24.1825006   9.8755017
  32.4839987  25.1095006   9.8755017  33.4869987  29.0005006 156.2675017
  34.4439987  29.0005006 156.2675017  33.2469987  29.9275006 156.2675017
  29.0909987  22.9245006 156.8385017  30.0479987  22.9245006 156.8385017
  28.8509987  23.8515006 156.8385017  24.8949987  25.6455006   6.8425017
  25.8519987  25.6455006   6.8425017  24.6549987  26.5725006   6.8425017
  24.8499987  25.8315006   1.7005017  25.8069987  25.8315006   1.7005017
  24.6099987  26.7585006   1.7005017  30.3799987  26.2765006   0.5105017
  31.3369987  26.2765006   0.5105017  30.1399987  27.2035006   0.5105017
  29.4599987  26.4745006  11.9555017  30.4169987  26.4745006  11.9555017
  29.2199987  27.4015006  11.9555017  31.3909987  25.7655006   3.3495017
  32.3479987  25.7655006   3.3495017  31.1509987  26.6925006   3.3495017
  22.5409987  25.9295006   8.5745017  23.4979987  25.9295006   8.5745017
  22.3009987  26.8565006   8.5745017  25.9219987  23.3405006 155.9695017
  26.8789987  23.3405006 155.9695017  25.6819987  24.2675006 155.9695017
  19.1849987  23.0415006   2.5195017  20.1419987  23.0415006   2.5195017
  18.9449987  23.9685006   2.5195017  20.4709987  23.7625006 158.4475017
  21.4279987  23.7625006 158.4475017  20.2309987  24.6895006 158.4475017
  30.6149987  27.3555006   7.9235017  31.5719987  27.3555006   7.9235017
  30.3749987  28.2825006   7.9235017  27.4239987  23.3195006   2.7435017
  28.3809987  23.3195006   2.7435017  27.1839987  24.2465006   2.7435017
  22.2489987  24.9065006   1.5815017  23.2059987  24.9065006   1.5815017
  22.0089987  25.8335006   1.5815017  25.8799987  24.9295006 159.7795017
  26.8369987  24.9295006 159.7795017  25.6399987  25.8565006 159.7795017
  31.8289987  22.5335006   6.0105017  32.7859987  22.5335006   6.0105017
  31.5889987  23.4605006   6.0105017  24.6229987  26.0225006 157.3445017
  25.5799987  26.0225006 157.3445017  24.3829987  26.9495006 157.3445017
  35.0299987  38.2095006  12.3125017  35.9869987  38.2095006  12.3125017
  34.7899987  39.1365006  12.3125017  22.7129987  30.6665006  11.8795017
  23.6699987  30.6665006  11.8795017  22.4729987  31.5935006  11.8795017
  28.6979987  26.0815006   4.6365017  29.6549987  26.0815006   4.6365017
  28.4579987  27.0085006   4.6365017  23.7209987  22.2285006   1.0755017
  24.6779987  22.2285006   1.0755017  23.4809987  23.1555006   1.0755017
  27.3489987  24.4205006   7.0525017  28.3059987  24.4205006   7.0525017
  27.1089987  25.3475006   7.0525017  27.9269987  30.6385006 159.2815017
  28.8839987  30.6385006 159.2815017  27.6869987  31.5655006 159.2815017
  35.0509987  29.7585006   7.5145017  36.0079987  29.7585006   7.5145017
  34.8109987  30.6855006   7.5145017  31.7639987  23.4665006 157.4815017
  32.7209987  23.4665006 157.4815017  31.5239987  24.3935006 157.4815017
  29.4299987  30.8795006   9.9685017  30.3869987  30.8795006   9.9685017
  29.1899987  31.8065006   9.9685017  32.5039987  25.3655006 159.1135017
  33.4609987  25.3655006 159.1135017  32.2639987  26.2925006 159.1135017
  23.0369987  30.0135006   4.5435017  23.9939987  30.0135006   4.5435017
  22.7969987  30.9405006   4.5435017  30.0189987  32.1025006 158.2905017
  30.9759987  32.1025006 158.2905017  29.7789987  33.0295006 158.2905017
  20.0319987  28.4375006   9.8145017  20.9889987  28.4375006   9.8145017
  19.7919987  29.3645006   9.8145017  27.0439987  27.9865006  12.0065017
  28.0009987  27.9865006  12.0065017  26.8039987  28.9135006  12.0065017
  31.7059987  33.3345006   9.9005017  32.6629987  33.3345006   9.9005017
  31.4659987  34.2615006   9.9005017  37.4089987  25.5155006 158.8665017
  38.3659987  25.5155006 158.8665017  37.1689987  26.4425006 158.8665017
  32.8729987  29.1485006   5.8285017  33.8299987  29.1485006   5.8285017
  32.6329987  30.0755006   5.8285017  25.4069987  33.4755006   1.9345017
  26.3639987  33.4755006   1.9345017  25.1669987  34.4025006   1.9345017
  21.1879987  28.3265006 157.0745017  22.1449987  28.3265006 157.0745017
  20.9479987  29.2535006 157.0745017  26.8399987  31.1475006   1.4575017
  27.7969987  31.1475006   1.4575017  26.5999987  32.0745006   1.4575017
  27.2869987  35.3275006   7.8265017  28.2439987  35.3275006   7.8265017
  27.0469987  36.2545006   7.8265017  25.5079987  36.1455006   1.0035017
  26.4649987  36.1455006   1.0035017  25.2679987  37.0725006   1.0035017
  30.8249987  31.3415006   7.4655017  31.7819987  31.3415006   7.4655017
  30.5849987  32.2685006   7.4655017  33.1209987  32.3665006 157.0905017
  34.0779987  32.3665006 157.0905017  32.8809987  33.2935006 157.0905017
  33.5489987  35.9675006  10.0005017  34.5059987  35.9675006  10.0005017
  33.3089987  36.8945006  10.0005017  37.6069987  36.7765006 157.3455017
  38.5639987  36.7765006 157.3455017  37.3669987  37.7035006 157.3455017
  21.6819987  23.1745006   9.3635017  22.6389987  23.1745006   9.3635017
  21.4419987  24.1015006   9.3635017  33.9199987  31.0005006 159.3185017
  34.8769987  31.0005006 159.3185017  33.6799987  31.9275006 159.3185017
  21.3049987  34.9675006   7.7945017  22.2619987  34.9675006   7.7945017
  21.0649987  35.8945006   7.7945017  27.2469987  33.4755006 155.5905017
  28.2039987  33.4755006 155.5905017  27.0069987  34.4025006 155.5905017
  26.0509987  32.9885006 158.0505017  27.0079987  32.9885006 158.0505017
  25.8109987  33.9155006 158.0505017  22.5799987  30.2715006 158.5445017
  23.5369987  30.2715006 158.5445017  22.3399987  31.1985006 158.5445017
  30.3979987  22.9415006   8.3105017  31.3549987  22.9415006   8.3105017
  30.1579987  23.8685006   8.3105017  31.1439987  22.5405006 159.9235017
  32.1009987  22.5405006 159.9235017  30.9039987  23.4675006 159.9235017
  28.8539987  34.6705006 158.7655017  29.8109987  34.6705006 158.7655017
  28.6139987  35.5975006 158.7655017  28.3789987  24.2865006   0.2185017
  29.3359987  24.2865006   0.2185017  28.1389987  25.2135006   0.2185017
  28.9379987  25.2875006   9.4075017  29.8949987  25.2875006   9.4075017
  28.6979987  26.2145006   9.4075017  29.2379987  21.3385006   1.1085017
  30.1949987  21.3385006   1.1085017  28.9979987  22.2655006   1.1085017
  26.2179987  35.7095006 158.7715017  27.1749987  35.7095006 158.7715017
  25.9779987  36.6365006 158.7715017  24.9009987  22.4415006 158.3595017
  25.8579987  22.4415006 158.3595017  24.6609987  23.3685006 158.3595017
  35.1319987  23.1755006  10.2555017  36.0889987  23.1755006  10.2555017
  34.8919987  24.1025006  10.2555017  33.7369987  26.9695006   4.3085017
  34.6939987  26.9695006   4.3085017  33.4969987  27.8965006   4.3085017
  23.1469987  32.8485006 157.4275017  24.1039987  32.8485006 157.4275017
  22.9069987  33.7755006 157.4275017  21.4909987  25.5515006 156.5525017
  22.4479987  25.5515006 156.5525017  21.2509987  26.4785006 156.5525017
  22.2989987  20.3285006   4.7305017  23.2559987  20.3285006   4.7305017
  22.0589987  21.2555006   4.7305017  21.2499987  34.2455006   0.8785017
  22.2069987  34.2455006   0.8785017  21.0099987  35.1725006   0.8785017
  20.4689987  36.8995006  12.1775017  21.4259987  36.8995006  12.1775017
  20.2289987  37.8265006  12.1775017  25.1169987  35.8135006  13.7925017
  26.0739987  35.8135006  13.7925017  24.8769987  36.7405006  13.7925017
  29.2569987  35.3265006 155.7325017  30.2139987  35.3265006 155.7325017
  29.0169987  36.2535006 155.7325017  32.1199987  34.1315006  12.4015017
  33.0769987  34.1315006  12.4015017  31.8799987  35.0585006  12.4015017
  33.8149987  35.0825006 155.8975017  34.7719987  35.0825006 155.8975017
  33.5749987  36.0095006 155.8975017  20.3909987  30.6795006  13.1645017
  21.3479987  30.6795006  13.1645017  20.1509987  31.6065006  13.1645017
  24.7019987  31.0025006 155.7545017  25.6589987  31.0025006 155.7545017
  24.4619987  31.9295006 155.7545017  27.0809987  30.6655006  12.5615017
  28.0379987  30.6655006  12.5615017  26.8409987  31.5925006  12.5615017
  30.1379987  32.1135006 155.5165017  31.0949987  32.1135006 155.5165017
  29.8979987  33.0405006 155.5165017  32.8199987  30.5315006   9.9285017
  33.7769987  30.5315006   9.9285017  32.5799987  31.4585006   9.9285017
  21.2809987  27.8975006  12.5505017  22.2379987  27.8975006  12.5505017
  21.0409987  28.8245006  12.5505017  25.9219987  29.0345006 158.1325017
  26.8789987  29.0345006 158.1325017  25.6819987  29.9615006 158.1325017
  25.1929987  26.8545006   9.9175017  26.1499987  26.8545006   9.9175017
  24.9529987  27.7815006   9.9175017  26.9679987  27.2695006 156.3705017
  27.9249987  27.2695006 156.3705017  26.7279987  28.1965006 156.3705017
  30.2549987  29.2705006  13.1365017  31.2119987  29.2705006  13.1365017
  30.0149987  30.1975006  13.1365017  36.3489987  29.5795006 155.7945017
  37.3059987  29.5795006 155.7945017  36.1089987  30.5065006 155.7945017
  25.5869987  24.2285006  10.9855017  26.5439987  24.2285006  10.9855017
  25.3469987  25.1555006  10.9855017  25.9869987  22.6055006   8.5175017
  26.9439987  22.6055006   8.5175017  25.7469987  23.5325006   8.5175017
  27.5359987  28.0745006   8.7605017  28.4929987  28.0745006   8.7605017
  27.2959987  29.0015006   8.7605017  31.9389987  25.8585006  13.7585017
  32.8959987  25.8585006  13.7585017  31.6989987  26.7855006  13.7585017
  33.2809987  28.6535006  11.8615017  34.2379987  28.6535006  11.8615017
  33.0409987  29.5805006  11.8615017  24.0459987  25.4705006  12.8985017
  25.0029987  25.4705006  12.8985017  23.8059987  26.3975006  12.8985017
  26.7809987  20.0445006   8.9245017  27.7379987  20.0445006   8.9245017
  26.5409987  20.9715006   8.9245017  28.0539987  24.3725006  12.5215017
  29.0109987  24.3725006  12.5215017  27.8139987  25.2995006  12.5215017
  30.7649987  23.5025006  11.5935017  31.7219987  23.5025006  11.5935017
  30.5249987  24.4295006  11.5935017  32.3519987  22.1385006  13.5305017
  33.3089987  22.1385006  13.5305017  32.1119987  23.0655006  13.5305017
  22.1419987  23.3965006  12.6325017  23.0989987  23.3965006  12.6325017
  21.9019987  24.3235006  12.6325017  26.9919987  19.4125006  11.6155017
  27.9489987  19.4125006  11.6155017  26.7519987  20.3395006  11.6155017
  27.3589987  21.0465006  13.7045017  28.3159987  21.0465006  13.7045017
  27.1189987  21.9735006  13.7045017  26.8469987  37.9455006 157.4315017
  27.8039987  37.9455006 157.4315017  26.6069987  38.8725006 157.4315017
  20.4019987  32.5315006 156.9085017  21.3589987  32.5315006 156.9085017
  20.1619987  33.4585006 156.9085017  19.1539987  37.9325006   1.3435017
  20.1109987  37.9325006   1.3435017  18.9139987  38.8595006   1.3435017
  19.9839987  36.0505006   3.1985017  20.9409987  36.0505006   3.1985017
  19.7439987  36.9775006   3.1985017  36.8679987  30.4685006 159.7585017
  37.8249987  30.4685006 159.7585017  36.6279987  31.3955006 159.7585017
  37.2159987  28.5615006   1.0805017  38.1729987  28.5615006   1.0805017
  36.9759987  29.4885006   1.0805017  37.5199987  28.3855006 158.0095017
  38.4769987  28.3855006 158.0095017  37.2799987  29.3125006 158.0095017
  35.8909987  25.6285006 156.5295017  36.8479987  25.6285006 156.5295017
  35.6509987  26.5555006 156.5295017  35.0449987  27.0345006   1.6305017
  36.0019987  27.0345006   1.6305017  34.8049987  27.9615006   1.6305017
  20.0359987  29.1215006   5.6855017  20.9929987  29.1215006   5.6855017
  19.7959987  30.0485006   5.6855017  35.1299987  23.0825006 155.6605017
  36.0869987  23.0825006 155.6605017  34.8899987  24.0095006 155.6605017
  34.6949987  24.6305006 160.6035017  35.6519987  24.6305006 160.6035017
  34.4549987  25.5575006 160.6035017  35.3649987  25.2435006   5.5645017
  36.3219987  25.2435006   5.5645017  35.1249987  26.1705006   5.5645017
  35.4169987  25.9185006   8.2975017  36.3739987  25.9185006   8.2975017
  35.1769987  26.8455006   8.2975017  19.6499987  24.4255006  11.8355017
  20.6069987  24.4255006  11.8355017  19.4099987  25.3525006  11.8355017
  37.6729987  19.9225006  13.6705017  38.6299987  19.9225006  13.6705017
  37.4329987  20.8495006  13.6705017  35.4419987  21.8895006   0.0705017
  36.3989987  21.8895006   0.0705017  35.2019987  22.8165006   0.0705017
  20.8549987  22.7145006   4.6955017  21.8119987  22.7145006   4.6955017
  20.6149987  23.6415006   4.6955017  19.1439987  25.7085006   5.7455017
  20.1009987  25.7085006   5.7455017  18.9039987  26.6355006   5.7455017
  37.1939987  22.0275006  12.0335017  38.1509987  22.0275006  12.0335017
  36.9539987  22.9545006  12.0335017  37.1879987  21.9405006 157.2465017
  38.1449987  21.9405006 157.2465017  36.9479987  22.8675006 157.2465017
  19.5079987  21.9835006 160.3625017  20.4649987  21.9835006 160.3625017
  19.2679987  22.9105006 160.3625017  19.4589987  20.6575006   8.1195017
  20.4159987  20.6575006   8.1195017  19.2189987  21.5845006   8.1195017
  21.6809987  33.8385006  12.2795017  22.6379987  33.8385006  12.2795017
  21.4409987  34.7655006  12.2795017  24.5969987  34.8345006   8.5595017
  25.5539987  34.8345006   8.5595017  24.3569987  35.7615006   8.5595017
  28.8919987  36.3605006  11.4905017  29.8489987  36.3605006  11.4905017
  28.6519987  37.2875006  11.4905017  31.2419987  37.5545006  10.7305017
  32.1989987  37.5545006  10.7305017  31.0019987  38.4815006  10.7305017
  36.2129987  20.1465006   9.8665017  37.1699987  20.1465006   9.8665017
  35.9729987  21.0735006   9.8665017  22.0179987  38.0805006   8.5625017
  22.9749987  38.0805006   8.5625017  21.7779987  39.0075006   8.5625017
  24.4859987  37.6655006   7.6245017  25.4429987  37.6655006   7.6245017
  24.2459987  38.5925006   7.6245017  29.2079987  37.5675006   6.7825017
  30.1649987  37.5675006   6.7825017  28.9679987  38.4945006   6.7825017
  31.5259987  36.4185006   7.7515017  32.4829987  36.4185006   7.7515017
  31.2859987  37.3455006   7.7515017  21.4549987  36.7295006   5.4925017
  22.4119987  36.7295006   5.4925017  21.2149987  37.6565006   5.4925017
  23.5469987  35.4415006   4.1455017  24.5039987  35.4415006   4.1455017
  23.3069987  36.3685006   4.1455017  26.1149987  35.9265006   5.0055017
  27.0719987  35.9265006   5.0055017  25.8749987  36.8535006   5.0055017
  29.5649987  21.5925006   4.1575017  30.5219987  21.5925006   4.1575017
  29.3249987  22.5195006   4.1575017  34.8619987  19.4525006   4.4055017
  35.8189987  19.4525006   4.4055017  34.6219987  20.3795006   4.4055017
  36.6699987  20.7735006   2.6565017  37.6269987  20.7735006   2.6565017
  36.4299987  21.7005006   2.6565017  21.9699987  20.2055006   1.9995017
  22.9269987  20.2055006   1.9995017  21.7299987  21.1325006   1.9995017
  20.7589987  19.9605006 158.2885017  21.7159987  19.9605006 158.2885017
  20.5189987  20.8875006 158.2885017  26.4699987  20.1255006   1.7895017
  27.4269987  20.1255006   1.7895017  26.2299987  21.0525006   1.7895017
  31.6069987  20.0645006   3.4375017  32.5639987  20.0645006   3.4375017
  31.3669987  20.9915006   3.4375017  33.4359987  20.1585006 159.6075017
  34.3929987  20.1585006 159.6075017  33.1959987  21.0855006 159.6075017
  20.6719987  35.9105006 159.2735017  21.6289987  35.9105006 159.2735017
  20.4319987  36.8375006 159.2735017  22.5909987  21.9005006 156.7735017
  23.5479987  21.9005006 156.7735017  22.3509987  22.8275006 156.7735017
  27.6189987  22.1545006 159.1935017  28.5759987  22.1545006 159.1935017
  27.3789987  23.0815006 159.1935017  29.5159987  37.1945006 157.6285017
  30.4729987  37.1945006 157.6285017  29.2759987  38.1215006 157.6285017
  21.8679987  20.7375006  11.4635017  22.8249987  20.7375006  11.4635017
  21.6279987  21.6645006  11.4635017  23.8719987  20.1115006  13.0765017
  24.8289987  20.1115006  13.0765017  23.6319987  21.0385006  13.0765017
  22.4669987  36.8825006 156.2385017  23.4239987  36.8825006 156.2385017
  22.2269987  37.8095006 156.2385017  32.2769987  19.4155006  13.2405017
  33.2339987  19.4155006  13.2405017  32.0369987  20.3425006  13.2405017
  35.4579987  35.4675006  11.9635017  36.4149987  35.4675006  11.9635017
  35.2179987  36.3945006  11.9635017  49.9099987  29.3365006   1.8855017
  50.8669987  29.3365006   1.8855017  49.6699987  30.2635006   1.8855017
  48.7899987  28.6005006   5.3705017  49.7469987  28.6005006   5.3705017
  48.5499987  29.5275006   5.3705017  52.4829987  31.5435006   3.6445017
  53.4399987  31.5435006   3.6445017  52.2429987  32.4705006   3.6445017
  38.7079987  26.2835006   0.8985017  39.6649987  26.2835006   0.8985017
  38.4679987  27.2105006   0.8985017  39.3939987  28.4995006   3.0155017
  40.3509987  28.4995006   3.0155017  39.1539987  29.4265006   3.0155017
  49.5859987  36.6905006   3.8815017  50.5429987  36.6905006   3.8815017
  49.3459987  37.6175006   3.8815017  47.1669987  31.0505006   5.7635017
  48.1239987  31.0505006   5.7635017  46.9269987  31.9775006   5.7635017
  55.7789987  22.6445006   6.5795017  56.7359987  22.6445006   6.5795017
  55.5389987  23.5715006   6.5795017  50.3239987  25.4605006   6.1335017
  51.2809987  25.4605006   6.1335017  50.0839987  26.3875006   6.1335017
  43.4509987  23.5535006   3.3685017  44.4079987  23.5535006   3.3685017
  43.2109987  24.4805006   3.3685017  51.1779987  23.6435006   1.7435017
  52.1349987  23.6435006   1.7435017  50.9379987  24.5705006   1.7435017
  40.0759987  25.9615006   4.1065017  41.0329987  25.9615006   4.1065017
  39.8359987  26.8885006   4.1065017  45.2469987  27.4985006   3.3915017
  46.2039987  27.4985006   3.3915017  45.0069987  28.4255006   3.3915017
  56.2119987  24.0755006   8.8385017  57.1689987  24.0755006   8.8385017
  55.9719987  25.0025006   8.8385017  42.3289987  22.4425006   7.3985017
  43.2859987  22.4425006   7.3985017  42.0889987  23.3695006   7.3985017
  49.6499987  31.9395006   0.9595017  50.6069987  31.9395006   0.9595017
  49.4099987  32.8665006   0.9595017  52.9799987  22.9625006   3.7275017
  53.9369987  22.9625006   3.7275017  52.7399987  23.8895006   3.7275017
  41.8899987  24.3055006   5.4135017  42.8469987  24.3055006   5.4135017
  41.6499987  25.2325006   5.4135017  39.3899987  31.7375006 159.8105017
  40.3469987  31.7375006 159.8105017  39.1499987  32.6645006 159.8105017
  53.0089987  33.3785006   6.0135017  53.9659987  33.3785006   6.0135017
  52.7689987  34.3055006   6.0135017  53.3179987  21.6565006   7.3995017
  54.2749987  21.6565006   7.3995017  53.0779987  22.5835006   7.3995017
  46.3059987  19.7805006   4.8775017  47.2629987  19.7805006   4.8775017
  46.0659987  20.7075006   4.8775017  51.2579987  35.1635006   2.6185017
  52.2149987  35.1635006   2.6185017  51.0179987  36.0905006   2.6185017
  52.4609987  33.0905006   1.1255017  53.4179987  33.0905006   1.1255017
  52.2209987  34.0175006   1.1255017  54.0529987  31.6725006   9.6155017
  55.0099987  31.6725006   9.6155017  53.8129987  32.5995006   9.6155017
  48.5889987  28.5805006 159.9345017  49.5459987  28.5805006 159.9345017
  48.3489987  29.5075006 159.9345017  48.6479987  27.1155006 156.9455017
  49.6049987  27.1155006 156.9455017  48.4079987  28.0425006 156.9455017
  55.9709987  27.9855006   7.6735017  56.9279987  27.9855006   7.6735017
  55.7309987  28.9125006   7.6735017  52.0159987  28.7955006   0.3155017
  52.9729987  28.7955006   0.3155017  51.7759987  29.7225006   0.3155017
  51.9339987  26.9685006   9.4245017  52.8909987  26.9685006   9.4245017
  51.6939987  27.8955006   9.4245017  43.6329987  29.4515006   2.2205017
  44.5899987  29.4515006   2.2205017  43.3929987  30.3785006   2.2205017
  44.9879987  32.8835006   4.9055017  45.9449987  32.8835006   4.9055017
  44.7479987  33.8105006   4.9055017  43.9709987  28.2005006   5.8575017
  44.9279987  28.2005006   5.8575017  43.7309987  29.1275006   5.8575017
  50.3929987  33.7635006   6.5875017  51.3499987  33.7635006   6.5875017
  50.1529987  34.6905006   6.5875017  50.8959987  27.9725006 158.5235017
  51.8529987  27.9725006 158.5235017  50.6559987  28.8995006 158.5235017
  41.7979987  28.7885006   9.7535017  42.7549987  28.7885006   9.7535017
  41.5579987  29.7155006   9.7535017  48.6109987  34.7095006   1.4455017
  49.5679987  34.7095006   1.4455017  48.3709987  35.6365006   1.4455017
  54.6149987  19.7125006 158.3975017  55.5719987  19.7125006 158.3975017
  54.3749987  20.6395006 158.3975017  42.6129987  28.4815006 160.3815017
  43.5699987  28.4815006 160.3815017  42.3729987  29.4085006 160.3815017
  55.7349987  34.0555006 156.7445017  56.6919987  34.0555006 156.7445017
  55.4949987  34.9825006 156.7445017  56.7029987  34.3365006  11.1935017
  57.6599987  34.3365006  11.1935017  56.4629987  35.2635006  11.1935017
  47.7089987  33.8795006  10.1155017  48.6659987  33.8795006  10.1155017
  47.4689987  34.8065006  10.1155017  48.1019987  37.6285006 160.4035017
  49.0589987  37.6285006 160.4035017  47.8619987  38.5555006 160.4035017
  51.1569987  36.8335006 157.3875017  52.1139987  36.8335006 157.3875017
  50.9169987  37.7605006 157.3875017  50.8459987  36.7605006 160.1515017
  51.8029987  36.7605006 160.1515017  50.6059987  37.6875006 160.1515017
  53.8629987  25.7965006  11.6525017  54.8199987  25.7965006  11.6525017
  53.6229987  26.7235006  11.6525017  43.6499987  20.6745006   5.6345017
  44.6069987  20.6745006   5.6345017  43.4099987  21.6015006   5.6345017
  48.2919987  20.3435006   8.9925017  49.2489987  20.3435006   8.9925017
  48.0519987  21.2705006   8.9925017  51.5919987  24.1875006   9.8855017
  52.5489987  24.1875006   9.8855017  51.3519987  25.1145006   9.8855017
  52.3659987  28.9945006 156.2785017  53.3229987  28.9945006 156.2785017
  52.1259987  29.9215006 156.2785017  47.9439987  22.9195006 156.8395017
  48.9009987  22.9195006 156.8395017  47.7039987  23.8465006 156.8395017
  43.7329987  25.6305006   6.8155017  44.6899987  25.6305006   6.8155017
  43.4929987  26.5575006   6.8155017  43.7079987  25.8145006   1.7265017
  44.6649987  25.8145006   1.7265017  43.4679987  26.7415006   1.7265017
  49.2369987  26.2735006   0.5155017  50.1939987  26.2735006   0.5155017
  48.9969987  27.2005006   0.5155017  48.3439987  26.4725006  11.9355017
  49.3009987  26.4725006  11.9355017  48.1039987  27.3995006  11.9355017
  50.2639987  25.7545006   3.3445017  51.2209987  25.7545006   3.3445017
  50.0239987  26.6815006   3.3445017  41.3859987  25.9585006   8.5605017
  42.3429987  25.9585006   8.5605017  41.1459987  26.8855006   8.5605017
  44.7789987  23.3075006 155.9565017  45.7359987  23.3075006 155.9565017
  44.5389987  24.2345006 155.9565017  38.0609987  23.0815006   2.5045017
  39.0179987  23.0815006   2.5045017  37.8209987  24.0085006   2.5045017
  39.3139987  23.7545006 158.4365017  40.2709987  23.7545006 158.4365017
  39.0739987  24.6815006 158.4365017  49.5259987  27.3675006   7.9695017
  50.4829987  27.3675006   7.9695017  49.2859987  28.2945006   7.9695017
  46.2799987  23.3085006   2.7455017  47.2369987  23.3085006   2.7455017
  46.0399987  24.2355006   2.7455017  41.0969987  24.8835006   1.6005017
  42.0539987  24.8835006   1.6005017  40.8569987  25.8105006   1.6005017
  44.7399987  24.9155006 159.7765017  45.6969987  24.9155006 159.7765017
  44.4999987  25.8425006 159.7765017  50.6859987  22.5405006   5.9975017
  51.6429987  22.5405006   5.9975017  50.4459987  23.4675006   5.9975017
  43.4309987  26.1055006 157.3705017  44.3879987  26.1055006 157.3705017
  43.1909987  27.0325006 157.3705017  53.9159987  38.2085006  12.3095017
  54.8729987  38.2085006  12.3095017  53.6759987  39.1355006  12.3095017
  47.5599987  26.0825006   4.6425017  48.5169987  26.0825006   4.6425017
  47.3199987  27.0095006   4.6425017  42.5779987  22.2255006   1.0725017
  43.5349987  22.2255006   1.0725017  42.3379987  23.1525006   1.0725017
  46.2089987  24.4305006   7.0385017  47.1659987  24.4305006   7.0385017
  45.9689987  25.3575006   7.0385017  46.7959987  30.6475006 159.2885017
  47.7529987  30.6475006 159.2885017  46.5559987  31.5745006 159.2885017
  53.9529987  29.8245006   7.5545017  54.9099987  29.8245006   7.5545017
  53.7129987  30.7515006   7.5545017  50.6329987  23.4655006 157.4635017
  51.5899987  23.4655006 157.4635017  50.3929987  24.3925006 157.4635017
  51.3599987  25.3625006 159.1115017  52.3169987  25.3625006 159.1115017
  51.1199987  26.2895006 159.1115017  48.8959987  32.1155006 158.3215017
  49.8529987  32.1155006 158.3215017  48.6559987  33.0425006 158.3215017
  50.5189987  33.2395006   9.9835017  51.4759987  33.2395006   9.9835017
  50.2789987  34.1665006   9.9835017  56.2659987  25.5085006 158.8695017
  57.2229987  25.5085006 158.8695017  56.0259987  26.4355006 158.8695017
  56.2399987  31.3685006  11.1405017  57.1969987  31.3685006  11.1405017
  55.9999987  32.2955006  11.1405017  54.5259987  34.3465006 159.2795017
  55.4829987  34.3465006 159.2795017  54.2859987  35.2735006 159.2795017
  51.7379987  29.1625006   5.8355017  52.6949987  29.1625006   5.8355017
  51.4979987  30.0895006   5.8355017  44.2669987  33.4805006   1.9145017
  45.2239987  33.4805006   1.9145017  44.0269987  34.4075006   1.9145017
  40.0319987  28.3285006 157.0435017  40.9889987  28.3285006 157.0435017
  39.7919987  29.2555006 157.0435017  45.7009987  31.1415006   1.4275017
  46.6579987  31.1415006   1.4275017  45.4609987  32.0685006   1.4275017
  44.3659987  36.1535006   1.0015017  45.3229987  36.1535006   1.0015017
  44.1259987  37.0805006   1.0015017  49.7229987  31.3775006   7.4885017
  50.6799987  31.3775006   7.4885017  49.4829987  32.3045006   7.4885017
  51.9979987  32.3405006 157.0805017  52.9549987  32.3405006 157.0805017
  51.7579987  33.2675006 157.0805017  52.4559987  35.9195006   9.9895017
  53.4129987  35.9195006   9.9895017  52.2159987  36.8465006   9.9895017
  56.4599987  36.7645006 157.3555017  57.4169987  36.7645006 157.3555017
  56.2199987  37.6915006 157.3555017  40.5429987  23.1835006   9.3535017
  41.4999987  23.1835006   9.3535017  40.3029987  24.1105006   9.3535017
  52.7839987  31.0155006 159.3235017  53.7409987  31.0155006 159.3235017
  52.5439987  31.9425006 159.3235017  46.1029987  33.4735006 155.5915017
  47.0599987  33.4735006 155.5915017  45.8629987  34.4005006 155.5915017
  44.9339987  32.9995006 158.0395017  45.8909987  32.9995006 158.0395017
  44.6939987  33.9265006 158.0395017  41.4379987  30.2525006 158.5525017
  42.3949987  30.2525006 158.5525017  41.1979987  31.1795006 158.5525017
  49.2569987  22.9445006   8.3035017  50.2139987  22.9445006   8.3035017
  49.0169987  23.8715006   8.3035017  50.0289987  22.5195006 159.9415017
  50.9859987  22.5195006 159.9415017  49.7889987  23.4465006 159.9415017
  47.7099987  34.6755006 158.7675017  48.6669987  34.6755006 158.7675017
  47.4699987  35.6025006 158.7675017  47.2439987  24.2775006   0.2195017
  48.2009987  24.2775006   0.2195017  47.0039987  25.2045006   0.2195017
  47.7979987  25.3005006   9.3915017  48.7549987  25.3005006   9.3915017
  47.5579987  26.2275006   9.3915017  48.1109987  21.3475006   1.1415017
  49.0679987  21.3475006   1.1415017  47.8709987  22.2745006   1.1415017
  45.1059987  35.7055006 158.7635017  46.0629987  35.7055006 158.7635017
  44.8659987  36.6325006 158.7635017  43.7569987  22.4265006 158.3665017
  44.7139987  22.4265006 158.3665017  43.5169987  23.3535006 158.3665017
  53.9849987  23.1585006  10.2565017  54.9419987  23.1585006  10.2565017
  53.7449987  24.0855006  10.2565017  52.5879987  26.9495006   4.2865017
  53.5449987  26.9495006   4.2865017  52.3479987  27.8765006   4.2865017
  41.9999987  32.8645006 157.4215017  42.9569987  32.8645006 157.4215017
  41.7599987  33.7915006 157.4215017  40.3399987  25.5375006 156.5495017
  41.2969987  25.5375006 156.5495017  40.0999987  26.4645006 156.5495017
  53.6529987  36.1955006   5.9485017  54.6099987  36.1955006   5.9485017
  53.4129987  37.1225006   5.9485017  41.1529987  20.3255006   4.7295017
  42.1099987  20.3255006   4.7295017  40.9129987  21.2525006   4.7295017
  40.0709987  34.1975006   0.7625017  41.0279987  34.1975006   0.7625017
  39.8309987  35.1245006   0.7625017  48.1089987  35.3275006 155.7255017
  49.0659987  35.3275006 155.7255017  47.8689987  36.2545006 155.7255017
  50.5129987  34.1945006  12.5215017  51.4699987  34.1945006  12.5215017
  50.2729987  35.1215006  12.5215017  52.6769987  35.0815006 155.9185017
  53.6339987  35.0815006 155.9185017  52.4369987  36.0085006 155.9185017
  43.5779987  31.0205006 155.7575017  44.5349987  31.0205006 155.7575017
  43.3379987  31.9475006 155.7575017  49.0119987  32.1065006 155.5195017
  49.9689987  32.1065006 155.5195017  48.7719987  33.0335006 155.5195017
  51.6129987  30.5485006  10.0105017  52.5699987  30.5485006  10.0105017
  51.3729987  31.4755006  10.0105017  44.7739987  29.0285006 158.1445017
  45.7309987  29.0285006 158.1445017  44.5339987  29.9555006 158.1445017
  44.0349987  26.8345006   9.8775017  44.9919987  26.8345006   9.8775017
  43.7949987  27.7615006   9.8775017  45.8459987  27.2505006 156.3655017
  46.8029987  27.2505006 156.3655017  45.6059987  28.1775006 156.3655017
  55.4519987  29.7555006 156.1945017  56.4089987  29.7555006 156.1945017
  55.2119987  30.6825006 156.1945017  44.4389987  24.1955006  10.9905017
  45.3959987  24.1955006  10.9905017  44.1989987  25.1225006  10.9905017
  44.8439987  22.6025006   8.5125017  45.8009987  22.6025006   8.5125017
  44.6039987  23.5295006   8.5125017  50.7739987  25.8445006  13.7245017
  51.7309987  25.8445006  13.7245017  50.5339987  26.7715006  13.7245017
  52.1099987  28.6345006  11.8405017  53.0669987  28.6345006  11.8405017
  51.8699987  29.5615006  11.8405017  45.6249987  20.0255006   8.9345017
  46.5819987  20.0255006   8.9345017  45.3849987  20.9525006   8.9345017
  46.9299987  24.3295006  12.4955017  47.8869987  24.3295006  12.4955017
  46.6899987  25.2565006  12.4955017  49.6229987  23.4695006  11.5655017
  50.5799987  23.4695006  11.5655017  49.3829987  24.3965006  11.5655017
  51.2149987  22.1415006  13.5525017  52.1719987  22.1415006  13.5525017
  50.9749987  23.0685006  13.5525017  40.9889987  23.3745006  12.6245017
  41.9459987  23.3745006  12.6245017  40.7489987  24.3015006  12.6245017
  45.8019987  19.3375006  11.5875017  46.7589987  19.3375006  11.5875017
  45.5619987  20.2645006  11.5875017  46.2119987  21.0065006  13.6875017
  47.1689987  21.0065006  13.6875017  45.9719987  21.9335006  13.6875017
  45.7179987  37.9155006 157.3945017  46.6749987  37.9155006 157.3945017
  45.4779987  38.8425006 157.3945017  39.2599987  32.5445006 156.8925017
  40.2169987  32.5445006 156.8925017  39.0199987  33.4715006 156.8925017
  56.3439987  36.8495006   6.1465017  57.3009987  36.8495006   6.1465017
  56.1039987  37.7765006   6.1465017  55.9479987  36.4425006   9.0875017
  56.9049987  36.4425006   9.0875017  55.7079987  37.3695006   9.0875017
  54.3879987  32.2255006  13.7005017  55.3449987  32.2255006  13.7005017
  54.1479987  33.1525006  13.7005017  55.7009987  30.4805006 159.7275017
  56.6579987  30.4805006 159.7275017  55.4609987  31.4075006 159.7275017
  56.0739987  28.5585006   1.0695017  57.0309987  28.5585006   1.0695017
  55.8339987  29.4855006   1.0695017  55.8279987  31.2695006   6.0525017
  56.7849987  31.2695006   6.0525017  55.5879987  32.1965006   6.0525017
  54.3789987  34.1735006   8.3355017  55.3359987  34.1735006   8.3355017
  54.1389987  35.1005006   8.3355017  56.3809987  28.3485006 158.0655017
  57.3379987  28.3485006 158.0655017  56.1409987  29.2755006 158.0655017
  54.7269987  25.6435006 156.5265017  55.6839987  25.6435006 156.5265017
  54.4869987  26.5705006 156.5265017  53.8879987  27.0435006   1.6365017
  54.8449987  27.0435006   1.6365017  53.6479987  27.9705006   1.6365017
  54.7319987  29.0185006  11.2895017  55.6889987  29.0185006  11.2895017
  54.4919987  29.9455006  11.2895017  56.2499987  26.9045006  11.9785017
  57.2069987  26.9045006  11.9785017  56.0099987  27.8315006  11.9785017
  53.9809987  23.0885006 155.6665017  54.9379987  23.0885006 155.6665017
  53.7409987  24.0155006 155.6665017  53.5459987  24.6295006 160.6085017
  54.5029987  24.6295006 160.6085017  53.3059987  25.5565006 160.6085017
  54.1939987  25.1715006   5.5395017  55.1509987  25.1715006   5.5395017
  53.9539987  26.0985006   5.5395017  54.2609987  25.8985006   8.3255017
  55.2179987  25.8985006   8.3255017  54.0209987  26.8255006   8.3255017
  38.4879987  24.3825006  11.7645017  39.4449987  24.3825006  11.7645017
  38.2479987  25.3095006  11.7645017  56.5249987  19.9395006  13.6745017
  57.4819987  19.9395006  13.6745017  56.2849987  20.8665006  13.6745017
  54.2209987  21.9055006   0.1505017  55.1779987  21.9055006   0.1505017
  53.9809987  22.8325006   0.1505017  39.7069987  22.7085006   4.6905017
  40.6639987  22.7085006   4.6905017  39.4669987  23.6355006   4.6905017
  37.9999987  25.7315006   5.7475017  38.9569987  25.7315006   5.7475017
  37.7599987  26.6585006   5.7475017  56.0549987  22.0465006  12.0265017
  57.0119987  22.0465006  12.0265017  55.8149987  22.9735006  12.0265017
  56.0499987  21.9465006 157.2465017  57.0069987  21.9465006 157.2465017
  55.8099987  22.8735006 157.2465017  38.3649987  21.9855006 160.3635017
  39.3219987  21.9855006 160.3635017  38.1249987  22.9125006 160.3635017
  53.1019987  36.9305006   1.7645017  54.0589987  36.9305006   1.7645017
  52.8619987  37.8575006   1.7645017  38.3099987  20.6555006   8.1155017
  39.2669987  20.6555006   8.1155017  38.0699987  21.5825006   8.1155017
  47.7709987  36.2355006  11.4905017  48.7279987  36.2355006  11.4905017
  47.5309987  37.1625006  11.4905017  50.0699987  37.5045006  10.7895017
  51.0269987  37.5045006  10.7895017  49.8299987  38.4315006  10.7895017
  55.0679987  20.1415006   9.8625017  56.0249987  20.1415006   9.8625017
  54.8279987  21.0685006   9.8625017  48.0659987  37.5845006   6.7865017
  49.0229987  37.5845006   6.7865017  47.8259987  38.5115006   6.7865017
  50.3589987  36.4155006   7.8125017  51.3159987  36.4155006   7.8125017
  50.1189987  37.3425006   7.8125017  52.9229987  37.9675006   8.0555017
  53.8799987  37.9675006   8.0555017  52.6829987  38.8945006   8.0555017
  48.4659987  21.5745006   4.1685017  49.4229987  21.5745006   4.1685017
  48.2259987  22.5015006   4.1685017  53.5999987  19.6825006   4.2575017
  54.5569987  19.6825006   4.2575017  53.3599987  20.6095006   4.2575017
  55.2769987  20.8315006   2.5405017  56.2339987  20.8315006   2.5405017
  55.0369987  21.7585006   2.5405017  40.8369987  20.2045006   2.0015017
  41.7939987  20.2045006   2.0015017  40.5969987  21.1315006   2.0015017
  39.5869987  19.9535006 158.2645017  40.5439987  19.9535006 158.2645017
  39.3469987  20.8805006 158.2645017  45.3269987  20.1235006   1.7905017
  46.2839987  20.1235006   1.7905017  45.0869987  21.0505006   1.7905017
  51.0629987  20.1085006   3.4175017  52.0199987  20.1085006   3.4175017
  50.8229987  21.0355006   3.4175017  52.2899987  20.1895006 159.6565017
  53.2469987  20.1895006 159.6565017  52.0499987  21.1165006 159.6565017
  39.5319987  35.9305006 159.2425017  40.4889987  35.9305006 159.2425017
  39.2919987  36.8575006 159.2425017  41.4469987  21.9015006 156.7765017
  42.4039987  21.9015006 156.7765017  41.2069987  22.8285006 156.7765017
  46.4749987  22.1585006 159.1905017  47.4319987  22.1585006 159.1905017
  46.2349987  23.0855006 159.1905017  48.3909987  37.1925006 157.6385017
  49.3479987  37.1925006 157.6385017  48.1509987  38.1195006 157.6385017
  55.1029987  36.7195006 160.3405017  56.0599987  36.7195006 160.3405017
  54.8629987  37.6465006 160.3405017  40.7199987  20.7515006  11.4675017
  41.6769987  20.7515006  11.4675017  40.4799987  21.6785006  11.4675017
  42.7289987  20.0945006  13.0535017  43.6859987  20.0945006  13.0535017
  42.4889987  21.0215006  13.0535017  41.3239987  36.8695006 156.2275017
  42.2809987  36.8695006 156.2275017  41.0839987  37.7965006 156.2275017
  51.1319987  19.4135006  13.2345017  52.0889987  19.4135006  13.2345017
  50.8919987  20.3405006  13.2345017  54.3529987  35.4545006  11.8765017
  55.3099987  35.4545006  11.8765017  54.1129987  36.3815006  11.8765017
  68.7589987  29.3395006   1.8955017  69.7159987  29.3395006   1.8955017
  68.5189987  30.2665006   1.8955017  67.6309987  28.6015006   5.3765017
  68.5879987  28.6015006   5.3765017  67.3909987  29.5285006   5.3765017
  59.9949987  28.2585006   6.9245017  60.9519987  28.2585006   6.9245017
  59.7549987  29.1855006   6.9245017  71.3659987  31.5355006   3.6795017
  72.3229987  31.5355006   3.6795017  71.1259987  32.4625006   3.6795017
  60.9239987  32.7075006   5.4485017  61.8809987  32.7075006   5.4485017
  60.6839987  33.6345006   5.4485017  57.5669987  26.2875006   0.9025017
  58.5239987  26.2875006   0.9025017  57.3269987  27.2145006   0.9025017
  58.2629987  28.5025006   3.0375017  59.2199987  28.5025006   3.0375017
  58.0229987  29.4295006   3.0375017  65.9929987  30.9725006   5.8355017
  66.9499987  30.9725006   5.8355017  65.7529987  31.8995006   5.8355017
  74.5279987  22.7165006   6.5145017  75.4849987  22.7165006   6.5145017
  74.2879987  23.6435006   6.5145017  69.1659987  25.4735006   6.1505017
  70.1229987  25.4735006   6.1505017  68.9259987  26.4005006   6.1505017
  62.3049987  23.5505006   3.3705017  63.2619987  23.5505006   3.3705017
  62.0649987  24.4775006   3.3705017  70.0249987  23.6375006   1.7415017
  70.9819987  23.6375006   1.7415017  69.7849987  24.5645006   1.7415017
  58.9269987  25.9585006   4.1095017  59.8839987  25.9585006   4.1095017
  58.6869987  26.8855006   4.1095017  64.0919987  27.5165006   3.3945017
  65.0489987  27.5165006   3.3945017  63.8519987  28.4435006   3.3945017
  75.0769987  24.0945006   8.8345017  76.0339987  24.0945006   8.8345017
  74.8369987  25.0215006   8.8345017  61.1909987  22.4495006   7.4155017
  62.1479987  22.4495006   7.4155017  60.9509987  23.3765006   7.4155017
  68.4599987  31.9255006   0.9825017  69.4169987  31.9255006   0.9825017
  68.2199987  32.8525006   0.9825017  63.7239987  30.1305006   7.7045017
  64.6809987  30.1305006   7.7045017  63.4839987  31.0575006   7.7045017
  71.8419987  22.9795006   3.7265017  72.7989987  22.9795006   3.7265017
  71.6019987  23.9065006   3.7265017  60.7549987  24.3205006   5.4245017
  61.7119987  24.3205006   5.4245017  60.5149987  25.2475006   5.4245017
  62.1569987  32.1035006   8.4755017  63.1139987  32.1035006   8.4755017
  61.9169987  33.0305006   8.4755017  58.2439987  31.7205006 159.8115017
  59.2009987  31.7205006 159.8115017  58.0039987  32.6475006 159.8115017
  72.1669987  21.6695006   7.4005017  73.1239987  21.6695006   7.4005017
  71.9269987  22.5965006   7.4005017  65.1589987  19.7795006   4.8735017
  66.1159987  19.7795006   4.8735017  64.9189987  20.7065006   4.8735017
  72.9419987  31.6725006   9.6185017  73.8989987  31.6725006   9.6185017
  72.7019987  32.5995006   9.6185017  67.4409987  28.5485006 159.9305017
  68.3979987  28.5485006 159.9305017  67.2009987  29.4755006 159.9305017
  67.5039987  27.1165006 156.9455017  68.4609987  27.1165006 156.9455017
  67.2639987  28.0435006 156.9455017  74.8239987  27.9725006   7.6575017
  75.7809987  27.9725006   7.6575017  74.5839987  28.8995006   7.6575017
  70.8709987  28.7775006   0.3055017  71.8279987  28.7775006   0.3055017
  70.6309987  29.7045006   0.3055017  70.7829987  26.9495006   9.4345017
  71.7399987  26.9495006   9.4345017  70.5429987  27.8765006   9.4345017
  62.4969987  29.4525006   2.2205017  63.4539987  29.4525006   2.2205017
  62.2569987  30.3795006   2.2205017  63.8159987  32.8355006   4.9145017
  64.7729987  32.8355006   4.9145017  63.5759987  33.7625006   4.9145017
  62.8409987  28.1905006   5.8785017  63.7979987  28.1905006   5.8785017
  62.6009987  29.1175006   5.8785017  69.0649987  33.7165006   6.5405017
  70.0219987  33.7165006   6.5405017  68.8249987  34.6435006   6.5405017
  63.7719987  32.5945006  10.5765017  64.7289987  32.5945006  10.5765017
  63.5319987  33.5215006  10.5765017  69.7479987  27.9745006 158.5235017
  70.7049987  27.9745006 158.5235017  69.5079987  28.9015006 158.5235017
  60.7259987  28.7795006   9.7575017  61.6829987  28.7795006   9.7575017
  60.4859987  29.7065006   9.7575017  62.0179987  34.6615006  11.3325017
  62.9749987  34.6615006  11.3325017  61.7779987  35.5885006  11.3325017
  73.4709987  19.7135006 158.3965017  74.4279987  19.7135006 158.3965017
  73.2309987  20.6405006 158.3965017  61.4729987  28.4785006 160.3785017
  62.4299987  28.4785006 160.3785017  61.2329987  29.4055006 160.3785017
  74.6149987  34.0725006 156.6935017  75.5719987  34.0725006 156.6935017
  74.3749987  34.9995006 156.6935017  57.5639987  30.8975006   8.6985017
  58.5209987  30.8975006   8.6985017  57.3239987  31.8245006   8.6985017
  57.3289987  33.6365006   5.5085017  58.2859987  33.6365006   5.5085017
  57.0889987  34.5635006   5.5085017  75.5609987  34.2975006  11.2075017
  76.5179987  34.2975006  11.2075017  75.3209987  35.2245006  11.2075017
  66.5169987  33.8885006  10.0655017  67.4739987  33.8885006  10.0655017
  66.2769987  34.8155006  10.0655017  60.5899987  36.4955006   1.6675017
  61.5469987  36.4955006   1.6675017  60.3499987  37.4225006   1.6675017
  70.0549987  36.8565006 157.3875017  71.0119987  36.8565006 157.3875017
  69.8149987  37.7835006 157.3875017  72.6939987  25.8235006  11.6785017
  73.6509987  25.8235006  11.6785017  72.4539987  26.7505006  11.6785017
  59.8349987  32.2045006   9.6685017  60.7919987  32.2045006   9.6685017
  59.5949987  33.1315006   9.6685017  62.5059987  20.6755006   5.6345017
  63.4629987  20.6755006   5.6345017  62.2659987  21.6025006   5.6345017
  67.1509987  20.3715006   8.9985017  68.1079987  20.3715006   8.9985017
  66.9109987  21.2985006   8.9985017  70.4449987  24.1695006   9.8785017
  71.4019987  24.1695006   9.8785017  70.2049987  25.0965006   9.8785017
  71.2069987  28.9945006 156.2785017  72.1639987  28.9945006 156.2785017
  70.9669987  29.9215006 156.2785017  66.8029987  22.9255006 156.8385017
  67.7599987  22.9255006 156.8385017  66.5629987  23.8525006 156.8385017
  62.6209987  25.6525006   6.8655017  63.5779987  25.6525006   6.8655017
  62.3809987  26.5795006   6.8655017  62.5699987  25.8045006   1.7225017
  63.5269987  25.8045006   1.7225017  62.3299987  26.7315006   1.7225017
  68.0929987  26.2725006   0.5165017  69.0499987  26.2725006   0.5165017
  67.8529987  27.1995006   0.5165017  67.2019987  26.4415006  12.0155017
  68.1589987  26.4415006  12.0155017  66.9619987  27.3685006  12.0155017
  69.1209987  25.7555006   3.3455017  70.0779987  25.7555006   3.3455017
  68.8809987  26.6825006   3.3455017  60.2559987  25.9285006   8.5765017
  61.2129987  25.9285006   8.5765017  60.0159987  26.8555006   8.5765017
  63.6349987  23.3145006 155.9555017  64.5919987  23.3145006 155.9555017
  63.3949987  24.2415006 155.9555017  56.8939987  23.0385006   2.5185017
  57.8509987  23.0385006   2.5185017  56.6539987  23.9655006   2.5185017
  58.1709987  23.7555006 158.4365017  59.1279987  23.7555006 158.4365017
  57.9309987  24.6825006 158.4365017  68.2999987  27.3615006   7.9455017
  69.2569987  27.3615006   7.9455017  68.0599987  28.2885006   7.9455017
  65.1329987  23.3155006   2.7445017  66.0899987  23.3155006   2.7445017
  64.8929987  24.2425006   2.7445017  59.9499987  24.8915006   1.6085017
  60.9069987  24.8915006   1.6085017  59.7099987  25.8185006   1.6085017
  63.5959987  24.9155006 159.7765017  64.5529987  24.9155006 159.7765017
  63.3559987  25.8425006 159.7765017  69.5419987  22.5535006   5.9975017
  70.4989987  22.5535006   5.9975017  69.3019987  23.4805006   5.9975017
  62.2869987  26.1055006 157.3705017  63.2439987  26.1055006 157.3705017
  62.0469987  27.0325006 157.3705017  60.4319987  30.6665006  11.8805017
  61.3889987  30.6665006  11.8805017  60.1919987  31.5935006  11.8805017
  66.4289987  26.0865006   4.6505017  67.3859987  26.0865006   4.6505017
  66.1889987  27.0135006   4.6505017  61.4329987  22.2285006   1.0745017
  62.3899987  22.2285006   1.0745017  61.1929987  23.1555006   1.0745017
  65.0629987  24.4215006   7.0475017  66.0199987  24.4215006   7.0475017
  64.8229987  25.3485006   7.0475017  65.6419987  30.6405006 159.2875017
  66.5989987  30.6405006 159.2875017  65.4019987  31.5675006 159.2875017
  72.8089987  29.8355006   7.5495017  73.7659987  29.8355006   7.5495017
  72.5689987  30.7625006   7.5495017  69.4869987  23.4595006 157.4695017
  70.4439987  23.4595006 157.4695017  69.2469987  24.3865006 157.4695017
  67.0859987  30.8445006   9.9885017  68.0429987  30.8445006   9.9885017
  66.8459987  31.7715006   9.9885017  70.2179987  25.3595006 159.1135017
  71.1749987  25.3595006 159.1135017  69.9779987  26.2865006 159.1135017
  60.7529987  30.0155006   4.5465017  61.7099987  30.0155006   4.5465017
  60.5129987  30.9425006   4.5465017  67.7019987  32.0975006 158.2555017
  68.6589987  32.0975006 158.2555017  67.4619987  33.0245006 158.2555017
  57.7389987  28.4375006   9.8155017  58.6959987  28.4375006   9.8155017
  57.4989987  29.3645006   9.8155017  64.6219987  27.9695006  12.1685017
  65.5789987  27.9695006  12.1685017  64.3819987  28.8965006  12.1685017
  69.4279987  33.3645006   9.8975017  70.3849987  33.3645006   9.8975017
  69.1879987  34.2915006   9.8975017  75.1019987  25.5085006 158.8755017
  76.0589987  25.5085006 158.8755017  74.8619987  26.4355006 158.8755017
  75.1009987  31.3745006  11.1505017  76.0579987  31.3745006  11.1505017
  74.8609987  32.3015006  11.1505017  70.6059987  29.1565006   5.8285017
  71.5629987  29.1565006   5.8285017  70.3659987  30.0835006   5.8285017
  63.1199987  33.4645006   1.9135017  64.0769987  33.4645006   1.9135017
  62.8799987  34.3915006   1.9135017  58.8619987  28.3445006 157.0055017
  59.8189987  28.3445006 157.0055017  58.6219987  29.2715006 157.0055017
  64.5499987  31.1485006   1.4525017  65.5069987  31.1485006   1.4525017
  64.3099987  32.0755006   1.4525017  65.0199987  35.2975006   7.8355017
  65.9769987  35.2975006   7.8355017  64.7799987  36.2245006   7.8355017
  63.2239987  36.1495006   1.0255017  64.1809987  36.1495006   1.0255017
  62.9839987  37.0765006   1.0255017  68.5439987  31.3365006   7.4935017
  69.5009987  31.3365006   7.4935017  68.3039987  32.2635006   7.4935017
  70.8379987  32.3315006 157.0575017  71.7949987  32.3315006 157.0575017
  70.5979987  33.2585006 157.0575017  71.2989987  35.8615006   9.9865017
  72.2559987  35.8615006   9.9865017  71.0589987  36.7885006   9.9865017
  75.3179987  36.7705006 157.3545017  76.2749987  36.7705006 157.3545017
  75.0779987  37.6975006 157.3545017  59.3939987  23.1745006   9.3645017
  60.3509987  23.1745006   9.3645017  59.1539987  24.1015006   9.3645017
  71.6489987  30.9555006 159.2935017  72.6059987  30.9555006 159.2935017
  71.4089987  31.8825006 159.2935017  59.0019987  34.9445006   7.8025017
  59.9589987  34.9445006   7.8025017  58.7619987  35.8715006   7.8025017
  64.9239987  33.4635006 155.5665017  65.8809987  33.4635006 155.5665017
  64.6839987  34.3905006 155.5665017  63.7579987  32.9915006 158.0465017
  64.7149987  32.9915006 158.0465017  63.5179987  33.9185006 158.0465017
  60.2869987  30.2475006 158.5355017  61.2439987  30.2475006 158.5355017
  60.0469987  31.1745006 158.5355017  68.1059987  22.9615006   8.3235017
  69.0629987  22.9615006   8.3235017  67.8659987  23.8885006   8.3235017
  68.8819987  22.5235006 159.9385017  69.8389987  22.5235006 159.9385017
  68.6419987  23.4505006 159.9385017  66.0999987  24.2775006   0.2195017
  67.0569987  24.2775006   0.2195017  65.8599987  25.2045006   0.2195017
  66.6569987  25.3065006   9.4105017  67.6139987  25.3065006   9.4105017
  66.4169987  26.2335006   9.4105017  66.9589987  21.3355006   1.1255017
  67.9159987  21.3355006   1.1255017  66.7189987  22.2625006   1.1255017
  63.8309987  35.6975006 158.7425017  64.7879987  35.6975006 158.7425017
  63.5909987  36.6245006 158.7425017  62.6139987  22.4265006 158.3665017
  63.5709987  22.4265006 158.3665017  62.3739987  23.3535006 158.3665017
  72.8339987  23.1755006  10.2605017  73.7909987  23.1755006  10.2605017
  72.5939987  24.1025006  10.2605017  71.4519987  26.9385006   4.2675017
  72.4089987  26.9385006   4.2675017  71.2119987  27.8655006   4.2675017
  60.8469987  32.8625006 157.4195017  61.8039987  32.8625006 157.4195017
  60.6069987  33.7895006 157.4195017  59.1969987  25.5365006 156.5535017
  60.1539987  25.5365006 156.5535017  58.9569987  26.4635006 156.5535017
  60.0119987  20.3285006   4.7305017  60.9689987  20.3285006   4.7305017
  59.7719987  21.2555006   4.7305017  58.9599987  34.2455006   0.8795017
  59.9169987  34.2455006   0.8795017  58.7199987  35.1725006   0.8795017
  58.1699987  36.9025006  12.1865017  59.1269987  36.9025006  12.1865017
  57.9299987  37.8295006  12.1865017  62.8419987  35.8165006  13.7905017
  63.7989987  35.8165006  13.7905017  62.6019987  36.7435006  13.7905017
  66.9459987  35.3225006 155.6635017  67.9029987  35.3225006 155.6635017
  66.7059987  36.2495006 155.6635017  69.3659987  34.1855006  12.5075017
  70.3229987  34.1855006  12.5075017  69.1259987  35.1125006  12.5075017
  71.5279987  35.0815006 155.8745017  72.4849987  35.0815006 155.8745017
  71.2879987  36.0085006 155.8745017  58.1159987  30.6855006  13.1545017
  59.0729987  30.6855006  13.1545017  57.8759987  31.6125006  13.1545017
  62.4279987  31.0175006 155.7545017  63.3849987  31.0175006 155.7545017
  62.1879987  31.9445006 155.7545017  64.8399987  30.6585006  12.5465017
  65.7969987  30.6585006  12.5465017  64.5999987  31.5855006  12.5465017
  67.8379987  32.1105006 155.5045017  68.7949987  32.1105006 155.5045017
  67.5979987  33.0375006 155.5045017  70.4819987  30.5215006   9.9335017
  71.4389987  30.5215006   9.9335017  70.2419987  31.4485006   9.9335017
  58.9819987  27.8965006  12.5495017  59.9389987  27.8965006  12.5495017
  58.7419987  28.8235006  12.5495017  63.6309987  29.0275006 158.1445017
  64.5879987  29.0275006 158.1445017  63.3909987  29.9545006 158.1445017
  62.9949987  26.9155006   9.9525017  63.9519987  26.9155006   9.9525017
  62.7549987  27.8425006   9.9525017  64.7019987  27.2505006 156.3645017
  65.6589987  27.2505006 156.3645017  64.4619987  28.1775006 156.3645017
  67.9599987  29.3555006  13.1965017  68.9169987  29.3555006  13.1965017
  67.7199987  30.2825006  13.1965017  74.0599987  29.5855006 155.8025017
  75.0169987  29.5855006 155.8025017  73.8199987  30.5125006 155.8025017
  63.3249987  24.2435006  10.9845017  64.2819987  24.2435006  10.9845017
  63.0849987  25.1705006  10.9845017  63.7019987  22.6275006   8.5285017
  64.6589987  22.6275006   8.5285017  63.4619987  23.5545006   8.5285017
  65.0649987  28.0125006   8.2485017  66.0219987  28.0125006   8.2485017
  64.8249987  28.9395006   8.2485017  69.6379987  25.8615006  13.7235017
  70.5949987  25.8615006  13.7235017  69.3979987  26.7885006  13.7235017
  70.9619987  28.6445006  11.8755017  71.9189987  28.6445006  11.8755017
  70.7219987  29.5715006  11.8755017  61.7669987  25.4825006  12.8845017
  62.7239987  25.4825006  12.8845017  61.5269987  26.4095006  12.8845017
  64.4929987  20.0465006   8.9265017  65.4499987  20.0465006   8.9265017
  64.2529987  20.9735006   8.9265017  65.7469987  24.4015006  12.5125017
  66.7039987  24.4015006  12.5125017  65.5069987  25.3285006  12.5125017
  68.4769987  23.5305006  11.6095017  69.4339987  23.5305006  11.6095017
  68.2369987  24.4575006  11.6095017  70.0679987  22.1425006  13.5345017
  71.0249987  22.1425006  13.5345017  69.8279987  23.0695006  13.5345017
  59.8609987  23.3955006  12.6305017  60.8179987  23.3955006  12.6305017
  59.6209987  24.3225006  12.6305017  64.7049987  19.4095006  11.6155017
  65.6619987  19.4095006  11.6155017  64.4649987  20.3365006  11.6155017
  65.0719987  21.0455006  13.7025017  66.0289987  21.0455006  13.7025017
  64.8319987  21.9725006  13.7025017  64.5519987  37.9705006 157.4295017
  65.5089987  37.9705006 157.4295017  64.3119987  38.8975006 157.4295017
  58.1029987  32.5435006 156.8905017  59.0599987  32.5435006 156.8905017
  57.8629987  33.4705006 156.8905017  56.8669987  37.9315006   1.3435017
  57.8239987  37.9315006   1.3435017  56.6269987  38.8585006   1.3435017
  57.6849987  36.0465006   3.1925017  58.6419987  36.0465006   3.1925017
  57.4449987  36.9735006   3.1925017  73.2469987  32.1505006  13.7595017
  74.2039987  32.1505006  13.7595017  73.0069987  33.0775006  13.7595017
  74.5579987  30.4785006 159.7625017  75.5149987  30.4785006 159.7625017
  74.3179987  31.4055006 159.7625017  74.9609987  28.4845006   1.0825017
  75.9179987  28.4845006   1.0825017  74.7209987  29.4115006   1.0825017
  74.6709987  31.2935006   6.0505017  75.6279987  31.2935006   6.0505017
  74.4309987  32.2205006   6.0505017  73.2059987  34.1315006   8.3345017
  74.1629987  34.1315006   8.3345017  72.9659987  35.0585006   8.3345017
  75.2309987  28.3785006 158.0285017  76.1879987  28.3785006 158.0285017
  74.9909987  29.3055006 158.0285017  73.5939987  25.6285006 156.5265017
  74.5509987  25.6285006 156.5265017  73.3539987  26.5555006 156.5265017
  72.8119987  27.0185006   1.6725017  73.7689987  27.0185006   1.6725017
  72.5719987  27.9455006   1.6725017  57.7529987  29.1305006   5.6915017
  58.7099987  29.1305006   5.6915017  57.5129987  30.0575006   5.6915017
  73.5959987  29.0115006  11.3145017  74.5529987  29.0115006  11.3145017
  73.3559987  29.9385006  11.3145017  75.1049987  26.9035006  11.9785017
  76.0619987  26.9035006  11.9785017  74.8649987  27.8305006  11.9785017
  72.8369987  23.0885006 155.6635017  73.7939987  23.0885006 155.6635017
  72.5969987  24.0155006 155.6635017  72.4199987  24.6395006 160.6435017
  73.3769987  24.6395006 160.6435017  72.1799987  25.5665006 160.6435017
  73.0649987  25.1905006   5.5135017  74.0219987  25.1905006   5.5135017
  72.8249987  26.1175006   5.5135017  73.0999987  25.9165006   8.3195017
  74.0569987  25.9165006   8.3195017  72.8599987  26.8435006   8.3195017
  57.3719987  24.4205006  11.8315017  58.3289987  24.4205006  11.8315017
  57.1319987  25.3475006  11.8315017  75.3989987  19.9565006  13.6955017
  76.3559987  19.9565006  13.6955017  75.1589987  20.8835006  13.6955017
  73.0839987  21.9205006   0.1565017  74.0409987  21.9205006   0.1565017
  72.8439987  22.8475006   0.1565017  58.5689987  22.7155006   4.6945017
  59.5259987  22.7155006   4.6945017  58.3289987  23.6425006   4.6945017
  56.8559987  25.7085006   5.7465017  57.8129987  25.7085006   5.7465017
  56.6159987  26.6355006   5.7465017  74.9139987  22.0545006  12.0305017
  75.8709987  22.0545006  12.0305017  74.6739987  22.9815006  12.0305017
  74.9069987  21.9485006 157.2445017  75.8639987  21.9485006 157.2445017
  74.6669987  22.8755006 157.2445017  57.2239987  21.9885006 160.3625017
  58.1809987  21.9885006 160.3625017  56.9839987  22.9155006 160.3625017
  57.1729987  20.6545006   8.1225017  58.1299987  20.6545006   8.1225017
  56.9329987  21.5815006   8.1225017  59.3929987  33.8405006  12.2795017
  60.3499987  33.8405006  12.2795017  59.1529987  34.7675006  12.2795017
  62.3109987  34.8445006   8.5615017  63.2679987  34.8445006   8.5615017
  62.0709987  35.7715006   8.5615017  66.6389987  36.2695006  11.4765017
  67.5959987  36.2695006  11.4765017  66.3989987  37.1965006  11.4765017
  73.5279987  20.2005006  10.0715017  74.4849987  20.2005006  10.0715017
  73.2879987  21.1275006  10.0715017  59.7059987  38.0515006   8.5675017
  60.6629987  38.0515006   8.5675017  59.4659987  38.9785006   8.5675017
  59.1239987  36.6905006   5.4725017  60.0809987  36.6905006   5.4725017
  58.8839987  37.6175006   5.4725017  61.2249987  35.4265006   4.1215017
  62.1819987  35.4265006   4.1215017  60.9849987  36.3535006   4.1215017
  63.6139987  35.7425006   5.0235017  64.5709987  35.7425006   5.0235017
  63.3739987  36.6695006   5.0235017  67.3229987  21.5715006   4.1645017
  68.2799987  21.5715006   4.1645017  67.0829987  22.4985006   4.1645017
  72.4569987  19.6195006   4.2485017  73.4139987  19.6195006   4.2485017
  72.2169987  20.5465006   4.2485017  74.1389987  20.8605006   2.5345017
  75.0959987  20.8605006   2.5345017  73.8989987  21.7875006   2.5345017
  59.6799987  20.2045006   1.9985017  60.6369987  20.2045006   1.9985017
  59.4399987  21.1315006   1.9985017  58.4689987  19.9615006 158.2895017
  59.4259987  19.9615006 158.2895017  58.2289987  20.8885006 158.2895017
  64.1829987  20.1245006   1.7885017  65.1399987  20.1245006   1.7885017
  63.9429987  21.0515006   1.7885017  69.8489987  20.1515006   3.4345017
  70.8059987  20.1515006   3.4345017  69.6089987  21.0785006   3.4345017
  71.1489987  20.1815006 159.6535017  72.1059987  20.1815006 159.6535017
  70.9089987  21.1085006 159.6535017  58.3839987  35.9105006 159.2745017
  59.3409987  35.9105006 159.2745017  58.1439987  36.8375006 159.2745017
  60.3029987  21.9035006 156.7745017  61.2599987  21.9035006 156.7745017
  60.0629987  22.8305006 156.7745017  65.3309987  22.1575006 159.1895017
  66.2879987  22.1575006 159.1895017  65.0909987  23.0845006 159.1895017
  67.2069987  37.2495006 157.5645017  68.1639987  37.2495006 157.5645017
  66.9669987  38.1765006 157.5645017  59.5789987  20.7365006  11.4635017
  60.5359987  20.7365006  11.4635017  59.3389987  21.6635006  11.4635017
  61.5889987  20.1135006  13.0765017  62.5459987  20.1135006  13.0765017
  61.3489987  21.0405006  13.0765017  60.1809987  36.8815006 156.2365017
  61.1379987  36.8815006 156.2365017  59.9409987  37.8085006 156.2365017
  69.9889987  19.4155006  13.2375017  70.9459987  19.4155006  13.2375017
  69.7489987  20.3425006  13.2375017  73.1599987  35.4465006  11.9625017
  74.1169987  35.4465006  11.9625017  72.9199987  36.3735006  11.9625017
  87.6229987  29.3365006   1.8845017  88.5799987  29.3365006   1.8845017
  87.3829987  30.2635006   1.8845017  86.4959987  28.6035006   5.3685017
  87.4529987  28.6035006   5.3685017  86.2559987  29.5305006   5.3685017
  78.8469987  28.2475006   6.9115017  79.8039987  28.2475006   6.9115017
  78.6069987  29.1745006   6.9115017  90.1949987  31.5435006   3.6465017
  91.1519987  31.5435006   3.6465017  89.9549987  32.4705006   3.6465017
  79.7789987  32.7055006   5.4485017  80.7359987  32.7055006   5.4485017
  79.5389987  33.6325006   5.4485017  76.4989987  26.3605006   0.5725017
  77.4559987  26.3605006   0.5725017  76.2589987  27.2875006   0.5725017
  77.0939987  28.4405006   2.9865017  78.0509987  28.4405006   2.9865017
  76.8539987  29.3675006   2.9865017  87.3069987  36.6935006   3.8825017
  88.2639987  36.6935006   3.8825017  87.0669987  37.6205006   3.8825017
  84.8719987  31.0105006   5.8115017  85.8289987  31.0105006   5.8115017
  84.6319987  31.9375006   5.8115017  93.4919987  22.6445006   6.5795017
  94.4489987  22.6445006   6.5795017  93.2519987  23.5715006   6.5795017
  88.0369987  25.4645006   6.1365017  88.9939987  25.4645006   6.1365017
  87.7969987  26.3915006   6.1365017  81.1399987  23.5565006   3.3735017
  82.0969987  23.5565006   3.3735017  80.8999987  24.4835006   3.3735017
  88.8919987  23.6405006   1.7405017  89.8489987  23.6405006   1.7405017
  88.6519987  24.5675006   1.7405017  77.8399987  25.9505006   4.1355017
  78.7969987  25.9505006   4.1355017  77.5999987  26.8775006   4.1355017
  82.9459987  27.5145006   3.3955017  83.9029987  27.5145006   3.3955017
  82.7059987  28.4415006   3.3955017  93.9359987  24.0645006   8.8405017
  94.8929987  24.0645006   8.8405017  93.6959987  24.9915006   8.8405017
  80.0639987  22.4715006   7.4155017  81.0209987  22.4715006   7.4155017
  79.8239987  23.3985006   7.4155017  87.3609987  31.9395006   0.9585017
  88.3179987  31.9395006   0.9585017  87.1209987  32.8665006   0.9585017
  82.5779987  30.0995006   7.6675017  83.5349987  30.0995006   7.6675017
  82.3379987  31.0265006   7.6675017  90.6859987  22.9765006   3.7325017
  91.6429987  22.9765006   3.7325017  90.4459987  23.9035006   3.7325017
  79.5809987  24.3475006   5.3785017  80.5379987  24.3475006   5.3785017
  79.3409987  25.2745006   5.3785017  81.0089987  32.0715006   8.4695017
  81.9659987  32.0715006   8.4695017  80.7689987  32.9985006   8.4695017
  77.0949987  31.7285006 159.8195017  78.0519987  31.7285006 159.8195017
  76.8549987  32.6555006 159.8195017  90.7179987  33.3785006   6.0155017
  91.6749987  33.3785006   6.0155017  90.4779987  34.3055006   6.0155017
  91.0339987  21.6675006   7.4125017  91.9909987  21.6675006   7.4125017
  90.7939987  22.5945006   7.4125017  84.0149987  19.7795006   4.8725017
  84.9719987  19.7795006   4.8725017  83.7749987  20.7065006   4.8725017
  88.9709987  35.1635006   2.6185017  89.9279987  35.1635006   2.6185017
  88.7309987  36.0905006   2.6185017  90.1719987  33.0905006   1.1255017
  91.1289987  33.0905006   1.1255017  89.9319987  34.0175006   1.1255017
  91.8079987  31.6715006   9.6205017  92.7649987  31.6715006   9.6205017
  91.5679987  32.5985006   9.6205017  86.2959987  28.5805006 159.9365017
  87.2529987  28.5805006 159.9365017  86.0559987  29.5075006 159.9365017
  86.3599987  27.1155006 156.9455017  87.3169987  27.1155006 156.9455017
  86.1199987  28.0425006 156.9455017  93.6829987  27.9855006   7.6735017
  94.6399987  27.9855006   7.6735017  93.4429987  28.9125006   7.6735017
  89.7359987  28.7955006   0.3065017  90.6929987  28.7955006   0.3065017
  89.4959987  29.7225006   0.3065017  89.6589987  26.9535006   9.4185017
  90.6159987  26.9535006   9.4185017  89.4189987  27.8805006   9.4185017
  81.3659987  29.4605006   2.2205017  82.3229987  29.4605006   2.2205017
  81.1259987  30.3875006   2.2205017  82.6919987  32.8465006   4.9005017
  83.6489987  32.8465006   4.9005017  82.4519987  33.7735006   4.9005017
  81.6909987  28.1955006   5.8715017  82.6479987  28.1955006   5.8715017
  81.4509987  29.1225006   5.8715017  88.0689987  33.7585006   6.5765017
  89.0259987  33.7585006   6.5765017  87.8289987  34.6855006   6.5765017
  82.6279987  32.6205006  10.5785017  83.5849987  32.6205006  10.5785017
  82.3879987  33.5475006  10.5785017  88.6009987  27.9785006 158.5265017
  89.5579987  27.9785006 158.5265017  88.3609987  28.9055006 158.5265017
  79.5629987  28.7855006   9.7515017  80.5199987  28.7855006   9.7515017
  79.3229987  29.7125006   9.7515017  86.3219987  34.7065006   1.4455017
  87.2789987  34.7065006   1.4455017  86.0819987  35.6335006   1.4455017
  80.8649987  34.6395006  11.3105017  81.8219987  34.6395006  11.3105017
  80.6249987  35.5665006  11.3105017  92.3269987  19.7135006 158.3955017
  93.2839987  19.7135006 158.3955017  92.0869987  20.6405006 158.3955017
  80.3119987  28.4785006 160.3995017  81.2689987  28.4785006 160.3995017
  80.0719987  29.4055006 160.3995017  93.4509987  34.0705006 156.7615017
  94.4079987  34.0705006 156.7615017  93.2109987  34.9975006 156.7615017
  76.4099987  30.9045006   8.6985017  77.3669987  30.9045006   8.6985017
  76.1699987  31.8315006   8.6985017  76.1809987  33.6285006   5.4865017
  77.1379987  33.6285006   5.4865017  75.9409987  34.5555006   5.4865017
  94.4109987  34.3325006  11.1925017  95.3679987  34.3325006  11.1925017
  94.1709987  35.2595006  11.1925017  85.3709987  33.8795006  10.0555017
  86.3279987  33.8795006  10.0555017  85.1309987  34.8065006  10.0555017
  85.8039987  37.6285006 160.4045017  86.7609987  37.6285006 160.4045017
  85.5639987  38.5555006 160.4045017  79.4559987  36.4735006   1.6575017
  80.4129987  36.4735006   1.6575017  79.2159987  37.4005006   1.6575017
  88.8689987  36.8335006 157.3875017  89.8259987  36.8335006 157.3875017
  88.6289987  37.7605006 157.3875017  88.5579987  36.7605006 160.1515017
  89.5149987  36.7605006 160.1515017  88.3179987  37.6875006 160.1515017
  91.5529987  25.8095006  11.6745017  92.5099987  25.8095006  11.6745017
  91.3129987  26.7365006  11.6745017  78.6939987  32.2045006   9.6615017
  79.6509987  32.2045006   9.6615017  78.4539987  33.1315006   9.6615017
  81.3679987  20.6755006   5.6365017  82.3249987  20.6755006   5.6365017
  81.1279987  21.6025006   5.6365017  86.0069987  20.3675006   8.9985017
  86.9639987  20.3675006   8.9985017  85.7669987  21.2945006   8.9985017
  89.3089987  24.1835006   9.8865017  90.2659987  24.1835006   9.8865017
  89.0689987  25.1105006   9.8865017  90.0549987  29.0155006 156.2755017
  91.0119987  29.0155006 156.2755017  89.8149987  29.9425006 156.2755017
  85.6589987  22.9255006 156.8385017  86.6159987  22.9255006 156.8385017
  85.4189987  23.8525006 156.8385017  81.4579987  25.6415006   6.8405017
  82.4149987  25.6415006   6.8405017  81.2179987  26.5685006   6.8405017
  81.4139987  25.8075006   1.7245017  82.3709987  25.8075006   1.7245017
  81.1739987  26.7345006   1.7245017  86.9479987  26.2745006   0.5155017
  87.9049987  26.2745006   0.5155017  86.7079987  27.2015006   0.5155017
  86.0229987  26.4815006  11.9545017  86.9799987  26.4815006  11.9545017
  85.7829987  27.4085006  11.9545017  87.9769987  25.7555006   3.3445017
  88.9339987  25.7555006   3.3445017  87.7369987  26.6825006   3.3445017
  79.1149987  25.9395006   8.5745017  80.0719987  25.9395006   8.5745017
  78.8749987  26.8665006   8.5745017  82.4909987  23.3145006 155.9555017
  83.4479987  23.3145006 155.9555017  82.2509987  24.2415006 155.9555017
  75.7869987  23.1265006   2.4925017  76.7439987  23.1265006   2.4925017
  75.5469987  24.0535006   2.4925017  77.0329987  23.7645006 158.4575017
  77.9899987  23.7645006 158.4575017  76.7929987  24.6915006 158.4575017
  87.1929987  27.3595006   7.9305017  88.1499987  27.3595006   7.9305017
  86.9529987  28.2865006   7.9305017  83.9859987  23.3155006   2.7455017
  84.9429987  23.3155006   2.7455017  83.7459987  24.2425006   2.7455017
  78.7509987  24.8785006   1.6455017  79.7079987  24.8785006   1.6455017
  78.5109987  25.8055006   1.6455017  82.4509987  24.9165006 159.7775017
  83.4079987  24.9165006 159.7775017  82.2109987  25.8435006 159.7775017
  88.3969987  22.5525006   5.9935017  89.3539987  22.5525006   5.9935017
  88.1569987  23.4795006   5.9935017  81.1539987  26.1025006 157.3635017
  82.1109987  26.1025006 157.3635017  80.9139987  27.0295006 157.3635017
  91.6139987  38.2005006  12.3095017  92.5709987  38.2005006  12.3095017
  91.3739987  39.1275006  12.3095017  79.2849987  30.6795006  11.8855017
  80.2419987  30.6795006  11.8855017  79.0449987  31.6065006  11.8855017
  85.2739987  26.0795006   4.6395017  86.2309987  26.0795006   4.6395017
  85.0339987  27.0065006   4.6395017  80.2859987  22.2315006   1.0745017
  81.2429987  22.2315006   1.0745017  80.0459987  23.1585006   1.0745017
  83.9169987  24.4215006   7.0525017  84.8739987  24.4215006   7.0525017
  83.6769987  25.3485006   7.0525017  84.5039987  30.6485006 159.2865017
  85.4609987  30.6485006 159.2865017  84.2639987  31.5755006 159.2865017
  91.6669987  29.8225006   7.5515017  92.6239987  29.8225006   7.5515017
  91.4269987  30.7495006   7.5515017  88.3429987  23.4595006 157.4685017
  89.2999987  23.4595006 157.4685017  88.1029987  24.3865006 157.4685017
  85.9909987  30.8855006   9.9875017  86.9479987  30.8855006   9.9875017
  85.7509987  31.8125006   9.9875017  89.0719987  25.3615006 159.1125017
  90.0289987  25.3615006 159.1125017  88.8319987  26.2885006 159.1125017
  79.5839987  29.9925006   4.5295017  80.5409987  29.9925006   4.5295017
  79.3439987  30.9195006   4.5295017  86.6089987  32.1135006 158.3195017
  87.5659987  32.1135006 158.3195017  86.3689987  33.0405006 158.3195017
  76.5899987  28.4375006   9.8165017  77.5469987  28.4375006   9.8165017
  76.3499987  29.3645006   9.8165017  83.6149987  27.9885006  12.0095017
  84.5719987  27.9885006  12.0095017  83.3749987  28.9155006  12.0095017
  88.2839987  33.3215006   9.9295017  89.2409987  33.3215006   9.9295017
  88.0439987  34.2485006   9.9295017  93.9789987  25.5125006 158.8655017
  94.9359987  25.5125006 158.8655017  93.7389987  26.4395006 158.8655017
  93.9519987  31.3745006  11.1475017  94.9089987  31.3745006  11.1475017
  93.7119987  32.3015006  11.1475017  92.2399987  34.3445006 159.2795017
  93.1969987  34.3445006 159.2795017  91.9999987  35.2715006 159.2795017
  89.4579987  29.1575006   5.8245017  90.4149987  29.1575006   5.8245017
  89.2179987  30.0845006   5.8245017  81.9889987  33.4755006   1.9185017
  82.9459987  33.4755006   1.9185017  81.7489987  34.4025006   1.9185017
  77.7429987  28.3305006 157.0395017  78.6999987  28.3305006 157.0395017
  77.5029987  29.2575006 157.0395017  83.4069987  31.1525006   1.4645017
  84.3639987  31.1525006   1.4645017  83.1669987  32.0795006   1.4645017
  83.8609987  35.3205006   7.8405017  84.8179987  35.3205006   7.8405017
  83.6209987  36.2475006   7.8405017  82.0889987  36.1475006   0.9805017
  83.0459987  36.1475006   0.9805017  81.8489987  37.0745006   0.9805017
  87.4019987  31.3535006   7.4895017  88.3589987  31.3535006   7.4895017
  87.1619987  32.2805006   7.4895017  89.6949987  32.3885006 157.1115017
  90.6519987  32.3885006 157.1115017  89.4549987  33.3155006 157.1115017
  90.1689987  35.9225006   9.9825017  91.1259987  35.9225006   9.9825017
  89.9289987  36.8495006   9.9825017  94.1709987  36.7655006 157.3545017
  95.1279987  36.7655006 157.3545017  93.9309987  37.6925006 157.3545017
  78.2729987  23.2055006   9.4015017  79.2299987  23.2055006   9.4015017
  78.0329987  24.1325006   9.4015017  90.4909987  31.0315006 159.3465017
  91.4479987  31.0315006 159.3465017  90.2509987  31.9585006 159.3465017
  77.8789987  34.9125006   7.7825017  78.8359987  34.9125006   7.7825017
  77.6389987  35.8395006   7.7825017  83.8149987  33.4735006 155.5915017
  84.7719987  33.4735006 155.5915017  83.5749987  34.4005006 155.5915017
  82.6359987  33.0035006 158.0465017  83.5929987  33.0035006 158.0465017
  82.3959987  33.9305006 158.0465017  79.1489987  30.2515006 158.5375017
  80.1059987  30.2515006 158.5375017  78.9089987  31.1785006 158.5375017
  86.9779987  22.9395006   8.3025017  87.9349987  22.9395006   8.3025017
  86.7379987  23.8665006   8.3025017  87.7379987  22.5225006 159.9385017
  88.6949987  22.5225006 159.9385017  87.4979987  23.4495006 159.9385017
  85.4209987  34.6755006 158.7665017  86.3779987  34.6755006 158.7665017
  85.1809987  35.6025006 158.7665017  84.9559987  24.2775006   0.2195017
  85.9129987  24.2775006   0.2195017  84.7159987  25.2045006   0.2195017
  85.5059987  25.2875006   9.4075017  86.4629987  25.2875006   9.4075017
  85.2659987  26.2145006   9.4075017  85.8159987  21.3355006   1.1255017
  86.7729987  21.3355006   1.1255017  85.5759987  22.2625006   1.1255017
  82.8029987  35.7115006 158.7755017  83.7599987  35.7115006 158.7755017
  82.5629987  36.6385006 158.7755017  81.4699987  22.4265006 158.3665017
  82.4269987  22.4265006 158.3665017  81.2299987  23.3535006 158.3665017
  91.7009987  23.1645006  10.2555017  92.6579987  23.1645006  10.2555017
  91.4609987  24.0915006  10.2555017  90.3009987  26.9485006   4.2865017
  91.2579987  26.9485006   4.2865017  90.0609987  27.8755006   4.2865017
  79.7099987  32.8635006 157.4145017  80.6669987  32.8635006 157.4145017
  79.4699987  33.7905006 157.4145017  78.0529987  25.5365006 156.5475017
  79.0099987  25.5365006 156.5475017  77.8129987  26.4635006 156.5475017
  91.3669987  36.1955006   5.9485017  92.3239987  36.1955006   5.9485017
  91.1269987  37.1225006   5.9485017  78.8829987  20.3255006   4.7155017
  79.8399987  20.3255006   4.7155017  78.6429987  21.2525006   4.7155017
  77.8259987  34.2335006   0.8705017  78.7829987  34.2335006   0.8705017
  77.5859987  35.1605006   0.8705017  85.8209987  35.3285006 155.7255017
  86.7779987  35.3285006 155.7255017  85.5809987  36.2555006 155.7255017
  88.2249987  34.1955006  12.5265017  89.1819987  34.1955006  12.5265017
  87.9849987  35.1225006  12.5265017  90.3919987  35.0865006 155.9245017
  91.3489987  35.0865006 155.9245017  90.1519987  36.0135006 155.9245017
  76.9639987  30.6665006  13.1605017  77.9209987  30.6665006  13.1605017
  76.7239987  31.5935006  13.1605017  81.2899987  31.0205006 155.7575017
  82.2469987  31.0205006 155.7575017  81.0499987  31.9475006 155.7575017
  83.6549987  30.6565006  12.5625017  84.6119987  30.6565006  12.5625017
  83.4149987  31.5835006  12.5625017  86.7069987  32.1135006 155.5185017
  87.6639987  32.1135006 155.5185017  86.4669987  33.0405006 155.5185017
  89.3589987  30.5285006   9.9485017  90.3159987  30.5285006   9.9485017
  89.1189987  31.4555006   9.9485017  77.8529987  27.9015006  12.5555017
  78.8099987  27.9015006  12.5555017  77.6129987  28.8285006  12.5555017
  82.4859987  29.0285006 158.1445017  83.4429987  29.0285006 158.1445017
  82.2459987  29.9555006 158.1445017  81.7599987  26.8565006   9.9195017
  82.7169987  26.8565006   9.9195017  81.5199987  27.7835006   9.9195017
  83.5579987  27.2505006 156.3665017  84.5149987  27.2505006 156.3665017
  83.3179987  28.1775006 156.3665017  86.8179987  29.3985006  13.2315017
  87.7749987  29.3985006  13.2315017  86.5779987  30.3255006  13.2315017
  92.9139987  29.5805006 155.7955017  93.8709987  29.5805006 155.7955017
  92.6739987  30.5075006 155.7955017  82.1549987  24.2285006  10.9855017
  83.1119987  24.2285006  10.9855017  81.9149987  25.1555006  10.9855017
  82.5549987  22.6045006   8.5175017  83.5119987  22.6045006   8.5175017
  82.3149987  23.5315006   8.5175017  84.1049987  28.0745006   8.7625017
  85.0619987  28.0745006   8.7625017  83.8649987  29.0015006   8.7625017
  88.5039987  25.8535006  13.7395017  89.4609987  25.8535006  13.7395017
  88.2639987  26.7805006  13.7395017  89.8309987  28.6335006  11.8755017
  90.7879987  28.6335006  11.8755017  89.5909987  29.5605006  11.8755017
  80.6139987  25.4715006  12.8985017  81.5709987  25.4715006  12.8985017
  80.3739987  26.3985006  12.8985017  83.3499987  20.0425006   8.9245017
  84.3069987  20.0425006   8.9245017  83.1099987  20.9695006   8.9245017
  84.6219987  24.3735006  12.5215017  85.5789987  24.3735006  12.5215017
  84.3819987  25.3005006  12.5215017  87.3379987  23.5085006  11.5995017
  88.2949987  23.5085006  11.5995017  87.0979987  24.4355006  11.5995017
  88.9339987  22.1395006  13.5405017  89.8909987  22.1395006  13.5405017
  88.6939987  23.0665006  13.5405017  78.7129987  23.3935006  12.6325017
  79.6699987  23.3935006  12.6325017  78.4729987  24.3205006  12.6325017
  83.5599987  19.4125006  11.6155017  84.5169987  19.4125006  11.6155017
  83.3199987  20.3395006  11.6155017  83.9269987  21.0465006  13.7045017
  84.8839987  21.0465006  13.7045017  83.6869987  21.9735006  13.7045017
  83.4049987  37.9465006 157.4275017  84.3619987  37.9465006 157.4275017
  83.1649987  38.8735006 157.4275017  76.9759987  32.5385006 156.8945017
  77.9329987  32.5385006 156.8945017  76.7359987  33.4655006 156.8945017
  75.6999987  37.9225006   1.3205017  76.6569987  37.9225006   1.3205017
  75.4599987  38.8495006   1.3205017  76.5289987  36.0585006   3.1865017
  77.4859987  36.0585006   3.1865017  76.2889987  36.9855006   3.1865017
  94.0859987  36.8475006   6.1485017  95.0429987  36.8475006   6.1485017
  93.8459987  37.7745006   6.1485017  93.6619987  36.4445006   9.0925017
  94.6189987  36.4445006   9.0925017  93.4219987  37.3715006   9.0925017
  92.1099987  32.1725006  13.7465017  93.0669987  32.1725006  13.7465017
  91.8699987  33.0995006  13.7465017  93.4139987  30.4875006 159.7455017
  94.3709987  30.4875006 159.7455017  93.1739987  31.4145006 159.7455017
  93.7879987  28.5585006   1.0705017  94.7449987  28.5585006   1.0705017
  93.5479987  29.4855006   1.0705017  93.5439987  31.2745006   6.0525017
  94.5009987  31.2745006   6.0525017  93.3039987  32.2015006   6.0525017
  92.0899987  34.1715006   8.3345017  93.0469987  34.1715006   8.3345017
  91.8499987  35.0985006   8.3345017  94.0859987  28.3945006 158.0105017
  95.0429987  28.3945006 158.0105017  93.8459987  29.3215006 158.0105017
  92.4529987  25.6325006 156.5325017  93.4099987  25.6325006 156.5325017
  92.2129987  26.5595006 156.5325017  91.6009987  27.0435006   1.6345017
  92.5579987  27.0435006   1.6345017  91.3609987  27.9705006   1.6345017
  76.6089987  29.0945006   5.6835017  77.5659987  29.0945006   5.6835017
  76.3689987  30.0215006   5.6835017  92.4529987  29.0115006  11.3135017
  93.4099987  29.0115006  11.3135017  92.2129987  29.9385006  11.3135017
  93.9609987  26.9045006  11.9785017  94.9179987  26.9045006  11.9785017
  93.7209987  27.8315006  11.9785017  91.6929987  23.0895006 155.6645017
  92.6499987  23.0895006 155.6645017  91.4529987  24.0165006 155.6645017
  91.2609987  24.6255006 160.6145017  92.2179987  24.6255006 160.6145017
  91.0209987  25.5525006 160.6145017  91.9089987  25.1625006   5.5425017
  92.8659987  25.1625006   5.5425017  91.6689987  26.0895006   5.5425017
  91.9759987  25.8985006   8.3275017  92.9329987  25.8985006   8.3275017
  91.7359987  26.8255006   8.3275017  76.2149987  24.4175006  11.8325017
  77.1719987  24.4175006  11.8325017  75.9749987  25.3445006  11.8325017
  94.2369987  19.9405006  13.6745017  95.1939987  19.9405006  13.6745017
  93.9969987  20.8675006  13.6745017  91.9349987  21.9095006   0.1465017
  92.8919987  21.9095006   0.1465017  91.6949987  22.8365006   0.1465017
  77.4349987  22.7315006   4.6615017  78.3919987  22.7315006   4.6615017
  77.1949987  23.6585006   4.6615017  75.6889987  25.7365006   5.6925017
  76.6459987  25.7365006   5.6925017  75.4489987  26.6635006   5.6925017
  93.7669987  22.0465006  12.0265017  94.7239987  22.0465006  12.0265017
  93.5269987  22.9735006  12.0265017  93.7629987  21.9485006 157.2425017
  94.7199987  21.9485006 157.2425017  93.5229987  22.8755006 157.2425017
  76.0729987  22.0195006 160.3895017  77.0299987  22.0195006 160.3895017
  75.8329987  22.9465006 160.3895017  90.8129987  36.9305006   1.7645017
  91.7699987  36.9305006   1.7645017  90.5729987  37.8575006   1.7645017
  76.2559987  21.5755006   8.0495017  77.2129987  21.5755006   8.0495017
  76.0159987  22.5025006   8.0495017  78.2429987  33.8685006  12.2775017
  79.1999987  33.8685006  12.2775017  78.0029987  34.7955006  12.2775017
  81.1509987  34.8335006   8.5425017  82.1079987  34.8335006   8.5425017
  80.9109987  35.7605006   8.5425017  85.4789987  36.2615006  11.4645017
  86.4359987  36.2615006  11.4645017  85.2389987  37.1885006  11.4645017
  87.7789987  37.5295006  10.7595017  88.7359987  37.5295006  10.7595017
  87.5389987  38.4565006  10.7595017  92.7809987  20.1415006   9.8625017
  93.7379987  20.1415006   9.8625017  92.5409987  21.0685006   9.8625017
  81.0619987  37.7035006   7.6335017  82.0189987  37.7035006   7.6335017
  80.8219987  38.6305006   7.6335017  85.7609987  37.5675006   6.7935017
  86.7179987  37.5675006   6.7935017  85.5209987  38.4945006   6.7935017
  88.0659987  36.4025006   7.7915017  89.0229987  36.4025006   7.7915017
  87.8259987  37.3295006   7.7915017  90.6449987  37.9705006   8.0505017
  91.6019987  37.9705006   8.0505017  90.4049987  38.8975006   8.0505017
  80.1149987  35.4335006   4.1355017  81.0719987  35.4335006   4.1355017
  79.8749987  36.3605006   4.1355017  82.6859987  35.9275006   5.0285017
  83.6429987  35.9275006   5.0285017  82.4459987  36.8545006   5.0285017
  86.1779987  21.5725006   4.1625017  87.1349987  21.5725006   4.1625017
  85.9379987  22.4995006   4.1625017  91.3129987  19.6345006   4.2445017
  92.2699987  19.6345006   4.2445017  91.0729987  20.5615006   4.2445017
  92.9919987  20.8535006   2.5315017  93.9489987  20.8535006   2.5315017
  92.7519987  21.7805006   2.5315017  78.5389987  20.2045006   1.9985017
  79.4959987  20.2045006   1.9985017  78.2989987  21.1315006   1.9985017
  77.3249987  19.9645006 158.2885017  78.2819987  19.9645006 158.2885017
  77.0849987  20.8915006 158.2885017  83.0389987  20.1245006   1.7895017
  83.9959987  20.1245006   1.7895017  82.7989987  21.0515006   1.7895017
  88.7059987  20.1495006   3.4295017  89.6629987  20.1495006   3.4295017
  88.4659987  21.0765006   3.4295017  90.0039987  20.1805006 159.6535017
  90.9609987  20.1805006 159.6535017  89.7639987  21.1075006 159.6535017
  77.2519987  35.9135006 159.2685017  78.2089987  35.9135006 159.2685017
  77.0119987  36.8405006 159.2685017  79.1579987  21.9055006 156.7795017
  80.1149987  21.9055006 156.7795017  78.9179987  22.8325006 156.7795017
  84.1869987  22.1575006 159.1895017  85.1439987  22.1575006 159.1895017
  83.9469987  23.0845006 159.1895017  86.1009987  37.1935006 157.6375017
  87.0579987  37.1935006 157.6375017  85.8609987  38.1205006 157.6375017
  92.8139987  36.7195006 160.3395017  93.7709987  36.7195006 160.3395017
  92.5739987  37.6465006 160.3395017  78.4429987  20.7585006  11.4895017
  79.3999987  20.7585006  11.4895017  78.2029987  21.6855006  11.4895017
  80.4429987  20.1105006  13.0785017  81.3999987  20.1105006  13.0785017
  80.2029987  21.0375006  13.0785017  79.0349987  36.8835006 156.2345017
  79.9919987  36.8835006 156.2345017  78.7949987  37.8105006 156.2345017
  88.8429987  19.4185006  13.2405017  89.7999987  19.4185006  13.2405017
  88.6029987  20.3455006  13.2405017  92.0489987  35.4565006  11.8935017
  93.0059987  35.4565006  11.8935017  91.8089987  36.3835006  11.8935017
 106.4689987  29.3085006   1.8555017 107.4259987  29.3085006   1.8555017
 106.2289987  30.2355006   1.8555017 105.2809987  28.6195006   5.3775017
 106.2379987  28.6195006   5.3775017 105.0409987  29.5465006   5.3775017
  97.7079987  28.2585006   6.9225017  98.6649987  28.2585006   6.9225017
  97.4679987  29.1855006   6.9225017  98.6359987  32.7085006   5.4455017
  99.5929987  32.7085006   5.4455017  98.3959987  33.6355006   5.4455017
  95.2789987  26.2875006   0.9025017  96.2359987  26.2875006   0.9025017
  95.0389987  27.2145006   0.9025017  95.9749987  28.5025006   3.0365017
  96.9319987  28.5025006   3.0365017  95.7349987  29.4295006   3.0365017
 106.1809987  36.6595006   3.8605017 107.1379987  36.6595006   3.8605017
 105.9409987  37.5865006   3.8605017 103.7009987  30.9995006   5.8035017
 104.6579987  30.9995006   5.8035017 103.4609987  31.9265006   5.8035017
 106.2239987  25.2265006   6.0965017 107.1809987  25.2265006   6.0965017
 105.9839987  26.1535006   6.0965017 100.0169987  23.5495006   3.3705017
 100.9739987  23.5495006   3.3705017  99.7769987  24.4765006   3.3705017
 107.7149987  24.1325006   1.3485017 108.6719987  24.1325006   1.3485017
 107.4749987  25.0595006   1.3485017  96.6379987  25.9595006   4.1085017
  97.5949987  25.9595006   4.1085017  96.3979987  26.8865006   4.1085017
 101.7919987  27.5195006   3.3925017 102.7489987  27.5195006   3.3925017
 101.5519987  28.4465006   3.3925017  98.8899987  22.4295006   7.4045017
  99.8469987  22.4295006   7.4045017  98.6499987  23.3565006   7.4045017
 106.2249987  31.9435006   0.9635017 107.1819987  31.9435006   0.9635017
 105.9849987  32.8705006   0.9635017 101.4369987  30.0985006   7.6695017
 102.3939987  30.0985006   7.6695017 101.1969987  31.0255006   7.6695017
  98.4569987  24.3305006   5.4145017  99.4139987  24.3305006   5.4145017
  98.2169987  25.2575006   5.4145017  99.8709987  32.0875006   8.4795017
 100.8279987  32.0875006   8.4795017  99.6309987  33.0145006   8.4795017
  95.9579987  31.7235006 159.8155017  96.9149987  31.7235006 159.8155017
  95.7179987  32.6505006 159.8155017 102.8749987  19.7755006   4.8905017
 103.8319987  19.7755006   4.8905017 102.6349987  20.7025006   4.8905017
 107.5009987  34.9865006   2.2135017 108.4579987  34.9865006   2.2135017
 107.2609987  35.9135006   2.2135017 105.1289987  28.5765006 159.9165017
 106.0859987  28.5765006 159.9165017 104.8889987  29.5035006 159.9165017
 105.1809987  27.0925006 156.9455017 106.1379987  27.0925006 156.9455017
 104.9409987  28.0195006 156.9455017 100.2079987  29.4525006   2.2205017
 101.1649987  29.4525006   2.2205017  99.9679987  30.3795006   2.2205017
 101.5389987  32.8475006   4.9035017 102.4959987  32.8475006   4.9035017
 101.2989987  33.7745006   4.9035017 100.5469987  28.1935006   5.8715017
 101.5039987  28.1935006   5.8715017 100.3069987  29.1205006   5.8715017
 106.5349987  33.7785006   6.6235017 107.4919987  33.7785006   6.6235017
 106.2949987  34.7055006   6.6235017 101.4859987  32.6175006  10.5745017
 102.4429987  32.6175006  10.5745017 101.2459987  33.5445006  10.5745017
 107.4419987  27.9805006 158.5585017 108.3989987  27.9805006 158.5585017
 107.2019987  28.9075006 158.5585017  98.4209987  28.7845006   9.7515017
  99.3779987  28.7845006   9.7515017  98.1809987  29.7115006   9.7515017
 105.0829987  34.7015006   1.4365017 106.0399987  34.7015006   1.4365017
 104.8429987  35.6285006   1.4365017  99.7269987  34.6675006  11.3295017
 100.6839987  34.6675006  11.3295017  99.4869987  35.5945006  11.3295017
  99.1849987  28.4785006 160.3785017 100.1419987  28.4785006 160.3785017
  98.9449987  29.4055006 160.3785017  95.2739987  30.8955006   8.7025017
  96.2309987  30.8955006   8.7025017  95.0339987  31.8225006   8.7025017
  95.0329987  33.6345006   5.5065017  95.9899987  33.6345006   5.5065017
  94.7929987  34.5615006   5.5065017 104.2419987  33.8785006  10.0785017
 105.1989987  33.8785006  10.0785017 104.0019987  34.8055006  10.0785017
 104.6659987  37.6305006 160.4075017 105.6229987  37.6305006 160.4075017
 104.4259987  38.5575006 160.4075017  98.3009987  36.4935006   1.6685017
  99.2579987  36.4935006   1.6685017  98.0609987  37.4205006   1.6685017
 107.7399987  36.8155006 157.3685017 108.6969987  36.8155006 157.3685017
 107.4999987  37.7425006 157.3685017 107.2489987  36.5925006 160.0075017
 108.2059987  36.5925006 160.0075017 107.0089987  37.5195006 160.0075017
  97.5479987  32.2145006   9.6685017  98.5049987  32.2145006   9.6685017
  97.3079987  33.1415006   9.6685017 100.2089987  20.6665006   5.6155017
 101.1659987  20.6665006   5.6155017  99.9689987  21.5935006   5.6155017
 104.9019987  20.3515006   9.0095017 105.8589987  20.3515006   9.0095017
 104.6619987  21.2785006   9.0095017 104.5319987  22.9235006 156.8565017
 105.4889987  22.9235006 156.8565017 104.2919987  23.8505006 156.8565017
 100.3049987  25.6415006   6.8425017 101.2619987  25.6415006   6.8425017
 100.0649987  26.5685006   6.8425017 100.2819987  25.8045006   1.7225017
 101.2389987  25.8045006   1.7225017 100.0419987  26.7315006   1.7225017
 105.7879987  26.2805006   0.5135017 106.7449987  26.2805006   0.5135017
 105.5479987  27.2075006   0.5135017 104.8979987  26.5075006  11.9875017
 105.8549987  26.5075006  11.9875017 104.6579987  27.4345006  11.9875017
 106.7849987  25.7375006   3.3385017 107.7419987  25.7375006   3.3385017
 106.5449987  26.6645006   3.3385017  97.9669987  25.9295006   8.5745017
  98.9239987  25.9295006   8.5745017  97.7269987  26.8565006   8.5745017
 101.3489987  23.3155006 155.9545017 102.3059987  23.3155006 155.9545017
 101.1089987  24.2425006 155.9545017  94.6079987  23.0405006   2.5195017
  95.5649987  23.0405006   2.5195017  94.3679987  23.9675006   2.5195017
  95.8829987  23.7545006 158.4375017  96.8399987  23.7545006 158.4375017
  95.6429987  24.6815006 158.4375017 106.0439987  27.3565006   7.9495017
 107.0009987  27.3565006   7.9495017 105.8039987  28.2835006   7.9495017
 102.8459987  23.3075006   2.7415017 103.8029987  23.3075006   2.7415017
 102.6059987  24.2345006   2.7415017  97.6619987  24.8905006   1.6085017
  98.6189987  24.8905006   1.6085017  97.4219987  25.8175006   1.6085017
 101.3079987  24.9165006 159.7775017 102.2649987  24.9165006 159.7775017
 101.0679987  25.8435006 159.7775017 107.2399987  22.5055006   6.0465017
 108.1969987  22.5055006   6.0465017 106.9999987  23.4325006   6.0465017
 100.0019987  26.1055006 157.3705017 100.9589987  26.1055006 157.3705017
  99.7619987  27.0325006 157.3705017  98.1369987  30.6705006  11.8805017
  99.0939987  30.6705006  11.8805017  97.8969987  31.5975006  11.8805017
 104.0949987  26.0755006   4.5965017 105.0519987  26.0755006   4.5965017
 103.8549987  27.0025006   4.5965017  99.1449987  22.2285006   1.0755017
 100.1019987  22.2285006   1.0755017  98.9049987  23.1555006   1.0755017
 102.7629987  24.4225006   7.0495017 103.7199987  24.4225006   7.0495017
 102.5229987  25.3495006   7.0495017 103.3659987  30.6505006 159.2835017
 104.3229987  30.6505006 159.2835017 103.1259987  31.5775006 159.2835017
 107.1419987  23.4595006 157.5125017 108.0989987  23.4595006 157.5125017
 106.9019987  24.3865006 157.5125017 104.8409987  30.8665006   9.9805017
 105.7979987  30.8665006   9.9805017 104.6009987  31.7935006   9.9805017
   0.1169987  25.4725006 159.1725017   1.0739987  25.4725006 159.1725017
  -0.1230013  26.3995006 159.1725017  98.4619987  30.0145006   4.5455017
  99.4189987  30.0145006   4.5455017  98.2219987  30.9415006   4.5455017
 105.4569987  32.1005006 158.3065017 106.4139987  32.1005006 158.3065017
 105.2169987  33.0275006 158.3065017  95.4549987  28.4385006   9.8135017
  96.4119987  28.4385006   9.8135017  95.2149987  29.3655006   9.8135017
 102.4719987  27.9885006  12.0055017 103.4289987  27.9885006  12.0055017
 102.2319987  28.9155006  12.0055017 107.1539987  33.3625006   9.9155017
 108.1109987  33.3625006   9.9155017 106.9139987  34.2895006   9.9155017
 100.8369987  33.4805006   1.9305017 101.7939987  33.4805006   1.9305017
 100.5969987  34.4075006   1.9305017  96.5989987  28.3275006 157.0435017
  97.5559987  28.3275006 157.0435017  96.3589987  29.2545006 157.0435017
 102.2539987  31.1495006   1.4565017 103.2109987  31.1495006   1.4565017
 102.0139987  32.0765006   1.4565017 102.7069987  35.3205006   7.8465017
 103.6639987  35.3205006   7.8465017 102.4669987  36.2475006   7.8465017
 100.9349987  36.1495006   0.9965017 101.8919987  36.1495006   0.9965017
 100.6949987  37.0765006   0.9965017 106.2749987  31.3315006   7.5045017
 107.2319987  31.3315006   7.5045017 106.0349987  32.2585006   7.5045017
  97.1159987  23.1675006   9.3625017  98.0729987  23.1675006   9.3625017
  96.8759987  24.0945006   9.3625017  96.7279987  34.9675006   7.7955017
  97.6849987  34.9675006   7.7955017  96.4879987  35.8945006   7.7955017
 102.6659987  33.4765006 155.5825017 103.6229987  33.4765006 155.5825017
 102.4259987  34.4035006 155.5825017 101.4919987  33.0035006 158.0465017
 102.4489987  33.0035006 158.0465017 101.2519987  33.9305006 158.0465017
  98.0039987  30.2505006 158.5375017  98.9609987  30.2505006 158.5375017
  97.7639987  31.1775006 158.5375017 105.8509987  22.9255006   8.3135017
 106.8079987  22.9255006   8.3135017 105.6109987  23.8525006   8.3135017
 106.3249987  22.7435006 159.9235017 107.2819987  22.7435006 159.9235017
 106.0849987  23.6705006 159.9235017 104.2859987  34.6705006 158.7725017
 105.2429987  34.6705006 158.7725017 104.0459987  35.5975006 158.7725017
 103.7919987  24.2995006   0.2165017 104.7489987  24.2995006   0.2165017
 103.5519987  25.2265006   0.2165017 104.3359987  25.2465006   9.4205017
 105.2929987  25.2465006   9.4205017 104.0959987  26.1735006   9.4205017
 104.6989987  21.3345006   1.1285017 105.6559987  21.3345006   1.1285017
 104.4589987  22.2615006   1.1285017 101.6349987  35.7085006 158.7705017
 102.5919987  35.7085006 158.7705017 101.3949987  36.6355006 158.7705017
 100.3269987  22.4255006 158.3665017 101.2839987  22.4255006 158.3665017
 100.0869987  23.3525006 158.3665017  98.5649987  32.8675006 157.4205017
  99.5219987  32.8675006 157.4205017  98.3249987  33.7945006 157.4205017
  96.9079987  25.5375006 156.5495017  97.8649987  25.5375006 156.5495017
  96.6679987  26.4645006 156.5495017  97.7399987  20.3085006   4.7305017
  98.6969987  20.3085006   4.7305017  97.4999987  21.2355006   4.7305017
  96.6739987  34.2455006   0.8785017  97.6309987  34.2455006   0.8785017
  96.4339987  35.1725006   0.8785017  95.8949987  36.8955006  12.1795017
  96.8519987  36.8955006  12.1795017  95.6549987  37.8225006  12.1795017
 100.5519987  35.8165006  13.7915017 101.5089987  35.8165006  13.7915017
 100.3119987  36.7435006  13.7915017 104.7059987  35.3145006 155.7205017
 105.6629987  35.3145006 155.7205017 104.4659987  36.2415006 155.7205017
 107.1349987  34.1985006  12.5245017 108.0919987  34.1985006  12.5245017
 106.8949987  35.1255006  12.5245017  95.8149987  30.6805006  13.1635017
  96.7719987  30.6805006  13.1635017  95.5749987  31.6075006  13.1635017
 100.1419987  31.0195006 155.7555017 101.0989987  31.0195006 155.7555017
  99.9019987  31.9465006 155.7555017 102.4999987  30.6585006  12.5675017
 103.4569987  30.6585006  12.5675017 102.2599987  31.5855006  12.5675017
 105.5999987  32.0935006 155.5265017 106.5569987  32.0935006 155.5265017
 105.3599987  33.0205006 155.5265017  96.7049987  27.8965006  12.5485017
  97.6619987  27.8965006  12.5485017  96.4649987  28.8235006  12.5485017
 101.3409987  29.0295006 158.1425017 102.2979987  29.0295006 158.1425017
 101.1009987  29.9565006 158.1425017 100.6179987  26.8545006   9.9165017
 101.5749987  26.8545006   9.9165017 100.3779987  27.7815006   9.9165017
 102.4109987  27.2485006 156.3675017 103.3679987  27.2485006 156.3675017
 102.1709987  28.1755006 156.3675017 105.6769987  29.3955006  13.2635017
 106.6339987  29.3955006  13.2635017 105.4369987  30.3225006  13.2635017
 101.0099987  24.2285006  10.9855017 101.9669987  24.2285006  10.9855017
 100.7699987  25.1555006  10.9855017 101.4079987  22.6075006   8.5205017
 102.3649987  22.6075006   8.5205017 101.1679987  23.5345006   8.5205017
 102.9779987  28.0745006   8.7645017 103.9349987  28.0745006   8.7645017
 102.7379987  29.0015006   8.7645017 107.3909987  25.8725006  13.8435017
 108.3479987  25.8725006  13.8435017 107.1509987  26.7995006  13.8435017
  99.4639987  25.4705006  12.9025017 100.4209987  25.4705006  12.9025017
  99.2239987  26.3975006  12.9025017 102.2259987  20.0505006   8.9305017
 103.1829987  20.0505006   8.9305017 101.9859987  20.9775006   8.9305017
 103.4759987  24.3785006  12.5205017 104.4329987  24.3785006  12.5205017
 103.2359987  25.3055006  12.5205017 106.1369987  23.4805006  11.5785017
 107.0939987  23.4805006  11.5785017 105.8969987  24.4075006  11.5785017
 107.7729987  22.1785006  13.5185017 108.7299987  22.1785006  13.5185017
 107.5329987  23.1055006  13.5185017  97.5669987  23.3915006  12.6285017
  98.5239987  23.3915006  12.6285017  97.3269987  24.3185006  12.6285017
 102.4089987  19.4075006  11.6185017 103.3659987  19.4075006  11.6185017
 102.1689987  20.3345006  11.6185017 102.7819987  21.0425006  13.6985017
 103.7389987  21.0425006  13.6985017 102.5419987  21.9695006  13.6985017
 102.2629987  37.9495006 157.4285017 103.2199987  37.9495006 157.4285017
 102.0229987  38.8765006 157.4285017  95.8229987  32.5495006 156.8965017
  96.7799987  32.5495006 156.8965017  95.5829987  33.4765006 156.8965017
  94.5789987  37.9325006   1.3435017  95.5359987  37.9325006   1.3435017
  94.3389987  38.8595006   1.3435017  95.4079987  36.0505006   3.1985017
  96.3649987  36.0505006   3.1985017  95.1679987  36.9775006   3.1985017
  95.4629987  29.1255006   5.6895017  96.4199987  29.1255006   5.6895017
  95.2229987  30.0525006   5.6895017  95.0739987  24.4255006  11.8345017
  96.0309987  24.4255006  11.8345017  94.8339987  25.3525006  11.8345017
  96.2739987  22.7245006   4.6895017  97.2309987  22.7245006   4.6895017
  96.0339987  23.6515006   4.6895017  94.5679987  25.7085006   5.7465017
  95.5249987  25.7085006   5.7465017  94.3279987  26.6355006   5.7465017
  94.9319987  21.9835006 160.3625017  95.8889987  21.9835006 160.3625017
  94.6919987  22.9105006 160.3625017  94.8969987  20.6395006   8.1145017
  95.8539987  20.6395006   8.1145017  94.6569987  21.5665006   8.1145017
  97.1059987  33.8395006  12.2795017  98.0629987  33.8395006  12.2795017
  96.8659987  34.7665006  12.2795017 100.0169987  34.8335006   8.5525017
 100.9739987  34.8335006   8.5525017  99.7769987  35.7605006   8.5525017
 104.3349987  36.2665006  11.4935017 105.2919987  36.2665006  11.4935017
 104.0949987  37.1935006  11.4935017 106.6879987  37.5695006  10.7205017
 107.6449987  37.5695006  10.7205017 106.4479987  38.4965006  10.7205017
  97.4419987  38.0815006   8.5625017  98.3989987  38.0815006   8.5625017
  97.2019987  39.0085006   8.5625017  99.9129987  37.6635006   7.6265017
 100.8699987  37.6635006   7.6265017  99.6729987  38.5905006   7.6265017
 104.5949987  37.5745006   6.7995017 105.5519987  37.5745006   6.7995017
 104.3549987  38.5015006   6.7995017 106.9359987  36.4385006   7.8095017
 107.8929987  36.4385006   7.8095017 106.6959987  37.3655006   7.8095017
  96.8759987  36.7285006   5.4925017  97.8329987  36.7285006   5.4925017
  96.6359987  37.6555006   5.4925017  98.9709987  35.4415006   4.1455017
  99.9279987  35.4415006   4.1455017  98.7309987  36.3685006   4.1455017
 101.5379987  35.9235006   5.0135017 102.4949987  35.9235006   5.0135017
 101.2979987  36.8505006   5.0135017 105.0109987  21.5635006   4.1425017
 105.9679987  21.5635006   4.1425017 104.7709987  22.4905006   4.1425017
  97.3879987  20.2115006   1.9935017  98.3449987  20.2115006   1.9935017
  97.1479987  21.1385006   1.9935017  96.1829987  19.9625006 158.2885017
  97.1399987  19.9625006 158.2885017  95.9429987  20.8895006 158.2885017
 101.9059987  20.1165006   1.7825017 102.8629987  20.1165006   1.7825017
 101.6659987  21.0435006   1.7825017 107.4519987  20.0815006   3.5935017
 108.4089987  20.0815006   3.5935017 107.2119987  21.0085006   3.5935017
  96.0959987  35.9115006 159.2745017  97.0529987  35.9115006 159.2745017
  95.8559987  36.8385006 159.2745017  98.0149987  21.9035006 156.7745017
  98.9719987  21.9035006 156.7745017  97.7749987  22.8305006 156.7745017
 103.0459987  22.1535006 159.1905017 104.0029987  22.1535006 159.1905017
 102.8059987  23.0805006 159.1905017 104.9369987  37.1945006 157.6245017
 105.8939987  37.1945006 157.6245017 104.6969987  38.1215006 157.6245017
  97.2979987  20.7305006  11.4515017  98.2549987  20.7305006  11.4515017
  97.0579987  21.6575006  11.4515017  99.2959987  20.1125006  13.0775017
 100.2529987  20.1125006  13.0775017  99.0559987  21.0395006  13.0775017
  97.8909987  36.8825006 156.2385017  98.8479987  36.8825006 156.2385017
  97.6509987  37.8095006 156.2385017  -0.0900013  19.4755006  13.2675017
   0.8669987  19.4755006  13.2675017  -0.3300013  20.4025006  13.2675017
  12.2019987  48.1965006   1.8835017  13.1589987  48.1965006   1.8835017
  11.9619987  49.1235006   1.8835017  11.0509987  47.4625006   5.3605017
  12.0079987  47.4625006   5.3605017  10.8109987  48.3895006   5.3605017
   3.4769987  47.0915006   6.8995017   4.4339987  47.0915006   6.8995017
   3.2369987  48.0185006   6.8995017  14.7669987  50.3945006   3.6475017
  15.7239987  50.3945006   3.6475017  14.5269987  51.3215006   3.6475017
   4.3399987  51.5615006   5.4495017   5.2969987  51.5615006   5.4495017
   4.0999987  52.4885006   5.4495017   1.0609987  45.2425006   0.8505017
   2.0179987  45.2425006   0.8505017   0.8209987  46.1695006   0.8505017
   1.6879987  47.3295006   3.0315017   2.6449987  47.3295006   3.0315017
   1.4479987  48.2565006   3.0315017  11.8829987  55.5495006   3.8825017
  12.8399987  55.5495006   3.8825017  11.6429987  56.4765006   3.8825017
   9.4479987  49.8685006   5.8105017  10.4049987  49.8685006   5.8105017
   9.2079987  50.7955006   5.8105017  18.0689987  41.5005006   6.5805017
  19.0259987  41.5005006   6.5805017  17.8289987  42.4275006   6.5805017
  12.6529987  44.3315006   6.1325017  13.6099987  44.3315006   6.1325017
  12.4129987  45.2585006   6.1325017   5.6949987  42.4045006   3.3595017
   6.6519987  42.4045006   3.3595017   5.4549987  43.3315006   3.3595017
  13.4799987  42.4925006   1.7265017  14.4369987  42.4925006   1.7265017
  13.2399987  43.4195006   1.7265017   2.5389987  44.8605006   4.0085017
   3.4959987  44.8605006   4.0085017   2.2989987  45.7875006   4.0085017
   7.5179987  46.3775006   3.3905017   8.4749987  46.3775006   3.3905017
   7.2779987  47.3045006   3.3905017  18.5459987  42.9035006   8.8495017
  19.5029987  42.9035006   8.8495017  18.3059987  43.8305006   8.8495017
   4.6039987  41.2975006   7.4265017   5.5609987  41.2975006   7.4265017
   4.3639987  42.2245006   7.4265017  11.9369987  50.7955006   0.9585017
  12.8939987  50.7955006   0.9585017  11.6969987  51.7225006   0.9585017
   7.1549987  48.9555006   7.6695017   8.1119987  48.9555006   7.6695017
   6.9149987  49.8825006   7.6695017  15.2629987  41.8365006   3.7365017
  16.2199987  41.8365006   3.7365017  15.0229987  42.7635006   3.7365017
   4.1999987  43.1615006   5.4315017   5.1569987  43.1615006   5.4315017
   3.9599987  44.0885006   5.4315017   5.5919987  50.9415006   8.4735017
   6.5489987  50.9415006   8.4735017   5.3519987  51.8685006   8.4735017
   1.7049987  50.5965006 159.7855017   2.6619987  50.5965006 159.7855017
   1.4649987  51.5235006 159.7855017  15.2919987  52.2495006   5.9965017
  16.2489987  52.2495006   5.9965017  15.0519987  53.1765006   5.9965017
  15.6119987  40.5245006   7.4135017  16.5689987  40.5245006   7.4135017
  15.3719987  41.4515006   7.4135017   8.5939987  38.5965006   4.8575017
   9.5509987  38.5965006   4.8575017   8.3539987  39.5235006   4.8575017
  13.5459987  54.0195006   2.6175017  14.5029987  54.0195006   2.6175017
  13.3059987  54.9465006   2.6175017  14.7479987  51.9465006   1.1265017
  15.7049987  51.9465006   1.1265017  14.5079987  52.8735006   1.1265017
  16.4099987  50.5365006   9.6575017  17.3669987  50.5365006   9.6575017
  16.1699987  51.4635006   9.6575017  10.8749987  47.4365006 159.9365017
  11.8319987  47.4365006 159.9365017  10.6349987  48.3635006 159.9365017
  10.9349987  45.9715006 156.9455017  11.8919987  45.9715006 156.9455017
  10.6949987  46.8985006 156.9455017  18.3589987  46.8585006   7.6575017
  19.3159987  46.8585006   7.6575017  18.1189987  47.7855006   7.6575017
  14.3099987  47.6505006   0.3075017  15.2669987  47.6505006   0.3075017
  14.0699987  48.5775006   0.3075017  13.5339987  45.6425006   9.7655017
  14.4909987  45.6425006   9.7655017  13.2939987  46.5695006   9.7655017
   5.9519987  48.3215006   2.2205017   6.9089987  48.3215006   2.2205017
   5.7119987  49.2485006   2.2205017   7.2599987  51.7055006   4.8995017
   8.2169987  51.7055006   4.8995017   7.0199987  52.6325006   4.8995017
   6.2679987  47.0785006   5.8685017   7.2249987  47.0785006   5.8685017
   6.0279987  48.0055006   5.8685017  12.6439987  52.6135006   6.5775017
  13.6009987  52.6135006   6.5775017  12.4039987  53.5405006   6.5775017
   7.2049987  51.4715006  10.5755017   8.1619987  51.4715006  10.5755017
   6.9649987  52.3985006  10.5755017  13.1769987  46.8355006 158.5265017
  14.1339987  46.8355006 158.5265017  12.9369987  47.7625006 158.5265017
   4.1249987  47.6435006   9.7665017   5.0819987  47.6435006   9.7665017
   3.8849987  48.5705006   9.7665017  10.8979987  53.5625006   1.4455017
  11.8549987  53.5625006   1.4455017  10.6579987  54.4895006   1.4455017
   5.4409987  53.5215006  11.3315017   6.3979987  53.5215006  11.3315017
   5.2009987  54.4485006  11.3315017  16.9029987  38.5695006 158.3955017
  17.8599987  38.5695006 158.3955017  16.6629987  39.4965006 158.3955017
   4.9259987  47.3465006 160.3795017   5.8829987  47.3465006 160.3795017
   4.6859987  48.2735006 160.3795017  18.0269987  52.9265006 156.7615017
  18.9839987  52.9265006 156.7615017  17.7869987  53.8535006 156.7615017
   1.1249987  49.7295006   8.6535017   2.0819987  49.7295006   8.6535017
   0.8849987  50.6565006   8.6535017   1.0109987  52.6245006   5.2305017
   1.9679987  52.6245006   5.2305017   0.7709987  53.5515006   5.2305017
  18.9889987  53.1925006  11.1925017  19.9459987  53.1925006  11.1925017
  18.7489987  54.1195006  11.1925017   9.9459987  52.7355006  10.0575017
  10.9029987  52.7355006  10.0575017   9.7059987  53.6625006  10.0575017
  10.3799987  56.4845006 160.4045017  11.3369987  56.4845006 160.4045017
  10.1399987  57.4115006 160.4045017   4.0209987  55.3435006   1.6525017
   4.9779987  55.3435006   1.6525017   3.7809987  56.2705006   1.6525017
  13.4449987  55.6895006 157.3875017  14.4019987  55.6895006 157.3875017
  13.2049987  56.6165006 157.3875017  13.1339987  55.6165006 160.1515017
  14.0909987  55.6165006 160.1515017  12.8939987  56.5435006 160.1515017
  16.1209987  44.6675006  11.6735017  17.0779987  44.6675006  11.6735017
  15.8809987  45.5945006  11.6735017   3.2619987  51.1005006   9.6835017
   4.2189987  51.1005006   9.6835017   3.0219987  52.0275006   9.6835017
   5.9179987  39.5085006   5.6545017   6.8749987  39.5085006   5.6545017
   5.6779987  40.4355006   5.6545017  10.5879987  39.2125006   9.0045017
  11.5449987  39.2125006   9.0045017  10.3479987  40.1395006   9.0045017
  13.8799987  43.0095006   9.8765017  14.8369987  43.0095006   9.8765017
  13.6399987  43.9365006   9.8765017  14.6309987  47.8715006 156.2755017
  15.5879987  47.8715006 156.2755017  14.3909987  48.7985006 156.2755017
  10.2349987  41.7815006 156.8385017  11.1919987  41.7815006 156.8385017
   9.9949987  42.7085006 156.8385017   6.0189987  44.5155006   6.8355017
   6.9759987  44.5155006   6.8355017   5.7789987  45.4425006   6.8355017
   5.9759987  44.6895006   1.7075017   6.9329987  44.6895006   1.7075017
   5.7359987  45.6165006   1.7075017  11.5189987  45.1255006   0.5185017
  12.4759987  45.1255006   0.5185017  11.2789987  46.0525006   0.5185017
  10.5929987  45.3425006  11.9635017  11.5499987  45.3425006  11.9635017
  10.3529987  46.2695006  11.9635017  12.5829987  44.6205006   3.3365017
  13.5399987  44.6205006   3.3365017  12.3429987  45.5475006   3.3365017
   3.7029987  44.7795006   8.5855017   4.6599987  44.7795006   8.5855017
   3.4629987  45.7065006   8.5855017   7.0789987  42.1685006 155.9485017
   8.0359987  42.1685006 155.9485017   6.8389987  43.0955006 155.9485017
   0.4279987  41.2015006   2.8565017   1.3849987  41.2015006   2.8565017
   0.1879987  42.1285006   2.8565017   1.7999987  42.6105006 158.5365017
   2.7569987  42.6105006 158.5365017   1.5599987  43.5375006 158.5365017
  11.6789987  46.2215006   7.8785017  12.6359987  46.2215006   7.8785017
  11.4389987  47.1485006   7.8785017   8.5349987  42.1825006   2.5435017
   9.4919987  42.1825006   2.5435017   8.2949987  43.1095006   2.5435017
   3.3919987  43.7265006   1.5975017   4.3489987  43.7265006   1.5975017
   3.1519987  44.6535006   1.5975017   7.0229987  43.7725006 159.7745017
   7.9799987  43.7725006 159.7745017   6.7829987  44.6995006 159.7745017
  12.9849987  41.4015006   5.9985017  13.9419987  41.4015006   5.9985017
  12.7449987  42.3285006   5.9985017   5.7079987  44.9665006 157.3625017
   6.6649987  44.9665006 157.3625017   5.4679987  45.8935006 157.3625017
  16.1869987  57.0595006  12.3095017  17.1439987  57.0595006  12.3095017
  15.9469987  57.9865006  12.3095017   3.8569987  49.5055006  11.8935017
   4.8139987  49.5055006  11.8935017   3.6169987  50.4325006  11.8935017
   9.8879987  44.9755006   4.6565017  10.8449987  44.9755006   4.6565017
   9.6479987  45.9025006   4.6565017   4.8389987  41.0895006   1.0325017
   5.7959987  41.0895006   1.0325017   4.5989987  42.0165006   1.0325017
   8.3779987  43.4045006   7.4755017   9.3349987  43.4045006   7.4755017
   8.1379987  44.3315006   7.4755017   9.0799987  49.5035006 159.2865017
  10.0369987  49.5035006 159.2865017   8.8399987  50.4305006 159.2865017
  16.2179987  49.2995006   7.4095017  17.1749987  49.2995006   7.4095017
  15.9779987  50.2265006   7.4095017  12.9189987  42.3155006 157.4695017
  13.8759987  42.3155006 157.4695017  12.6789987  43.2425006 157.4695017
  10.5459987  49.7465006   9.9855017  11.5029987  49.7465006   9.9855017
  10.3059987  50.6735006   9.9855017  13.6489987  44.2165006 159.1125017
  14.6059987  44.2165006 159.1125017  13.4089987  45.1435006 159.1125017
   4.1829987  48.8765006   4.5445017   5.1399987  48.8765006   4.5445017
   3.9429987  49.8035006   4.5445017  11.1849987  50.9685006 158.3185017
  12.1419987  50.9685006 158.3185017  10.9449987  51.8955006 158.3185017
   1.1629987  47.2945006   9.8245017   2.1199987  47.2945006   9.8245017
   0.9229987  48.2215006   9.8245017   8.1849987  46.8565006  12.0185017
   9.1419987  46.8565006  12.0185017   7.9449987  47.7835006  12.0185017
  12.8629987  52.1755006   9.9255017  13.8199987  52.1755006   9.9255017
  12.6229987  53.1025006   9.9255017  18.5539987  44.3705006 158.8665017
  19.5109987  44.3705006 158.8665017  18.3139987  45.2975006 158.8665017
  18.5459987  50.2545006  11.1515017  19.5029987  50.2545006  11.1515017
  18.3059987  51.1815006  11.1515017  16.8159987  53.1995006 159.2795017
  17.7729987  53.1995006 159.2795017  16.5759987  54.1265006 159.2795017
  14.0249987  48.0355006   5.7645017  14.9819987  48.0355006   5.7645017
  13.7849987  48.9625006   5.7645017   6.5689987  52.3305006   1.9295017
   7.5259987  52.3305006   1.9295017   6.3289987  53.2575006   1.9295017
   2.2869987  47.1755006 157.0715017   3.2439987  47.1755006 157.0715017
   2.0469987  48.1025006 157.0715017   7.9829987  50.0015006   1.4555017
   8.9399987  50.0015006   1.4555017   7.7429987  50.9285006   1.4555017
   8.4319987  54.1815006   7.8465017   9.3889987  54.1815006   7.8465017
   8.1919987  55.1085006   7.8465017   6.6629987  55.0015006   0.9925017
   7.6199987  55.0015006   0.9925017   6.4229987  55.9285006   0.9925017
  11.9619987  50.2065006   7.4815017  12.9189987  50.2065006   7.4815017
  11.7219987  51.1335006   7.4815017  14.2709987  51.2445006 157.1115017
  15.2279987  51.2445006 157.1115017  14.0309987  52.1715006 157.1115017
  14.7439987  54.7775006   9.9815017  15.7009987  54.7775006   9.9815017
  14.5039987  55.7045006   9.9815017  18.7469987  55.6215006 157.3545017
  19.7039987  55.6215006 157.3545017  18.5069987  56.5485006 157.3545017
   2.8069987  42.0305006   9.3725017   3.7639987  42.0305006   9.3725017
   2.5669987  42.9575006   9.3725017  15.0669987  49.8875006 159.3465017
  16.0239987  49.8875006 159.3465017  14.8269987  50.8145006 159.3465017
   2.4749987  53.8295006   7.7775017   3.4319987  53.8295006   7.7775017
   2.2349987  54.7565006   7.7775017   8.3909987  52.3295006 155.5915017
   9.3479987  52.3295006 155.5915017   8.1509987  53.2565006 155.5915017
   7.2229987  51.8615006 158.0455017   8.1799987  51.8615006 158.0455017
   6.9829987  52.7885006 158.0455017   3.6919987  49.0885006 158.5275017
   4.6489987  49.0885006 158.5275017   3.4519987  50.0155006 158.5275017
  11.5719987  41.8005006   8.3105017  12.5289987  41.8005006   8.3105017
  11.3319987  42.7275006   8.3105017  12.3089987  41.3795006 159.9395017
  13.2659987  41.3795006 159.9395017  12.0689987  42.3065006 159.9395017
   9.9969987  53.5315006 158.7665017  10.9539987  53.5315006 158.7665017
   9.7569987  54.4585006 158.7665017   9.5329987  43.1445006   0.1985017
  10.4899987  43.1445006   0.1985017   9.2929987  44.0715006   0.1985017
  10.0959987  44.1585006   9.4295017  11.0529987  44.1585006   9.4295017
   9.8559987  45.0855006   9.4295017  10.3919987  40.1885006   1.1125017
  11.3489987  40.1885006   1.1125017  10.1519987  41.1155006   1.1125017
   7.3789987  54.5675006 158.7765017   8.3359987  54.5675006 158.7765017
   7.1389987  55.4945006 158.7765017   6.0499987  41.2845006 158.3645017
   7.0069987  41.2845006 158.3645017   5.8099987  42.2115006 158.3645017
  16.2769987  42.0145006  10.2595017  17.2339987  42.0145006  10.2595017
  16.0369987  42.9415006  10.2595017  14.8899987  45.7955006   4.2565017
  15.8469987  45.7955006   4.2565017  14.6499987  46.7225006   4.2565017
   4.2919987  51.7285006 157.4115017   5.2489987  51.7285006 157.4115017
   4.0519987  52.6555006 157.4115017   2.5799987  44.4045006 156.5955017
   3.5369987  44.4045006 156.5955017   2.3399987  45.3315006 156.5955017
  15.9439987  55.0565006   5.9475017  16.9009987  55.0565006   5.9475017
  15.7039987  55.9835006   5.9475017   3.4619987  39.1835006   4.7155017
   4.4189987  39.1835006   4.7155017   3.2219987  40.1105006   4.7155017
   2.3869987  53.1135006   0.8905017   3.3439987  53.1135006   0.8905017
   2.1469987  54.0405006   0.8905017   1.7139987  55.6985006  12.1115017
   2.6709987  55.6985006  12.1115017   1.4739987  56.6255006  12.1115017
   6.2699987  54.6605006  13.7925017   7.2269987  54.6605006  13.7925017
   6.0299987  55.5875006  13.7925017  10.3969987  54.1845006 155.7255017
  11.3539987  54.1845006 155.7255017  10.1569987  55.1115006 155.7255017
  12.8019987  53.0505006  12.5265017  13.7589987  53.0505006  12.5265017
  12.5619987  53.9775006  12.5265017  14.9679987  53.9425006 155.9245017
  15.9249987  53.9425006 155.9245017  14.7279987  54.8695006 155.9245017
   1.5089987  49.5385006  13.1665017   2.4659987  49.5385006  13.1665017
   1.2689987  50.4655006  13.1665017   5.8669987  49.8765006 155.7575017
   6.8239987  49.8765006 155.7575017   5.6269987  50.8035006 155.7575017
   8.2309987  49.5155006  12.5615017   9.1879987  49.5155006  12.5615017
   7.9909987  50.4425006  12.5615017  11.2829987  50.9695006 155.5185017
  12.2399987  50.9695006 155.5185017  11.0429987  51.8965006 155.5185017
  13.9149987  49.4105006   9.9915017  14.8719987  49.4105006   9.9915017
  13.6749987  50.3375006   9.9915017   2.3629987  46.7335006  12.5445017
   3.3199987  46.7335006  12.5445017   2.1229987  47.6605006  12.5445017
   7.0649987  47.8835006 158.1445017   8.0219987  47.8835006 158.1445017
   6.8249987  48.8105006 158.1445017   6.3379987  45.7115006   9.9175017
   7.2949987  45.7115006   9.9175017   6.0979987  46.6385006   9.9175017
   8.1329987  46.1055006 156.3655017   9.0899987  46.1055006 156.3655017
   7.8929987  47.0325006 156.3655017  11.3969987  48.2585006  13.2335017
  12.3539987  48.2585006  13.2335017  11.1569987  49.1855006  13.2335017
  17.4899987  48.4365006 155.7955017  18.4469987  48.4365006 155.7955017
  17.2499987  49.3635006 155.7955017   6.7329987  43.0815006  10.9765017
   7.6899987  43.0815006  10.9765017   6.4929987  44.0085006  10.9765017
   7.1209987  41.4395006   8.5225017   8.0779987  41.4395006   8.5225017
   6.8809987  42.3665006   8.5225017   8.6819987  46.9285006   8.7645017
   9.6389987  46.9285006   8.7645017   8.4419987  47.8555006   8.7645017
  13.0819987  44.7125006  13.7425017  14.0389987  44.7125006  13.7425017
  12.8419987  45.6395006  13.7425017  14.4209987  47.5205006  11.9235017
  15.3779987  47.5205006  11.9235017  14.1809987  48.4475006  11.9235017
   5.1809987  44.3335006  12.8935017   6.1379987  44.3335006  12.8935017
   4.9409987  45.2605006  12.8935017   7.9049987  38.8975006   8.9495017
   8.8619987  38.8975006   8.9495017   7.6649987  39.8245006   8.9495017
   9.1889987  43.2265006  12.5285017  10.1459987  43.2265006  12.5285017
   8.9489987  44.1535006  12.5285017  11.9139987  42.3615006  11.5995017
  12.8709987  42.3615006  11.5995017  11.6739987  43.2885006  11.5995017
  13.5109987  40.9905006  13.5445017  14.4679987  40.9905006  13.5445017
  13.2709987  41.9175006  13.5445017   3.3269987  42.2585006  12.6415017
   4.2839987  42.2585006  12.6415017   3.0869987  43.1855006  12.6415017
   8.1359987  38.2695006  11.6145017   9.0929987  38.2695006  11.6145017
   7.8959987  39.1965006  11.6145017   8.5029987  39.9015006  13.7045017
   9.4599987  39.9015006  13.7045017   8.2629987  40.8285006  13.7045017
   7.9809987  56.8025006 157.4275017   8.9379987  56.8025006 157.4275017
   7.7409987  57.7295006 157.4275017   1.5899987  51.4165006 156.8815017
   2.5469987  51.4165006 156.8815017   1.3499987  52.3435006 156.8815017
 108.0929987  56.8405006   1.3585017 109.0499987  56.8405006   1.3585017
 107.8529987  57.7675006   1.3585017   1.5129987  55.0545006   3.3095017
   2.4699987  55.0545006   3.3095017   1.2729987  55.9815006   3.3095017
  18.6619987  55.7035006   6.1485017  19.6189987  55.7035006   6.1485017
  18.4219987  56.6305006   6.1485017  18.2379987  55.2915006   9.0865017
  19.1949987  55.2915006   9.0865017  17.9979987  56.2185006   9.0865017
  16.6829987  51.0325006  13.7475017  17.6399987  51.0325006  13.7475017
  16.4429987  51.9595006  13.7475017  17.9899987  49.3435006 159.7455017
  18.9469987  49.3435006 159.7455017  17.7499987  50.2705006 159.7455017
  18.3639987  47.4145006   1.0705017  19.3209987  47.4145006   1.0705017
  18.1239987  48.3415006   1.0705017  18.1549987  50.1455006   6.0005017
  19.1119987  50.1455006   6.0005017  17.9149987  51.0725006   6.0005017
  16.6659987  53.0255006   8.3355017  17.6229987  53.0255006   8.3355017
  16.4259987  53.9525006   8.3355017  18.6619987  47.2505006 158.0105017
  19.6189987  47.2505006 158.0105017  18.4219987  48.1775006 158.0105017
  17.0279987  44.4895006 156.5335017  17.9849987  44.4895006 156.5335017
  16.7879987  45.4165006 156.5335017  16.1779987  45.8995006   1.6335017
  17.1349987  45.8995006   1.6335017  15.9379987  46.8265006   1.6335017
   1.1829987  47.9705006   5.6975017   2.1399987  47.9705006   5.6975017
   0.9429987  48.8975006   5.6975017  17.0369987  47.8775006  11.4145017
  17.9939987  47.8775006  11.4145017  16.7969987  48.8045006  11.4145017
  18.5399987  45.7595006  11.9855017  19.4969987  45.7595006  11.9855017
  18.2999987  46.6865006  11.9855017  16.2689987  41.9455006 155.6645017
  17.2259987  41.9455006 155.6645017  16.0289987  42.8725006 155.6645017
  15.8369987  43.4815006 160.6145017  16.7939987  43.4815006 160.6145017
  15.5969987  44.4085006 160.6145017  16.4849987  44.0085006   5.5305017
  17.4419987  44.0085006   5.5305017  16.2449987  44.9355006   5.5305017
  16.6249987  44.5095006   8.2425017  17.5819987  44.5095006   8.2425017
  16.3849987  45.4365006   8.2425017   0.8809987  43.2425006  11.7565017
   1.8379987  43.2425006  11.7565017   0.6409987  44.1695006  11.7565017
  18.8129987  38.7965006  13.6745017  19.7699987  38.7965006  13.6745017
  18.5729987  39.7235006  13.6745017  16.5119987  40.7655006   0.1465017
  17.4689987  40.7655006   0.1465017  16.2719987  41.6925006   0.1465017
   2.0859987  41.6005006   4.6875017   3.0429987  41.6005006   4.6875017
   1.8459987  42.5275006   4.6875017   0.8909987  44.5325006   5.9005017
   1.8479987  44.5325006   5.9005017   0.6509987  45.4595006   5.9005017
  18.3439987  40.9015006  12.0275017  19.3009987  40.9015006  12.0275017
  18.1039987  41.8285006  12.0275017  18.3389987  40.8045006 157.2425017
  19.2959987  40.8045006 157.2425017  18.0989987  41.7315006 157.2425017
   0.8919987  40.7775006 160.3745017   1.8489987  40.7775006 160.3745017
   0.6519987  41.7045006 160.3745017  15.3889987  55.7875006   1.7645017
  16.3459987  55.7875006   1.7645017  15.1489987  56.7145006   1.7645017
 108.3279987  39.4895006   8.1475017 109.2849987  39.4895006   8.1475017
 108.0879987  40.4165006   8.1475017   2.8149987  52.7205006  12.2965017
   3.7719987  52.7205006  12.2965017   2.5749987  53.6475006  12.2965017
   5.7349987  53.6915006   8.5555017   6.6919987  53.6915006   8.5555017
   5.4949987  54.6185006   8.5555017  10.0569987  55.1155006  11.4695017
  11.0139987  55.1155006  11.4695017   9.8169987  56.0425006  11.4695017
  12.3549987  56.3855006  10.7585017  13.3119987  56.3855006  10.7585017
  12.1149987  57.3125006  10.7585017  17.3539987  38.9805006   9.8715017
  18.3109987  38.9805006   9.8715017  17.1139987  39.9075006   9.8715017
   3.1499987  56.9475006   8.5855017   4.1069987  56.9475006   8.5855017
   2.9099987  57.8745006   8.5855017   5.6469987  56.5295006   7.6295017
   6.6039987  56.5295006   7.6295017   5.4069987  57.4565006   7.6295017
  10.3349987  56.4275006   6.7935017  11.2919987  56.4275006   6.7935017
  10.0949987  57.3545006   6.7935017  12.6419987  55.2585006   7.7915017
  13.5989987  55.2585006   7.7915017  12.4019987  56.1855006   7.7915017
  15.2219987  56.8245006   8.0495017  16.1789987  56.8245006   8.0495017
  14.9819987  57.7515006   8.0495017   2.6379987  55.6055006   5.5505017
   3.5949987  55.6055006   5.5505017   2.3979987  56.5325006   5.5505017
   4.6819987  54.2955006   4.1455017   5.6389987  54.2955006   4.1455017
   4.4419987  55.2225006   4.1455017   7.2679987  54.7755006   5.0175017
   8.2249987  54.7755006   5.0175017   7.0279987  55.7025006   5.0175017
  10.9189987  40.3405006   4.1225017  11.8759987  40.3405006   4.1225017
  10.6789987  41.2675006   4.1225017  15.8919987  38.4905006   4.2455017
  16.8489987  38.4905006   4.2455017  15.6519987  39.4175006   4.2455017
  17.5709987  39.7085006   2.5275017  18.5279987  39.7085006   2.5275017
  17.3309987  40.6355006   2.5275017   3.1309987  39.0575006   1.9575017
   4.0879987  39.0575006   1.9575017   2.8909987  39.9845006   1.9575017
   1.9409987  38.8145006 158.3425017   2.8979987  38.8145006 158.3425017
   1.7009987  39.7415006 158.3425017   7.6199987  38.9545006   1.7795017
   8.5769987  38.9545006   1.7795017   7.3799987  39.8815006   1.7795017
  13.3239987  38.9885006   3.4225017  14.2809987  38.9885006   3.4225017
  13.0839987  39.9155006   3.4225017  14.5799987  39.0365006 159.6535017
  15.5369987  39.0365006 159.6535017  14.3399987  39.9635006 159.6535017
   1.9219987  54.7825006 159.2685017   2.8789987  54.7825006 159.2685017
   1.6819987  55.7095006 159.2685017   3.7349987  40.7685006 156.7765017
   4.6919987  40.7685006 156.7765017   3.4949987  41.6955006 156.7765017
   8.7599987  41.0135006 159.1895017   9.7169987  41.0135006 159.1895017
   8.5199987  41.9405006 159.1895017  10.6769987  56.0495006 157.6375017
  11.6339987  56.0495006 157.6375017  10.4369987  56.9765006 157.6375017
  17.3899987  55.5755006 160.3395017  18.3469987  55.5755006 160.3395017
  17.1499987  56.5025006 160.3395017   2.9949987  39.5955006  11.4585017
   3.9519987  39.5955006  11.4585017   2.7549987  40.5225006  11.4585017
   5.0109987  38.9735006  13.0745017   5.9679987  38.9735006  13.0745017
   4.7709987  39.9005006  13.0745017   3.5879987  55.7165006 156.2245017
   4.5449987  55.7165006 156.2245017   3.3479987  56.6435006 156.2245017
  13.4189987  38.2725006  13.2385017  14.3759987  38.2725006  13.2385017
  13.1789987  39.1995006  13.2385017  16.6249987  54.3125006  11.8935017
  17.5819987  54.3125006  11.8935017  16.3849987  55.2395006  11.8935017
  31.0559987  48.1935006   1.8845017  32.0129987  48.1935006   1.8845017
  30.8159987  49.1205006   1.8845017  29.9269987  47.4595006   5.3685017
  30.8839987  47.4595006   5.3685017  29.6869987  48.3865006   5.3685017
  22.2839987  47.1135006   6.9215017  23.2409987  47.1135006   6.9215017
  22.0439987  48.0405006   6.9215017  33.6169987  50.4035006   3.6415017
  34.5739987  50.4035006   3.6415017  33.3769987  51.3305006   3.6415017
  23.2119987  51.5645006   5.4455017  24.1689987  51.5645006   5.4455017
  22.9719987  52.4915006   5.4455017  19.8559987  45.1435006   0.9015017
  20.8129987  45.1435006   0.9015017  19.6159987  46.0705006   0.9015017
  20.5509987  47.3575006   3.0355017  21.5079987  47.3575006   3.0355017
  20.3109987  48.2845006   3.0355017  30.7319987  55.5245006   3.8835017
  31.6889987  55.5245006   3.8835017  30.4919987  56.4515006   3.8835017
  28.3039987  49.8675006   5.8115017  29.2609987  49.8675006   5.8115017
  28.0639987  50.7945006   5.8115017  31.4599987  44.3185006   6.1365017
  32.4169987  44.3185006   6.1365017  31.2199987  45.2455006   6.1365017
  24.5929987  42.4065006   3.3705017  25.5499987  42.4065006   3.3705017
  24.3529987  43.3335006   3.3705017  21.2159987  44.8155006   4.1075017
  22.1729987  44.8155006   4.1075017  20.9759987  45.7425006   4.1075017
  26.3769987  46.3715006   3.3955017  27.3339987  46.3715006   3.3955017
  26.1369987  47.2985006   3.3955017  23.4779987  41.3055006   7.4145017
  24.4349987  41.3055006   7.4145017  23.2379987  42.2325006   7.4145017
  30.7929987  50.7935006   0.9585017  31.7499987  50.7935006   0.9585017
  30.5529987  51.7205006   0.9585017  26.0089987  48.9535006   7.6695017
  26.9659987  48.9535006   7.6695017  25.7689987  49.8805006   7.6695017
  34.1309987  41.8495006   3.7255017  35.0879987  41.8495006   3.7255017
  33.8909987  42.7765006   3.7255017  23.0399987  43.1755006   5.4225017
  23.9969987  43.1755006   5.4225017  22.7999987  44.1025006   5.4225017
  24.4479987  50.9445006   8.4805017  25.4049987  50.9445006   8.4805017
  24.2079987  51.8715006   8.4805017  20.5339987  50.5795006 159.8155017
  21.4909987  50.5795006 159.8155017  20.2939987  51.5065006 159.8155017
  34.1459987  52.2415006   6.0095017  35.1029987  52.2415006   6.0095017
  33.9059987  53.1685006   6.0095017  34.5169987  40.5185006   7.4225017
  35.4739987  40.5185006   7.4225017  34.2769987  41.4455006   7.4225017
  27.4479987  38.6345006   4.8745017  28.4049987  38.6345006   4.8745017
  27.2079987  39.5615006   4.8745017  32.4089987  54.0105006   2.6165017
  33.3659987  54.0105006   2.6165017  32.1689987  54.9375006   2.6165017
  33.6039987  51.9465006   1.1255017  34.5609987  51.9465006   1.1255017
  33.3639987  52.8735006   1.1255017  35.2429987  50.5305006   9.6225017
  36.1999987  50.5305006   9.6225017  35.0029987  51.4575006   9.6225017
  29.7299987  47.4375006 159.9365017  30.6869987  47.4375006 159.9365017
  29.4899987  48.3645006 159.9365017  29.7919987  45.9715006 156.9445017
  30.7489987  45.9715006 156.9445017  29.5519987  46.8985006 156.9445017
  33.1689987  47.6525006   0.3055017  34.1259987  47.6525006   0.3055017
  32.9289987  48.5795006   0.3055017  33.0579987  45.8135006   9.4315017
  34.0149987  45.8135006   9.4315017  32.8179987  46.7405006   9.4315017
  24.7859987  48.3085006   2.2205017  25.7429987  48.3085006   2.2205017
  24.5459987  49.2355006   2.2205017  26.1129987  51.7025006   4.9025017
  27.0699987  51.7025006   4.9025017  25.8729987  52.6295006   4.9025017
  25.1229987  47.0495006   5.8715017  26.0799987  47.0495006   5.8715017
  24.8829987  47.9765006   5.8715017  31.5079987  52.6175006   6.5835017
  32.4649987  52.6175006   6.5835017  31.2679987  53.5445006   6.5835017
  26.0629987  51.4725006  10.5745017  27.0199987  51.4725006  10.5745017
  25.8229987  52.3995006  10.5745017  32.0309987  46.8385006 158.5255017
  32.9879987  46.8385006 158.5255017  31.7909987  47.7655006 158.5255017
  22.9969987  47.6405006   9.7515017  23.9539987  47.6405006   9.7515017
  22.7569987  48.5675006   9.7515017  29.7539987  53.5625006   1.4455017
  30.7109987  53.5625006   1.4455017  29.5139987  54.4895006   1.4455017
  24.2969987  53.5045006  11.3235017  25.2539987  53.5045006  11.3235017
  24.0569987  54.4315006  11.3235017  23.7609987  47.3345006 160.3785017
  24.7179987  47.3345006 160.3785017  23.5209987  48.2615006 160.3785017
  36.8829987  52.9265006 156.7615017  37.8399987  52.9265006 156.7615017
  36.6429987  53.8535006 156.7615017  19.8729987  49.7495006   8.6945017
  20.8299987  49.7495006   8.6945017  19.6329987  50.6765006   8.6945017
  19.6059987  52.4945006   5.5055017  20.5629987  52.4945006   5.5055017
  19.3659987  53.4215006   5.5055017  37.8259987  53.1745006  11.1765017
  38.7829987  53.1745006  11.1765017  37.5859987  54.1015006  11.1765017
  28.7989987  52.7455006  10.0455017  29.7559987  52.7455006  10.0455017
  28.5589987  53.6725006  10.0455017  29.2309987  56.4785006 160.3965017
  30.1879987  56.4785006 160.3965017  28.9909987  57.4055006 160.3965017
  22.8769987  55.3495006   1.6685017  23.8339987  55.3495006   1.6685017
  22.6369987  56.2765006   1.6685017  32.2999987  55.6905006 157.3885017
  33.2569987  55.6905006 157.3885017  32.0599987  56.6175006 157.3885017
  31.9889987  55.6145006 160.1515017  32.9459987  55.6145006 160.1515017
  31.7489987  56.5415006 160.1515017  34.9579987  44.6625006  11.7005017
  35.9149987  44.6625006  11.7005017  34.7179987  45.5895006  11.7005017
  22.1249987  51.0725006   9.6695017  23.0819987  51.0725006   9.6695017
  21.8849987  51.9995006   9.6695017  24.7939987  39.5315006   5.6345017
  25.7509987  39.5315006   5.6345017  24.5539987  40.4585006   5.6345017
  29.4389987  39.2175006   9.0015017  30.3959987  39.2175006   9.0015017
  29.1989987  40.1445006   9.0015017  32.7389987  43.0245006   9.8605017
  33.6959987  43.0245006   9.8605017  32.4989987  43.9515006   9.8605017
  33.4849987  47.8735006 156.2745017  34.4419987  47.8735006 156.2745017
  33.2449987  48.8005006 156.2745017  29.0979987  41.7735006 156.8455017
  30.0549987  41.7735006 156.8455017  28.8579987  42.7005006 156.8455017
  24.8929987  44.5005006   6.8445017  25.8499987  44.5005006   6.8445017
  24.6529987  45.4275006   6.8445017  24.8579987  44.6615006   1.7225017
  25.8149987  44.6615006   1.7225017  24.6179987  45.5885006   1.7225017
  30.3829987  45.1335006   0.5125017  31.3399987  45.1335006   0.5125017
  30.1429987  46.0605006   0.5125017  29.4539987  45.3365006  11.9555017
  30.4109987  45.3365006  11.9555017  29.2139987  46.2635006  11.9555017
  31.4059987  44.6045006   3.3435017  32.3629987  44.6045006   3.3435017
  31.1659987  45.5315006   3.3435017  22.5659987  44.7795006   8.5775017
  23.5229987  44.7795006   8.5775017  22.3259987  45.7065006   8.5775017
  25.9239987  42.1705006 155.9555017  26.8809987  42.1705006 155.9555017
  25.6839987  43.0975006 155.9555017  19.1849987  41.8975006   2.5195017
  20.1419987  41.8975006   2.5195017  18.9449987  42.8245006   2.5195017
  20.4589987  42.6105006 158.4375017  21.4159987  42.6105006 158.4375017
  20.2189987  43.5375006 158.4375017  30.6099987  46.2175006   7.9265017
  31.5669987  46.2175006   7.9265017  30.3699987  47.1445006   7.9265017
  27.4259987  42.1725006   2.7435017  28.3829987  42.1725006   2.7435017
  27.1859987  43.0995006   2.7435017  22.2379987  43.7465006   1.6075017
  23.1949987  43.7465006   1.6075017  21.9979987  44.6735006   1.6075017
  25.8829987  43.7725006 159.7765017  26.8399987  43.7725006 159.7765017
  25.6429987  44.6995006 159.7765017  31.8299987  41.3985006   5.9915017
  32.7869987  41.3985006   5.9915017  31.5899987  42.3255006   5.9915017
  24.5749987  44.9615006 157.3705017  25.5319987  44.9615006 157.3705017
  24.3349987  45.8885006 157.3705017  35.0579987  57.0565006  12.3105017
  36.0149987  57.0565006  12.3105017  34.8179987  57.9835006  12.3105017
  22.7119987  49.5215006  11.8805017  23.6689987  49.5215006  11.8805017
  22.4719987  50.4485006  11.8805017  28.7099987  44.9375006   4.6395017
  29.6669987  44.9375006   4.6395017  28.4699987  45.8645006   4.6395017
  23.7209987  41.0845006   1.0745017  24.6779987  41.0845006   1.0745017
  23.4809987  42.0115006   1.0745017  27.3499987  43.2745006   7.0525017
  28.3069987  43.2745006   7.0525017  27.1099987  44.2015006   7.0525017
  27.9399987  49.5035006 159.2865017  28.8969987  49.5035006 159.2865017
  27.6999987  50.4305006 159.2865017  35.0789987  48.7015006   7.5685017
  36.0359987  48.7015006   7.5685017  34.8389987  49.6285006   7.5685017
  31.7779987  42.3315006 157.4475017  32.7349987  42.3315006 157.4475017
  31.5379987  43.2585006 157.4475017  29.4189987  49.7335006   9.9765017
  30.3759987  49.7335006   9.9765017  29.1789987  50.6605006   9.9765017
  32.4929987  44.2315006 159.1225017  33.4499987  44.2315006 159.1225017
  32.2529987  45.1585006 159.1225017  23.0479987  48.8755006   4.5415017
  24.0049987  48.8755006   4.5415017  22.8079987  49.8025006   4.5415017
  30.0419987  50.9665006 158.3185017  30.9989987  50.9665006 158.3185017
  29.8019987  51.8935006 158.3185017  20.0349987  47.2905006   9.8195017
  20.9919987  47.2905006   9.8195017  19.7949987  48.2175006   9.8195017
  27.0459987  46.8465006  12.0095017  28.0029987  46.8465006  12.0095017
  26.8059987  47.7735006  12.0095017  31.7139987  52.1795006   9.9315017
  32.6709987  52.1795006   9.9315017  31.4739987  53.1065006   9.9315017
  37.4089987  44.4125006 158.8635017  38.3659987  44.4125006 158.8635017
  37.1689987  45.3395006 158.8635017  37.3909987  50.2315006  11.1465017
  38.3479987  50.2315006  11.1465017  37.1509987  51.1585006  11.1465017
  35.6719987  53.1995006 159.2795017  36.6289987  53.1995006 159.2795017
  35.4319987  54.1265006 159.2795017  32.8899987  48.0115006   5.8245017
  33.8469987  48.0115006   5.8245017  32.6499987  48.9385006   5.8245017
  25.4139987  52.3375006   1.9295017  26.3709987  52.3375006   1.9295017
  25.1739987  53.2645006   1.9295017  21.1749987  47.1835006 157.0435017
  22.1319987  47.1835006 157.0435017  20.9349987  48.1105006 157.0435017
  26.8369987  50.0015006   1.4565017  27.7939987  50.0015006   1.4565017
  26.5969987  50.9285006   1.4565017  27.2939987  54.1855006   7.8495017
  28.2509987  54.1855006   7.8495017  27.0539987  55.1125006   7.8495017
  25.5129987  55.0075006   1.0005017  26.4699987  55.0075006   1.0005017
  25.2729987  55.9345006   1.0005017  30.8369987  50.2085006   7.4885017
  31.7939987  50.2085006   7.4885017  30.5969987  51.1355006   7.4885017
  33.1199987  51.2555006 157.1135017  34.0769987  51.2555006 157.1135017
  32.8799987  52.1825006 157.1135017  33.5979987  54.7715006   9.9775017
  34.5549987  54.7715006   9.9775017  33.3579987  55.6985006   9.9775017
  37.5999987  55.6235006 157.3535017  38.5569987  55.6235006 157.3535017
  37.3599987  56.5505006 157.3535017  21.6809987  42.0325006   9.3635017
  22.6379987  42.0325006   9.3635017  21.4409987  42.9595006   9.3635017
  33.9289987  49.8845006 159.3415017  34.8859987  49.8845006 159.3415017
  33.6889987  50.8115006 159.3415017  21.3049987  53.8235006   7.7945017
  22.2619987  53.8235006   7.7945017  21.0649987  54.7505006   7.7945017
  27.2469987  52.3295006 155.5915017  28.2039987  52.3295006 155.5915017
  27.0069987  53.2565006 155.5915017  26.0659987  51.8605006 158.0475017
  27.0229987  51.8605006 158.0475017  25.8259987  52.7875006 158.0475017
  22.5799987  49.1065006 158.5385017  23.5369987  49.1065006 158.5385017
  22.3399987  50.0335006 158.5385017  30.4119987  41.7995006   8.3005017
  31.3689987  41.7995006   8.3005017  30.1719987  42.7265006   8.3005017
  31.1139987  41.4295006 159.9555017  32.0709987  41.4295006 159.9555017
  30.8739987  42.3565006 159.9555017  28.8529987  53.5315006 158.7665017
  29.8099987  53.5315006 158.7665017  28.6129987  54.4585006 158.7665017
  28.3769987  43.1455006   0.2195017  29.3339987  43.1455006   0.2195017
  28.1369987  44.0725006   0.2195017  28.9379987  44.1435006   9.4075017
  29.8949987  44.1435006   9.4075017  28.6979987  45.0705006   9.4075017
  29.2149987  40.2145006   1.1225017  30.1719987  40.2145006   1.1225017
  28.9749987  41.1415006   1.1225017  26.2339987  54.5675006 158.7775017
  27.1909987  54.5675006 158.7775017  25.9939987  55.4945006 158.7775017
  24.8989987  41.2845006 158.3655017  25.8559987  41.2845006 158.3655017
  24.6589987  42.2115006 158.3655017  35.1479987  42.0235006  10.2345017
  36.1049987  42.0235006  10.2345017  34.9079987  42.9505006  10.2345017
  33.7039987  45.8215006   4.2745017  34.6609987  45.8215006   4.2745017
  33.4639987  46.7485006   4.2745017  23.1419987  51.7235006 157.4195017
  24.0989987  51.7235006 157.4195017  22.9019987  52.6505006 157.4195017
  21.4839987  44.3935006 156.5495017  22.4409987  44.3935006 156.5495017
  21.2439987  45.3205006 156.5495017  34.8019987  55.0455006   5.9395017
  35.7589987  55.0455006   5.9395017  34.5619987  55.9725006   5.9395017
  22.2989987  39.1845006   4.7305017  23.2559987  39.1845006   4.7305017
  22.0589987  40.1115006   4.7305017  21.2499987  53.1015006   0.8785017
  22.2069987  53.1015006   0.8785017  21.0099987  54.0285006   0.8785017
  20.4709987  55.7535006  12.1805017  21.4279987  55.7535006  12.1805017
  20.2309987  56.6805006  12.1805017  25.1069987  54.6555006  13.7995017
  26.0639987  54.6555006  13.7995017  24.8669987  55.5825006  13.7995017
  29.2529987  54.1845006 155.7255017  30.2099987  54.1845006 155.7255017
  29.0129987  55.1115006 155.7255017  31.6569987  53.0455006  12.5135017
  32.6139987  53.0455006  12.5135017  31.4169987  53.9725006  12.5135017
  33.8239987  53.9425006 155.9245017  34.7809987  53.9425006 155.9245017
  33.5839987  54.8695006 155.9245017  20.3909987  49.5355006  13.1655017
  21.3479987  49.5355006  13.1655017  20.1509987  50.4625006  13.1655017
  24.7219987  49.8765006 155.7575017  25.6789987  49.8765006 155.7575017
  24.4819987  50.8035006 155.7575017  27.0909987  49.5185006  12.5615017
  28.0479987  49.5185006  12.5615017  26.8509987  50.4455006  12.5615017
  30.1389987  50.9695006 155.5185017  31.0959987  50.9695006 155.5185017
  29.8989987  51.8965006 155.5185017  32.7959987  49.3815006   9.9465017
  33.7529987  49.3815006   9.9465017  32.5559987  50.3085006   9.9465017
  21.2849987  46.7565006  12.5545017  22.2419987  46.7565006  12.5545017
  21.0449987  47.6835006  12.5545017  25.9179987  47.8845006 158.1445017
  26.8749987  47.8845006 158.1445017  25.6779987  48.8115006 158.1445017
  25.1939987  45.7105006   9.9175017  26.1509987  45.7105006   9.9175017
  24.9539987  46.6375006   9.9175017  26.9899987  46.1065006 156.3645017
  27.9469987  46.1065006 156.3645017  26.7499987  47.0335006 156.3645017
  30.2499987  48.2505006  13.2355017  31.2069987  48.2505006  13.2355017
  30.0099987  49.1775006  13.2355017  36.3309987  48.4425006 155.7955017
  37.2879987  48.4425006 155.7955017  36.0909987  49.3695006 155.7955017
  25.5859987  43.0875006  10.9765017  26.5429987  43.0875006  10.9765017
  25.3459987  44.0145006  10.9765017  25.9869987  41.4605006   8.5175017
  26.9439987  41.4605006   8.5175017  25.7469987  42.3875006   8.5175017
  27.5359987  46.9305006   8.7655017  28.4929987  46.9305006   8.7655017
  27.2959987  47.8575006   8.7655017  31.9329987  44.7085006  13.7385017
  32.8899987  44.7085006  13.7385017  31.6929987  45.6355006  13.7385017
  33.2719987  47.4845006  11.8695017  34.2289987  47.4845006  11.8695017
  33.0319987  48.4115006  11.8695017  24.0459987  44.3275006  12.8985017
  25.0029987  44.3275006  12.8985017  23.8059987  45.2545006  12.8985017
  26.7789987  38.9025006   8.9245017  27.7359987  38.9025006   8.9245017
  26.5389987  39.8295006   8.9245017  28.0579987  43.2205006  12.5215017
  29.0149987  43.2205006  12.5215017  27.8179987  44.1475006  12.5215017
  30.7659987  42.3675006  11.5925017  31.7229987  42.3675006  11.5925017
  30.5259987  43.2945006  11.5925017  32.3589987  40.9975006  13.5315017
  33.3159987  40.9975006  13.5315017  32.1189987  41.9245006  13.5315017
  22.1419987  42.2525006  12.6325017  23.0989987  42.2525006  12.6325017
  21.9019987  43.1795006  12.6325017  26.9889987  38.2815006  11.6155017
  27.9459987  38.2815006  11.6155017  26.7489987  39.2085006  11.6155017
  27.3529987  39.8955006  13.7055017  28.3099987  39.8955006  13.7055017
  27.1129987  40.8225006  13.7055017  26.8369987  56.8025006 157.4265017
  27.7939987  56.8025006 157.4265017  26.5969987  57.7295006 157.4265017
  20.3989987  51.4055006 156.8965017  21.3559987  51.4055006 156.8965017
  20.1589987  52.3325006 156.8965017  19.1549987  56.7885006   1.3425017
  20.1119987  56.7885006   1.3425017  18.9149987  57.7155006   1.3425017
  19.9829987  54.9055006   3.1975017  20.9399987  54.9055006   3.1975017
  19.7429987  55.8325006   3.1975017  37.5159987  55.7035006   6.1435017
  38.4729987  55.7035006   6.1435017  37.2759987  56.6305006   6.1435017
  37.1349987  55.2985006   9.0825017  38.0919987  55.2985006   9.0825017
  36.8949987  56.2255006   9.0825017  35.5429987  51.0235006  13.7525017
  36.4999987  51.0235006  13.7525017  35.3029987  51.9505006  13.7525017
  36.8439987  49.3615006 159.7565017  37.8009987  49.3615006 159.7565017
  36.6039987  50.2885006 159.7565017  37.2259987  47.4035006   1.0645017
  38.1829987  47.4035006   1.0645017  36.9859987  48.3305006   1.0645017
  36.9749987  50.1275006   6.0485017  37.9319987  50.1275006   6.0485017
  36.7349987  51.0545006   6.0485017  35.5119987  53.0415006   8.3335017
  36.4689987  53.0415006   8.3335017  35.2719987  53.9685006   8.3335017
  37.1999987  47.2075006 158.0955017  38.1569987  47.2075006 158.0955017
  36.9599987  48.1345006 158.0955017  35.8799987  44.4995006 156.5225017
  36.8369987  44.4995006 156.5225017  35.6399987  45.4265006 156.5225017
  35.0109987  45.9235006   1.6355017  35.9679987  45.9235006   1.6355017
  34.7709987  46.8505006   1.6355017  20.0479987  47.9925006   5.6755017
  21.0049987  47.9925006   5.6755017  19.8079987  48.9195006   5.6755017
  35.8839987  47.8705006  11.3315017  36.8409987  47.8705006  11.3315017
  35.6439987  48.7975006  11.3315017  37.3879987  45.7655006  11.9685017
  38.3449987  45.7655006  11.9685017  37.1479987  46.6925006  11.9685017
  35.1119987  41.9525006 155.6575017  36.0689987  41.9525006 155.6575017
  34.8719987  42.8795006 155.6575017  34.7059987  43.4925006 160.6255017
  35.6629987  43.4925006 160.6255017  34.4659987  44.4195006 160.6255017
  35.2689987  44.0955006   5.5335017  36.2259987  44.0955006   5.5335017
  35.0289987  45.0225006   5.5335017  35.3549987  44.7735006   8.2865017
  36.3119987  44.7735006   8.2865017  35.1149987  45.7005006   8.2865017
  19.6509987  43.2815006  11.8355017  20.6079987  43.2815006  11.8355017
  19.4109987  44.2085006  11.8355017  37.6839987  38.7995006  13.6865017
  38.6409987  38.7995006  13.6865017  37.4439987  39.7265006  13.6865017
  20.8559987  41.5705006   4.6955017  21.8129987  41.5705006   4.6955017
  20.6159987  42.4975006   4.6955017  19.1559987  44.5535006   5.7405017
  20.1129987  44.5535006   5.7405017  18.9159987  45.4805006   5.7405017
  37.2019987  40.8395006  12.0325017  38.1589987  40.8395006  12.0325017
  36.9619987  41.7665006  12.0325017  37.1889987  40.8605006 157.1615017
  38.1459987  40.8605006 157.1615017  36.9489987  41.7875006 157.1615017
  19.5079987  40.8395006 160.3625017  20.4649987  40.8395006 160.3625017
  19.2679987  41.7665006 160.3625017  34.2359987  55.7965006   1.7595017
  35.1929987  55.7965006   1.7595017  33.9959987  56.7235006   1.7595017
  19.4639987  39.4915006   8.1175017  20.4209987  39.4915006   8.1175017
  19.2239987  40.4185006   8.1175017  21.6819987  52.6955006  12.2795017
  22.6389987  52.6955006  12.2795017  21.4419987  53.6225006  12.2795017
  24.5889987  53.6885006   8.5545017  25.5459987  53.6885006   8.5545017
  24.3489987  54.6155006   8.5545017  28.9259987  55.1255006  11.4675017
  29.8829987  55.1255006  11.4675017  28.6859987  56.0525006  11.4675017
  36.1649987  38.9665006   9.8685017  37.1219987  38.9665006   9.8685017
  35.9249987  39.8935006   9.8685017  22.0189987  56.9365006   8.5625017
  22.9759987  56.9365006   8.5625017  21.7789987  57.8635006   8.5625017
  24.4899987  56.5195006   7.6265017  25.4469987  56.5195006   7.6265017
  24.2499987  57.4465006   7.6265017  29.1749987  56.4305006   6.8015017
  30.1319987  56.4305006   6.8015017  28.9349987  57.3575006   6.8015017
  31.4779987  55.2795006   7.8345017  32.4349987  55.2795006   7.8345017
  31.2379987  56.2065006   7.8345017  34.0759987  56.8425006   8.0585017
  35.0329987  56.8425006   8.0585017  33.8359987  57.7695006   8.0585017
  21.4539987  55.5845006   5.4935017  22.4109987  55.5845006   5.4935017
  21.2139987  56.5115006   5.4935017  23.5479987  54.2975006   4.1455017
  24.5049987  54.2975006   4.1455017  23.3079987  55.2245006   4.1455017
  26.1339987  54.7785006   5.0155017  27.0909987  54.7785006   5.0155017
  25.8939987  55.7055006   5.0155017  29.5959987  40.4365006   4.1635017
  30.5529987  40.4365006   4.1635017  29.3559987  41.3635006   4.1635017
  21.9699987  39.0615006   1.9995017  22.9269987  39.0615006   1.9995017
  21.7299987  39.9885006   1.9995017  20.7589987  38.8175006 158.2885017
  21.7159987  38.8175006 158.2885017  20.5189987  39.7445006 158.2885017
  26.4599987  38.9895006   1.7935017  27.4169987  38.9895006   1.7935017
  26.2199987  39.9165006   1.7935017  32.0829987  39.0075006   3.4345017
  33.0399987  39.0075006   3.4345017  31.8429987  39.9345006   3.4345017
  20.6719987  54.7675006 159.2745017  21.6289987  54.7675006 159.2745017
  20.4319987  55.6945006 159.2745017  22.5909987  40.7595006 156.7745017
  23.5479987  40.7595006 156.7745017  22.3509987  41.6865006 156.7745017
  27.5909987  41.0215006 159.1915017  28.5479987  41.0215006 159.1915017
  27.3509987  41.9485006 159.1915017  29.5329987  56.0505006 157.6395017
  30.4899987  56.0505006 157.6395017  29.2929987  56.9775006 157.6395017
  36.2469987  55.5755006 160.3395017  37.2039987  55.5755006 160.3395017
  36.0069987  56.5025006 160.3395017  21.8679987  39.5935006  11.4635017
  22.8249987  39.5935006  11.4635017  21.6279987  40.5205006  11.4635017
  23.8709987  38.9635006  13.0765017  24.8279987  38.9635006  13.0765017
  23.6309987  39.8905006  13.0765017  22.4669987  55.7385006 156.2385017
  23.4239987  55.7385006 156.2385017  22.2269987  56.6655006 156.2385017
  32.2929987  38.2785006  13.2425017  33.2499987  38.2785006  13.2425017
  32.0529987  39.2055006  13.2425017  35.4699987  54.3015006  11.9045017
  36.4269987  54.3015006  11.9045017  35.2299987  55.2285006  11.9045017
  49.9139987  48.1955006   1.8835017  50.8709987  48.1955006   1.8835017
  49.6739987  49.1225006   1.8835017  48.7849987  47.4615006   5.3685017
  49.7419987  47.4615006   5.3685017  48.5449987  48.3885006   5.3685017
  41.1489987  47.1265006   6.9315017  42.1059987  47.1265006   6.9315017
  40.9089987  48.0535006   6.9315017  52.4829987  50.3995006   3.6465017
  53.4399987  50.3995006   3.6465017  52.2429987  51.3265006   3.6465017
  42.0669987  51.5635006   5.4445017  43.0239987  51.5635006   5.4445017
  41.8269987  52.4905006   5.4445017  38.7139987  45.1185006   0.9105017
  39.6709987  45.1185006   0.9105017  38.4739987  46.0455006   0.9105017
  39.3989987  47.3605006   3.0275017  40.3559987  47.3605006   3.0275017
  39.1589987  48.2875006   3.0275017  49.5949987  55.5495006   3.8825017
  50.5519987  55.5495006   3.8825017  49.3549987  56.4765006   3.8825017
  47.1599987  49.8665006   5.8115017  48.1169987  49.8665006   5.8115017
  46.9199987  50.7935006   5.8115017  55.7809987  41.5005006   6.5795017
  56.7379987  41.5005006   6.5795017  55.5409987  42.4275006   6.5795017
  50.3249987  44.3195006   6.1375017  51.2819987  44.3195006   6.1375017
  50.0849987  45.2465006   6.1375017  43.4909987  42.4065006   3.3455017
  44.4479987  42.4065006   3.3455017  43.2509987  43.3335006   3.3455017
  51.1779987  42.4965006   1.7415017  52.1349987  42.4965006   1.7415017
  50.9379987  43.4235006   1.7415017  40.1389987  44.8775006   4.0945017
  41.0959987  44.8775006   4.0945017  39.8989987  45.8045006   4.0945017
  45.2349987  46.3725006   3.4075017  46.1919987  46.3725006   3.4075017
  44.9949987  47.2995006   3.4075017  56.2099987  42.9245006   8.8495017
  57.1669987  42.9245006   8.8495017  55.9699987  43.8515006   8.8495017
  42.3419987  41.3225006   7.4245017  43.2989987  41.3225006   7.4245017
  42.1019987  42.2495006   7.4245017  49.6489987  50.7955006   0.9585017
  50.6059987  50.7955006   0.9585017  49.4089987  51.7225006   0.9585017
  44.8649987  48.9545006   7.6735017  45.8219987  48.9545006   7.6735017
  44.6249987  49.8815006   7.6735017  52.9729987  41.8315006   3.7295017
  53.9299987  41.8315006   3.7295017  52.7329987  42.7585006   3.7295017
  43.3059987  50.9455006   8.4835017  44.2629987  50.9455006   8.4835017
  43.0659987  51.8725006   8.4835017  39.3719987  50.5905006 159.8295017
  40.3289987  50.5905006 159.8295017  39.1319987  51.5175006 159.8295017
  53.0059987  52.2345006   6.0155017  53.9629987  52.2345006   6.0155017
  52.7659987  53.1615006   6.0155017  53.3209987  40.5225006   7.4135017
  54.2779987  40.5225006   7.4135017  53.0809987  41.4495006   7.4135017
  46.3169987  38.6385006   4.8585017  47.2739987  38.6385006   4.8585017
  46.0769987  39.5655006   4.8585017  51.2589987  54.0195006   2.6185017
  52.2159987  54.0195006   2.6185017  51.0189987  54.9465006   2.6185017
  52.4599987  51.9465006   1.1255017  53.4169987  51.9465006   1.1255017
  52.2199987  52.8735006   1.1255017  54.0959987  50.5275006   9.6205017
  55.0529987  50.5275006   9.6205017  53.8559987  51.4545006   9.6205017
  48.5829987  47.4405006 159.9335017  49.5399987  47.4405006 159.9335017
  48.3429987  48.3675006 159.9335017  48.6469987  45.9715006 156.9435017
  49.6039987  45.9715006 156.9435017  48.4069987  46.8985006 156.9435017
  55.9709987  46.8405006   7.6735017  56.9279987  46.8405006   7.6735017
  55.7309987  47.7675006   7.6735017  52.0239987  47.6515006   0.3065017
  52.9809987  47.6515006   0.3065017  51.7839987  48.5785006   0.3065017
  51.9469987  45.8115006   9.4155017  52.9039987  45.8115006   9.4155017
  51.7069987  46.7385006   9.4155017  43.6459987  48.3155006   2.2155017
  44.6029987  48.3155006   2.2155017  43.4059987  49.2425006   2.2155017
  44.9699987  51.7055006   4.9035017  45.9269987  51.7055006   4.9035017
  44.7299987  52.6325006   4.9035017  43.9939987  47.0665006   5.8675017
  44.9509987  47.0665006   5.8675017  43.7539987  47.9935006   5.8675017
  50.3659987  52.6125006   6.5795017  51.3229987  52.6125006   6.5795017
  50.1259987  53.5395006   6.5795017  44.9149987  51.4795006  10.5795017
  45.8719987  51.4795006  10.5795017  44.6749987  52.4065006  10.5795017
  50.8889987  46.8355006 158.5265017  51.8459987  46.8355006 158.5265017
  50.6489987  47.7625006 158.5265017  41.8719987  47.6725006   9.7535017
  42.8289987  47.6725006   9.7535017  41.6319987  48.5995006   9.7535017
  48.6099987  53.5625006   1.4455017  49.5669987  53.5625006   1.4455017
  48.3699987  54.4895006   1.4455017  43.1539987  53.5245006  11.3225017
  44.1109987  53.5245006  11.3225017  42.9139987  54.4515006  11.3225017
  54.6149987  38.5695006 158.3965017  55.5719987  38.5695006 158.3965017
  54.3749987  39.4965006 158.3965017  42.6119987  47.3465006 160.4095017
  43.5689987  47.3465006 160.4095017  42.3719987  48.2735006 160.4095017
  55.7389987  52.9265006 156.7615017  56.6959987  52.9265006 156.7615017
  55.4989987  53.8535006 156.7615017  38.7109987  49.7525006   8.7075017
  39.6679987  49.7525006   8.7075017  38.4709987  50.6795006   8.7075017
  38.4679987  52.5075006   5.4955017  39.4249987  52.5075006   5.4955017
  38.2279987  53.4345006   5.4955017  56.7009987  53.1915006  11.1935017
  57.6579987  53.1915006  11.1935017  56.4609987  54.1185006  11.1935017
  47.6579987  52.7365006  10.0575017  48.6149987  52.7365006  10.0575017
  47.4179987  53.6635006  10.0575017  48.0919987  56.4845006 160.4045017
  49.0489987  56.4845006 160.4045017  47.8519987  57.4115006 160.4045017
  41.7329987  55.3515006   1.6705017  42.6899987  55.3515006   1.6705017
  41.4929987  56.2785006   1.6705017  51.1429987  55.6835006 157.3905017
  52.0999987  55.6835006 157.3905017  50.9029987  56.6105006 157.3905017
  50.8459987  55.6165006 160.1515017  51.8029987  55.6165006 160.1515017
  50.6059987  56.5435006 160.1515017  53.8359987  44.6545006  11.6735017
  54.7929987  44.6545006  11.6735017  53.5959987  45.5815006  11.6735017
  40.9809987  51.0855006   9.6755017  41.9379987  51.0855006   9.6755017
  40.7409987  52.0125006   9.6755017  48.2709987  39.2105006   9.0015017
  49.2279987  39.2105006   9.0015017  48.0309987  40.1375006   9.0015017
  51.6039987  43.0485006   9.8805017  52.5609987  43.0485006   9.8805017
  51.3639987  43.9755006   9.8805017  52.3429987  47.8715006 156.2755017
  53.2999987  47.8715006 156.2755017  52.1029987  48.7985006 156.2755017
  47.9459987  41.7815006 156.8415017  48.9029987  41.7815006 156.8415017
  47.7059987  42.7085006 156.8415017  43.7789987  44.5135006   6.8615017
  44.7359987  44.5135006   6.8615017  43.5389987  45.4405006   6.8615017
  43.7159987  44.6625006   1.7215017  44.6729987  44.6625006   1.7215017
  43.4759987  45.5895006   1.7215017  49.2379987  45.1345006   0.5125017
  50.1949987  45.1345006   0.5125017  48.9979987  46.0615006   0.5125017
  48.3109987  45.3295006  11.9435017  49.2679987  45.3295006  11.9435017
  48.0709987  46.2565006  11.9435017  50.2659987  44.6115006   3.3445017
  51.2229987  44.6115006   3.3445017  50.0259987  45.5385006   3.3445017
  44.7899987  42.1525006 155.9355017  45.7469987  42.1525006 155.9355017
  44.5499987  43.0795006 155.9355017  39.3439987  42.6225006 158.4375017
  40.3009987  42.6225006 158.4375017  39.1039987  43.5495006 158.4375017
  49.4929987  46.2155006   7.9355017  50.4499987  46.2155006   7.9355017
  49.2529987  47.1425006   7.9355017  46.2809987  42.1655006   2.7505017
  47.2379987  42.1655006   2.7505017  46.0409987  43.0925006   2.7505017
  41.1019987  43.7365006   1.6165017  42.0589987  43.7365006   1.6165017
  40.8619987  44.6635006   1.6165017  44.7429987  43.7745006 159.7885017
  45.6999987  43.7745006 159.7885017  44.5029987  44.7015006 159.7885017
  50.6859987  41.4085006   5.9935017  51.6429987  41.4085006   5.9935017
  50.4459987  42.3355006   5.9935017  43.4859987  44.8545006 157.4105017
  44.4429987  44.8545006 157.4105017  43.2459987  45.7815006 157.4105017
  53.8989987  57.0595006  12.3095017  54.8559987  57.0595006  12.3095017
  53.6589987  57.9865006  12.3095017  41.5659987  49.5175006  11.8765017
  42.5229987  49.5175006  11.8765017  41.3259987  50.4445006  11.8765017
  47.5749987  44.9405006   4.6475017  48.5319987  44.9405006   4.6475017
  47.3349987  45.8675006   4.6475017  46.2229987  43.3055006   7.0365017
  47.1799987  43.3055006   7.0365017  45.9829987  44.2325006   7.0365017
  46.7869987  49.4985006 159.2825017  47.7439987  49.4985006 159.2825017
  46.5469987  50.4255006 159.2825017  53.9549987  48.6785006   7.5515017
  54.9119987  48.6785006   7.5515017  53.7149987  49.6055006   7.5515017
  50.6309987  42.3155006 157.4685017  51.5879987  42.3155006 157.4685017
  50.3909987  43.2425006 157.4685017  48.2789987  49.7415006   9.9865017
  49.2359987  49.7415006   9.9865017  48.0389987  50.6685006   9.9865017
  51.3599987  44.2175006 159.1125017  52.3169987  44.2175006 159.1125017
  51.1199987  45.1445006 159.1125017  41.9019987  48.8545006   4.5545017
  42.8589987  48.8545006   4.5545017  41.6619987  49.7815006   4.5545017
  48.9019987  50.9665006 158.3215017  49.8589987  50.9665006 158.3215017
  48.6619987  51.8935006 158.3215017  38.8539987  47.2985006   9.8225017
  39.8109987  47.2985006   9.8225017  38.6139987  48.2255006   9.8225017
  45.9029987  46.8475006  12.0095017  46.8599987  46.8475006  12.0095017
  45.6629987  47.7745006  12.0095017  50.5719987  52.1775006   9.9295017
  51.5289987  52.1775006   9.9295017  50.3319987  53.1045006   9.9295017
  56.2659987  44.3705006 158.8665017  57.2229987  44.3705006 158.8665017
  56.0259987  45.2975006 158.8665017  56.2399987  50.2305006  11.1475017
  57.1969987  50.2305006  11.1475017  55.9999987  51.1575006  11.1475017
  54.5279987  53.1995006 159.2785017  55.4849987  53.1995006 159.2785017
  54.2879987  54.1265006 159.2785017  51.7459987  48.0135006   5.8245017
  52.7029987  48.0135006   5.8245017  51.5059987  48.9405006   5.8245017
  44.2699987  52.3375006   1.9305017  45.2269987  52.3375006   1.9305017
  44.0299987  53.2645006   1.9305017  39.6809987  47.1135006 157.6275017
  40.6379987  47.1135006 157.6275017  39.4409987  48.0405006 157.6275017
  45.6939987  50.0025006   1.4565017  46.6509987  50.0025006   1.4565017
  45.4539987  50.9295006   1.4565017  46.1469987  54.1795006   7.8465017
  47.1039987  54.1795006   7.8465017  45.9069987  55.1065006   7.8465017
  44.3649987  55.0045006   0.9945017  45.3219987  55.0045006   0.9945017
  44.1249987  55.9315006   0.9945017  49.6859987  50.2095006   7.4815017
  50.6429987  50.2095006   7.4815017  49.4459987  51.1365006   7.4815017
  51.9839987  51.2445006 157.1115017  52.9409987  51.2445006 157.1115017
  51.7439987  52.1715006 157.1115017  52.4569987  54.7795006   9.9825017
  53.4139987  54.7795006   9.9825017  52.2169987  55.7065006   9.9825017
  56.4669987  55.6225006 157.3605017  57.4239987  55.6225006 157.3605017
  56.2269987  56.5495006 157.3605017  40.5569987  41.9665006   9.4025017
  41.5139987  41.9665006   9.4025017  40.3169987  42.8935006   9.4025017
  52.7769987  49.8875006 159.3465017  53.7339987  49.8875006 159.3465017
  52.5369987  50.8145006 159.3465017  40.1669987  53.8335006   7.7985017
  41.1239987  53.8335006   7.7985017  39.9269987  54.7605006   7.7985017
  46.1019987  52.3285006 155.5925017  47.0589987  52.3285006 155.5925017
  45.8619987  53.2555006 155.5925017  44.9459987  51.8775006 158.0485017
  45.9029987  51.8775006 158.0485017  44.7059987  52.8045006 158.0485017
  41.4689987  49.1295006 158.6235017  42.4259987  49.1295006 158.6235017
  41.2289987  50.0565006 158.6235017  49.2589987  41.7875006   8.3065017
  50.2159987  41.7875006   8.3065017  49.0189987  42.7145006   8.3065017
  50.0249987  41.3795006 159.9385017  50.9819987  41.3795006 159.9385017
  49.7849987  42.3065006 159.9385017  47.7099987  53.5325006 158.7665017
  48.6669987  53.5325006 158.7665017  47.4699987  54.4595006 158.7665017
  47.2399987  43.1345006   0.2225017  48.1969987  43.1345006   0.2225017
  46.9999987  44.0615006   0.2225017  47.7889987  44.1335006   9.4035017
  48.7459987  44.1335006   9.4035017  47.5489987  45.0605006   9.4035017
  48.1049987  40.1905006   1.1255017  49.0619987  40.1905006   1.1255017
  47.8649987  41.1175006   1.1255017  45.0909987  54.5685006 158.7785017
  46.0479987  54.5685006 158.7785017  44.8509987  55.4955006 158.7785017
  43.7659987  41.2975006 158.3495017  44.7229987  41.2975006 158.3495017
  43.5259987  42.2245006 158.3495017  53.9869987  42.0195006  10.2655017
  54.9439987  42.0195006  10.2655017  53.7469987  42.9465006  10.2655017
  52.5889987  45.8045006   4.2865017  53.5459987  45.8045006   4.2865017
  52.3489987  46.7315006   4.2865017  41.9999987  51.7415006 157.4195017
  42.9569987  51.7415006 157.4195017  41.7599987  52.6685006 157.4195017
  40.3299987  44.3745006 156.5465017  41.2869987  44.3745006 156.5465017
  40.0899987  45.3015006 156.5465017  53.6549987  55.0515006   5.9485017
  54.6119987  55.0515006   5.9485017  53.4149987  55.9785006   5.9485017
  40.1069987  53.1025006   0.8785017  41.0639987  53.1025006   0.8785017
  39.8669987  54.0295006   0.8785017  43.9959987  54.6515006  13.7925017
  44.9529987  54.6515006  13.7925017  43.7559987  55.5785006  13.7925017
  48.1089987  54.1845006 155.7255017  49.0659987  54.1845006 155.7255017
  47.8689987  55.1115006 155.7255017  50.5139987  53.0485006  12.5275017
  51.4709987  53.0485006  12.5275017  50.2739987  53.9755006  12.5275017
  52.6799987  53.9425006 155.9245017  53.6369987  53.9425006 155.9245017
  52.4399987  54.8695006 155.9245017  39.2489987  49.5275006  13.1705017
  40.2059987  49.5275006  13.1705017  39.0089987  50.4545006  13.1705017
  43.6389987  49.9415006 155.7905017  44.5959987  49.9415006 155.7905017
  43.3989987  50.8685006 155.7905017  45.9439987  49.5145006  12.5625017
  46.9009987  49.5145006  12.5625017  45.7039987  50.4415006  12.5625017
  48.9959987  50.9695006 155.5185017  49.9529987  50.9695006 155.5185017
  48.7559987  51.8965006 155.5185017  51.6469987  49.3845006   9.9475017
  52.6039987  49.3845006   9.9475017  51.4069987  50.3115006   9.9475017
  40.1079987  46.7515006  12.5295017  41.0649987  46.7515006  12.5295017
  39.8679987  47.6785006  12.5295017  44.8279987  47.8835006 158.1725017
  45.7849987  47.8835006 158.1725017  44.5879987  48.8105006 158.1725017
  44.0539987  45.7115006   9.9135017  45.0109987  45.7115006   9.9135017
  43.8139987  46.6385006   9.9135017  45.8469987  46.0945006 156.3705017
  46.8039987  46.0945006 156.3705017  45.6069987  47.0215006 156.3705017
  49.1069987  48.2565006  13.2275017  50.0639987  48.2565006  13.2275017
  48.8669987  49.1835006  13.2275017  55.2019987  48.4365006 155.7955017
  56.1589987  48.4365006 155.7955017  54.9619987  49.3635006 155.7955017
  44.4699987  43.1005006  11.0125017  45.4269987  43.1005006  11.0125017
  44.2299987  44.0275006  11.0125017  44.8609987  41.4755006   8.5375017
  45.8179987  41.4755006   8.5375017  44.6209987  42.4025006   8.5375017
  46.3909987  46.9315006   8.7655017  47.3479987  46.9315006   8.7655017
  46.1509987  47.8585006   8.7655017  50.7899987  44.7065006  13.7215017
  51.7469987  44.7065006  13.7215017  50.5499987  45.6335006  13.7215017
  52.1199987  47.4925006  11.8685017  53.0769987  47.4925006  11.8685017
  51.8799987  48.4195006  11.8685017  42.8929987  44.3095006  12.9155017
  43.8499987  44.3095006  12.9155017  42.6529987  45.2365006  12.9155017
  46.9039987  43.2095006  12.5125017  47.8609987  43.2095006  12.5125017
  46.6639987  44.1365006  12.5125017  49.6359987  42.3525006  11.6085017
  50.5929987  42.3525006  11.6085017  49.3959987  43.2795006  11.6085017
  40.9839987  42.2125006  12.6265017  41.9409987  42.2125006  12.6265017
  40.7439987  43.1395006  12.6265017  45.8379987  38.2505006  11.5905017
  46.7949987  38.2505006  11.5905017  45.5979987  39.1775006  11.5905017
  46.2039987  39.9115006  13.6765017  47.1609987  39.9115006  13.6765017
  45.9639987  40.8385006  13.6765017  45.6929987  56.8025006 157.4275017
  46.6499987  56.8025006 157.4275017  45.4529987  57.7295006 157.4275017
  39.2529987  51.4175006 156.8885017  40.2099987  51.4175006 156.8885017
  39.0129987  52.3445006 156.8885017  38.0139987  56.7875006   1.3375017
  38.9709987  56.7875006   1.3375017  37.7739987  57.7145006   1.3375017
  38.8389987  54.9055006   3.1975017  39.7959987  54.9055006   3.1975017
  38.5989987  55.8325006   3.1975017  56.3739987  55.7035006   6.1485017
  57.3309987  55.7035006   6.1485017  56.1339987  56.6305006   6.1485017
  55.9489987  55.3005006   9.0915017  56.9059987  55.3005006   9.0915017
  55.7089987  56.2275006   9.0915017  54.3949987  51.0315006  13.7475017
  55.3519987  51.0315006  13.7475017  54.1549987  51.9585006  13.7475017
  55.7019987  49.3435006 159.7455017  56.6589987  49.3435006 159.7455017
  55.4619987  50.2705006 159.7455017  56.0759987  47.4145006   1.0705017
  57.0329987  47.4145006   1.0705017  55.8359987  48.3415006   1.0705017
  55.8319987  50.1305006   6.0525017  56.7889987  50.1305006   6.0525017
  55.5919987  51.0575006   6.0525017  54.3779987  53.0275006   8.3345017
  55.3349987  53.0275006   8.3345017  54.1379987  53.9545006   8.3345017
  56.3739987  47.2505006 158.0105017  57.3309987  47.2505006 158.0105017
  56.1339987  48.1775006 158.0105017  54.7399987  44.4885006 156.5325017
  55.6969987  44.4885006 156.5325017  54.4999987  45.4155006 156.5325017
  53.8889987  45.8995006   1.6345017  54.8459987  45.8995006   1.6345017
  53.6489987  46.8265006   1.6345017  38.9149987  48.0705006   5.6685017
  39.8719987  48.0705006   5.6685017  38.6749987  48.9975006   5.6685017
  54.7399987  47.8705006  11.3135017  55.6969987  47.8705006  11.3135017
  54.4999987  48.7975006  11.3135017  56.2469987  45.7585006  11.9815017
  57.2039987  45.7585006  11.9815017  56.0069987  46.6855006  11.9815017
  53.9809987  41.9455006 155.6645017  54.9379987  41.9455006 155.6645017
  53.7409987  42.8725006 155.6645017  53.5489987  43.4825006 160.6145017
  54.5059987  43.4825006 160.6145017  53.3089987  44.4095006 160.6145017
  54.1949987  44.0245006   5.5395017  55.1519987  44.0245006   5.5395017
  53.9549987  44.9515006   5.5395017  54.2609987  44.7545006   8.3265017
  55.2179987  44.7545006   8.3265017  54.0209987  45.6815006   8.3265017
  38.5069987  43.2935006  11.8485017  39.4639987  43.2935006  11.8485017
  38.2669987  44.2205006  11.8485017  56.5149987  38.8015006  13.6735017
  57.4719987  38.8015006  13.6735017  56.2749987  39.7285006  13.6735017
  54.2129987  40.7695006   0.1465017  55.1699987  40.7695006   0.1465017
  53.9729987  41.6965006   0.1465017  56.0469987  40.9075006  12.0285017
  57.0039987  40.9075006  12.0285017  55.8069987  41.8345006  12.0285017
  56.0509987  40.8045006 157.2425017  57.0079987  40.8045006 157.2425017
  55.8109987  41.7315006 157.2425017  53.1009987  55.7865006   1.7655017
  54.0579987  55.7865006   1.7655017  52.8609987  56.7135006   1.7655017
  40.5329987  52.7075006  12.2795017  41.4899987  52.7075006  12.2795017
  40.2929987  53.6345006  12.2795017  43.4439987  53.6825006   8.5405017
  44.4009987  53.6825006   8.5405017  43.2039987  54.6095006   8.5405017
  47.7609987  55.1185006  11.4725017  48.7179987  55.1185006  11.4725017
  47.5209987  56.0455006  11.4725017  50.0669987  56.3845006  10.7585017
  51.0239987  56.3845006  10.7585017  49.8269987  57.3115006  10.7585017
  55.0659987  39.0035006   9.8625017  56.0229987  39.0035006   9.8625017
  54.8259987  39.9305006   9.8625017  40.8809987  56.9575006   8.5595017
  41.8379987  56.9575006   8.5595017  40.6409987  57.8845006   8.5595017
  43.3459987  56.5205006   7.6245017  44.3029987  56.5205006   7.6245017
  43.1059987  57.4475006   7.6245017  48.0469987  56.4305006   6.7945017
  49.0039987  56.4305006   6.7945017  47.8069987  57.3575006   6.7945017
  50.3539987  55.2585006   7.7915017  51.3109987  55.2585006   7.7915017
  50.1139987  56.1855006   7.7915017  52.9349987  56.8255006   8.0495017
  53.8919987  56.8255006   8.0495017  52.6949987  57.7525006   8.0495017
  40.3099987  55.5855006   5.4905017  41.2669987  55.5855006   5.4905017
  40.0699987  56.5125006   5.4905017  42.4049987  54.2975006   4.1455017
  43.3619987  54.2975006   4.1455017  42.1649987  55.2245006   4.1455017
  44.9929987  54.7805006   5.0165017  45.9499987  54.7805006   5.0165017
  44.7529987  55.7075006   5.0165017  48.4709987  40.4285006   4.1575017
  49.4279987  40.4285006   4.1575017  48.2309987  41.3555006   4.1575017
  53.6009987  38.4905006   4.2445017  54.5579987  38.4905006   4.2445017
  53.3609987  39.4175006   4.2445017  55.2799987  39.7095006   2.5305017
  56.2369987  39.7095006   2.5305017  55.0399987  40.6365006   2.5305017
  45.3509987  38.9555006   1.7885017  46.3079987  38.9555006   1.7885017
  45.1109987  39.8825006   1.7885017  50.9939987  39.0055006   3.4285017
  51.9509987  39.0055006   3.4285017  50.7539987  39.9325006   3.4285017
  52.2919987  39.0365006 159.6535017  53.2489987  39.0365006 159.6535017
  52.0519987  39.9635006 159.6535017  39.5269987  54.7695006 159.2745017
  40.4839987  54.7695006 159.2745017  39.2869987  55.6965006 159.2745017
  41.4819987  40.8025006 156.7295017  42.4389987  40.8025006 156.7295017
  41.2419987  41.7295006 156.7295017  46.5029987  41.0175006 159.1815017
  47.4599987  41.0175006 159.1815017  46.2629987  41.9445006 159.1815017
  48.3879987  56.0495006 157.6375017  49.3449987  56.0495006 157.6375017
  48.1479987  56.9765006 157.6375017  55.1019987  55.5745006 160.3405017
  56.0589987  55.5745006 160.3405017  54.8619987  56.5015006 160.3405017
  42.6859987  38.9845006  13.0855017  43.6429987  38.9845006  13.0855017
  42.4459987  39.9115006  13.0855017  41.3229987  55.7385006 156.2385017
  42.2799987  55.7385006 156.2385017  41.0829987  56.6655006 156.2385017
  54.3369987  54.3125006  11.8935017  55.2939987  54.3125006  11.8935017
  54.0969987  55.2395006  11.8935017  68.7699987  48.1795006   1.8905017
  69.7269987  48.1795006   1.8905017  68.5299987  49.1065006   1.8905017
  67.6489987  47.4625006   5.3715017  68.6059987  47.4625006   5.3715017
  67.4089987  48.3895006   5.3715017  59.9949987  47.1135006   6.9245017
  60.9519987  47.1135006   6.9245017  59.7549987  48.0405006   6.9245017
  71.3369987  50.3985006   3.6475017  72.2939987  50.3985006   3.6475017
  71.0969987  51.3255006   3.6475017  60.9239987  51.5645006   5.4455017
  61.8809987  51.5645006   5.4455017  60.6839987  52.4915006   5.4455017
  57.5669987  45.1425006   0.9035017  58.5239987  45.1425006   0.9035017
  57.3269987  46.0695006   0.9035017  58.2629987  47.3585006   3.0365017
  59.2199987  47.3585006   3.0365017  58.0229987  48.2855006   3.0365017
  68.4499987  55.5485006   3.8835017  69.4069987  55.5485006   3.8835017
  68.2099987  56.4755006   3.8835017  66.0169987  49.8685006   5.8135017
  66.9739987  49.8685006   5.8135017  65.7769987  50.7955006   5.8135017
  62.3379987  42.4045006   3.3585017  63.2949987  42.4045006   3.3585017
  62.0979987  43.3315006   3.3585017  58.9229987  44.8195006   4.1065017
  59.8799987  44.8195006   4.1065017  58.6829987  45.7465006   4.1065017
  64.0789987  46.3715006   3.3985017  65.0359987  46.3715006   3.3985017
  63.8389987  47.2985006   3.3985017  61.1639987  41.3105006   7.4305017
  62.1209987  41.3105006   7.4305017  60.9239987  42.2375006   7.4305017
  68.5049987  50.7955006   0.9585017  69.4619987  50.7955006   0.9585017
  68.2649987  51.7225006   0.9585017  63.7229987  48.9525006   7.6705017
  64.6799987  48.9525006   7.6705017  63.4829987  49.8795006   7.6705017
  60.7309987  43.2155006   5.3915017  61.6879987  43.2155006   5.3915017
  60.4909987  44.1425006   5.3915017  62.1599987  50.9435006   8.4795017
  63.1169987  50.9435006   8.4795017  61.9199987  51.8705006   8.4795017
  58.2459987  50.5795006 159.8155017  59.2029987  50.5795006 159.8155017
  58.0059987  51.5065006 159.8155017  71.8619987  52.2335006   6.0155017
  72.8189987  52.2335006   6.0155017  71.6219987  53.1605006   6.0155017
  70.1149987  54.0195006   2.6185017  71.0719987  54.0195006   2.6185017
  69.8749987  54.9465006   2.6185017  71.3159987  51.9465006   1.1265017
  72.2729987  51.9465006   1.1265017  71.0759987  52.8735006   1.1265017
  72.9769987  50.5235006   9.6235017  73.9339987  50.5235006   9.6235017
  72.7369987  51.4505006   9.6235017  67.4389987  47.4505006 159.9435017
  68.3959987  47.4505006 159.9435017  67.1989987  48.3775006 159.9435017
  67.5149987  45.9735006 156.9485017  68.4719987  45.9735006 156.9485017
  67.2749987  46.9005006 156.9485017  74.7269987  46.8785006   7.5125017
  75.6839987  46.8785006   7.5125017  74.4869987  47.8055006   7.5125017
  70.8689987  47.6275006   0.2855017  71.8259987  47.6275006   0.2855017
  70.6289987  48.5545006   0.2855017  62.4969987  48.3085006   2.2195017
  63.4539987  48.3085006   2.2195017  62.2569987  49.2355006   2.2195017
  63.8269987  51.7035006   4.9025017  64.7839987  51.7035006   4.9025017
  63.5869987  52.6305006   4.9025017  62.8269987  47.0635006   5.8665017
  63.7839987  47.0635006   5.8665017  62.5869987  47.9905006   5.8665017
  69.2249987  52.6125006   6.5905017  70.1819987  52.6125006   6.5905017
  68.9849987  53.5395006   6.5905017  63.7809987  51.4685006  10.5755017
  64.7379987  51.4685006  10.5755017  63.5409987  52.3955006  10.5755017
  69.7769987  46.7825006 158.5145017  70.7339987  46.7825006 158.5145017
  69.5369987  47.7095006 158.5145017  60.7089987  47.6405006   9.7525017
  61.6659987  47.6405006   9.7525017  60.4689987  48.5675006   9.7525017
  67.4659987  53.5625006   1.4455017  68.4229987  53.5625006   1.4455017
  67.2259987  54.4895006   1.4455017  62.0249987  53.5265006  11.3335017
  62.9819987  53.5265006  11.3335017  61.7849987  54.4535006  11.3335017
  73.4489987  38.5815006 158.3855017  74.4059987  38.5815006 158.3855017
  73.2089987  39.5085006 158.3855017  61.4729987  47.3345006 160.3775017
  62.4299987  47.3345006 160.3775017  61.2329987  48.2615006 160.3775017
  74.5949987  52.9265006 156.7605017  75.5519987  52.9265006 156.7605017
  74.3549987  53.8535006 156.7605017  57.5619987  49.7525006   8.7025017
  58.5189987  49.7525006   8.7025017  57.3219987  50.6795006   8.7025017
  57.3199987  52.4915006   5.5075017  58.2769987  52.4915006   5.5075017
  57.0799987  53.4185006   5.5075017  75.5749987  53.1765006  11.1885017
  76.5319987  53.1765006  11.1885017  75.3349987  54.1035006  11.1885017
  66.5239987  52.7295006  10.0765017  67.4809987  52.7295006  10.0765017
  66.2839987  53.6565006  10.0765017  66.9489987  56.4845006 160.4055017
  67.9059987  56.4845006 160.4055017  66.7089987  57.4115006 160.4055017
  60.5899987  55.3495006   1.6725017  61.5469987  55.3495006   1.6725017
  60.3499987  56.2765006   1.6725017  70.0129987  55.6895006 157.3875017
  70.9699987  55.6895006 157.3875017  69.7729987  56.6165006 157.3875017
  69.7019987  55.6175006 160.1515017  70.6589987  55.6175006 160.1515017
  69.4619987  56.5445006 160.1515017  59.8369987  51.0705006   9.6685017
  60.7939987  51.0705006   9.6685017  59.5969987  51.9975006   9.6685017
  67.1259987  39.1225006   8.9785017  68.0829987  39.1225006   8.9785017
  66.8859987  40.0495006   8.9785017  71.2359987  47.7935006 156.2875017
  72.1929987  47.7935006 156.2875017  70.9959987  48.7205006 156.2875017
  66.8259987  41.7685006 156.8435017  67.7829987  41.7685006 156.8435017
  66.5859987  42.6955006 156.8435017  62.5969987  44.5205006   6.8335017
  63.5539987  44.5205006   6.8335017  62.3569987  45.4475006   6.8335017
  62.5629987  44.6735006   1.7185017  63.5199987  44.6735006   1.7185017
  62.3229987  45.6005006   1.7185017  68.0959987  45.1155006   0.5235017
  69.0529987  45.1155006   0.5235017  67.8559987  46.0425006   0.5235017
  67.1679987  45.3635006  11.9825017  68.1249987  45.3635006  11.9825017
  66.9279987  46.2905006  11.9825017  69.1329987  44.5965006   3.3335017
  70.0899987  44.5965006   3.3335017  68.8929987  45.5235006   3.3335017
  60.2479987  44.7925006   8.5785017  61.2049987  44.7925006   8.5785017
  60.0079987  45.7195006   8.5785017  63.6349987  42.1715006 155.9565017
  64.5919987  42.1715006 155.9565017  63.3949987  43.0985006 155.9565017
  56.8929987  41.9005006   2.5155017  57.8499987  41.9005006   2.5155017
  56.6529987  42.8275006   2.5155017  58.1729987  42.6085006 158.4375017
  59.1299987  42.6085006 158.4375017  57.9329987  43.5355006 158.4375017
  68.3089987  46.2185006   7.9025017  69.2659987  46.2185006   7.9025017
  68.0689987  47.1455006   7.9025017  65.1299987  42.1605006   2.7475017
  66.0869987  42.1605006   2.7475017  64.8899987  43.0875006   2.7475017
  59.9509987  43.7535006   1.6005017  60.9079987  43.7535006   1.6005017
  59.7109987  44.6805006   1.6005017  63.6009987  43.7635006 159.7775017
  64.5579987  43.7635006 159.7775017  63.3609987  44.6905006 159.7775017
  62.2869987  44.9615006 157.3705017  63.2439987  44.9615006 157.3705017
  62.0469987  45.8885006 157.3705017  72.7529987  57.0545006  12.3095017
  73.7099987  57.0545006  12.3095017  72.5129987  57.9815006  12.3095017
  60.4239987  49.5235006  11.8795017  61.3809987  49.5235006  11.8795017
  60.1839987  50.4505006  11.8795017  66.4089987  44.9435006   4.6435017
  67.3659987  44.9435006   4.6435017  66.1689987  45.8705006   4.6435017
  61.4489987  41.0775006   1.0865017  62.4059987  41.0775006   1.0865017
  61.2089987  42.0045006   1.0865017  65.1059987  43.3905006   7.0035017
  66.0629987  43.3905006   7.0035017  64.8659987  44.3175006   7.0035017
  65.6469987  49.5045006 159.2865017  66.6039987  49.5045006 159.2865017
  65.4069987  50.4315006 159.2865017  72.7819987  48.6895006   7.5545017
  73.7389987  48.6895006   7.5545017  72.5419987  49.6165006   7.5545017
  69.5129987  42.3715006 157.3885017  70.4699987  42.3715006 157.3885017
  69.2729987  43.2985006 157.3885017  67.1179987  49.7235006   9.9615017
  68.0749987  49.7235006   9.9615017  66.8779987  50.6505006   9.9615017
  70.2639987  44.1885006 159.0285017  71.2209987  44.1885006 159.0285017
  70.0239987  45.1155006 159.0285017  60.7509987  48.8715006   4.5455017
  61.7079987  48.8715006   4.5455017  60.5109987  49.7985006   4.5455017
  67.7509987  50.9725006 158.3215017  68.7079987  50.9725006 158.3215017
  67.5109987  51.8995006 158.3215017  57.7429987  47.2945006   9.8145017
  58.6999987  47.2945006   9.8145017  57.5029987  48.2215006   9.8145017
  64.7609987  46.8425006  12.0025017  65.7179987  46.8425006  12.0025017
  64.5209987  47.7695006  12.0025017  69.4299987  52.2045006   9.9495017
  70.3869987  52.2045006   9.9495017  69.1899987  53.1315006   9.9495017
  75.1169987  44.3755006 158.8695017  76.0739987  44.3755006 158.8695017
  74.8769987  45.3025006 158.8695017  75.1359987  50.2555006  11.1315017
  76.0929987  50.2555006  11.1315017  74.8959987  51.1825006  11.1315017
  73.3839987  53.1995006 159.2795017  74.3409987  53.1995006 159.2795017
  73.1439987  54.1265006 159.2795017  70.6029987  48.0195006   5.8095017
  71.5599987  48.0195006   5.8095017  70.3629987  48.9465006   5.8095017
  63.1259987  52.3375006   1.9295017  64.0829987  52.3375006   1.9295017
  62.8859987  53.2645006   1.9295017  58.8869987  47.1835006 157.0435017
  59.8439987  47.1835006 157.0435017  58.6469987  48.1105006 157.0435017
  64.5489987  50.0015006   1.4565017  65.5059987  50.0015006   1.4565017
  64.3089987  50.9285006   1.4565017  65.0019987  54.1795006   7.8405017
  65.9589987  54.1795006   7.8405017  64.7619987  55.1065006   7.8405017
  63.2229987  55.0025006   0.9925017  64.1799987  55.0025006   0.9925017
  62.9829987  55.9295006   0.9925017  68.5509987  50.2205006   7.4875017
  69.5079987  50.2205006   7.4875017  68.3109987  51.1475006   7.4875017
  70.8379987  51.2455006 157.1105017  71.7949987  51.2455006 157.1105017
  70.5979987  52.1725006 157.1105017  71.2909987  54.7825006   9.9935017
  72.2479987  54.7825006   9.9935017  71.0509987  55.7095006   9.9935017
  75.3149987  55.6215006 157.3545017  76.2719987  55.6215006 157.3545017
  75.0749987  56.5485006 157.3545017  59.3959987  42.0395006   9.3855017
  60.3529987  42.0395006   9.3855017  59.1559987  42.9665006   9.3855017
  71.6349987  49.8885006 159.3475017  72.5919987  49.8885006 159.3475017
  71.3949987  50.8155006 159.3475017  59.0169987  53.8235006   7.7945017
  59.9739987  53.8235006   7.7945017  58.7769987  54.7505006   7.7945017
  64.9589987  52.3295006 155.5915017  65.9159987  52.3295006 155.5915017
  64.7189987  53.2565006 155.5915017  63.7789987  51.8605006 158.0475017
  64.7359987  51.8605006 158.0475017  63.5389987  52.7875006 158.0475017
  60.2919987  49.1065006 158.5375017  61.2489987  49.1065006 158.5375017
  60.0519987  50.0335006 158.5375017  66.5649987  53.5315006 158.7665017
  67.5219987  53.5315006 158.7665017  66.3249987  54.4585006 158.7665017
  66.0759987  43.1615006   0.2195017  67.0329987  43.1615006   0.2195017
  65.8359987  44.0885006   0.2195017  66.6379987  44.1265006   9.4195017
  67.5949987  44.1265006   9.4195017  66.3979987  45.0535006   9.4195017
  63.9469987  54.5665006 158.7775017  64.9039987  54.5665006 158.7775017
  63.7069987  55.4935006 158.7775017  62.5979987  41.2905006 158.3605017
  63.5549987  41.2905006 158.3605017  62.3579987  42.2175006 158.3605017
  71.4539987  45.7895006   4.2705017  72.4109987  45.7895006   4.2705017
  71.2139987  46.7165006   4.2705017  60.8559987  51.7195006 157.4235017
  61.8129987  51.7195006 157.4235017  60.6159987  52.6465006 157.4235017
  59.1959987  44.3935006 156.5495017  60.1529987  44.3935006 156.5495017
  58.9559987  45.3205006 156.5495017  72.5119987  55.0505006   5.9475017
  73.4689987  55.0505006   5.9475017  72.2719987  55.9775006   5.9475017
  59.9749987  39.1995006   4.7185017  60.9319987  39.1995006   4.7185017
  59.7349987  40.1265006   4.7185017  58.9619987  53.1015006   0.8785017
  59.9189987  53.1015006   0.8785017  58.7219987  54.0285006   0.8785017
  58.1799987  55.7565006  12.1765017  59.1369987  55.7565006  12.1765017
  57.9399987  56.6835006  12.1765017  62.8389987  54.6715006  13.7995017
  63.7959987  54.6715006  13.7995017  62.5989987  55.5985006  13.7995017
  66.9649987  54.1845006 155.7255017  67.9219987  54.1845006 155.7255017
  66.7249987  55.1115006 155.7255017  71.5359987  53.9425006 155.9245017
  72.4929987  53.9425006 155.9245017  71.2959987  54.8695006 155.9245017
  58.1029987  49.5355006  13.1645017  59.0599987  49.5355006  13.1645017
  57.8629987  50.4625006  13.1645017  62.4339987  49.8765006 155.7575017
  63.3909987  49.8765006 155.7575017  62.1939987  50.8035006 155.7575017
  64.8099987  49.5285006  12.5625017  65.7669987  49.5285006  12.5625017
  64.5699987  50.4555006  12.5625017  67.8519987  50.9685006 155.5185017
  68.8089987  50.9685006 155.5185017  67.6119987  51.8955006 155.5185017
  70.5129987  49.3995006   9.9615017  71.4699987  49.3995006   9.9615017
  70.2729987  50.3265006   9.9615017  58.9899987  46.7535006  12.5505017
  59.9469987  46.7535006  12.5505017  58.7499987  47.6805006  12.5505017
  63.6419987  47.8805006 158.1495017  64.5989987  47.8805006 158.1495017
  63.4019987  48.8075006 158.1495017  62.9049987  45.7085006   9.9185017
  63.8619987  45.7085006   9.9185017  62.6649987  46.6355006   9.9185017
  64.7019987  46.1055006 156.3655017  65.6589987  46.1055006 156.3655017
  64.4619987  47.0325006 156.3655017  74.0399987  48.4235006 155.7975017
  74.9969987  48.4235006 155.7975017  73.7999987  49.3505006 155.7975017
  63.3089987  43.0915006  10.9955017  64.2659987  43.0915006  10.9955017
  63.0689987  44.0185006  10.9955017  65.2479987  46.9145006   8.7565017
  66.2049987  46.9145006   8.7565017  65.0079987  47.8415006   8.7565017
  69.6009987  44.7065006  13.7955017  70.5579987  44.7065006  13.7955017
  69.3609987  45.6335006  13.7955017  70.9619987  47.4895006  11.8695017
  71.9189987  47.4895006  11.8695017  70.7219987  48.4165006  11.8695017
  61.7579987  44.3245006  12.8965017  62.7149987  44.3245006  12.8965017
  61.5179987  45.2515006  12.8965017  65.7659987  43.2175006  12.5125017
  66.7229987  43.2175006  12.5125017  65.5259987  44.1445006  12.5125017
  68.4299987  42.3735006  11.5775017  69.3869987  42.3735006  11.5775017
  68.1899987  43.3005006  11.5775017  70.0029987  40.9865006  13.5475017
  70.9599987  40.9865006  13.5475017  69.7629987  41.9135006  13.5475017
  59.8789987  42.2525006  12.6255017  60.8359987  42.2525006  12.6255017
  59.6389987  43.1795006  12.6255017  64.7159987  38.2805006  11.6085017
  65.6729987  38.2805006  11.6085017  64.4759987  39.2075006  11.6085017
  65.0599987  39.8995006  13.6805017  66.0169987  39.8995006  13.6805017
  64.8199987  40.8265006  13.6805017  64.5469987  56.8045006 157.4245017
  65.5039987  56.8045006 157.4245017  64.3069987  57.7315006 157.4245017
  58.1109987  51.4045006 156.8965017  59.0679987  51.4045006 156.8965017
  57.8709987  52.3315006 156.8965017  56.8659987  56.7885006   1.3435017
  57.8229987  56.7885006   1.3435017  56.6259987  57.7155006   1.3435017
  57.6949987  54.9055006   3.1975017  58.6519987  54.9055006   3.1975017
  57.4549987  55.8325006   3.1975017  75.2299987  55.7025006   6.1485017
  76.1869987  55.7025006   6.1485017  74.9899987  56.6295006   6.1485017
  74.8039987  55.3025006   9.0945017  75.7609987  55.3025006   9.0945017
  74.5639987  56.2295006   9.0945017  73.2549987  51.0375006  13.7465017
  74.2119987  51.0375006  13.7465017  73.0149987  51.9645006  13.7465017
  74.5579987  49.3425006 159.7465017  75.5149987  49.3425006 159.7465017
  74.3179987  50.2695006 159.7465017  74.9259987  47.3905006   1.0755017
  75.8829987  47.3905006   1.0755017  74.6859987  48.3175006   1.0755017
  74.6779987  50.1425006   6.0395017  75.6349987  50.1425006   6.0395017
  74.4379987  51.0695006   6.0395017  73.2289987  53.0225006   8.3385017
  74.1859987  53.0225006   8.3385017  72.9889987  53.9495006   8.3385017
  75.2109987  47.2375006 158.0135017  76.1679987  47.2375006 158.0135017
  74.9709987  48.1645006 158.0135017  73.7809987  44.5185006 156.5165017
  74.7379987  44.5185006 156.5165017  73.5409987  45.4455006 156.5165017
  72.7429987  45.9045006   1.6535017  73.6999987  45.9045006   1.6535017
  72.5029987  46.8315006   1.6535017  57.7499987  47.9825006   5.6895017
  58.7069987  47.9825006   5.6895017  57.5099987  48.9095006   5.6895017
  73.5979987  47.8325006  11.3295017  74.5549987  47.8325006  11.3295017
  73.3579987  48.7595006  11.3295017  72.8259987  41.9335006 155.7065017
  73.7829987  41.9335006 155.7065017  72.5859987  42.8605006 155.7065017
  72.4219987  43.5145006 160.5565017  73.3789987  43.5145006 160.5565017
  72.1819987  44.4415006 160.5565017  57.3649987  43.2815006  11.8375017
  58.3219987  43.2815006  11.8375017  57.1249987  44.2085006  11.8375017
  73.0819987  40.7595006   0.1395017  74.0389987  40.7595006   0.1395017
  72.8419987  41.6865006   0.1395017  58.5569987  41.5795006   4.6845017
  59.5139987  41.5795006   4.6845017  58.3169987  42.5065006   4.6845017
  56.8559987  44.5645006   5.7475017  57.8129987  44.5645006   5.7475017
  56.6159987  45.4915006   5.7475017  74.8959987  40.8345006 157.2235017
  75.8529987  40.8345006 157.2235017  74.6559987  41.7615006 157.2235017
  57.2199987  40.8395006 160.3625017  58.1769987  40.8395006 160.3625017
  56.9799987  41.7665006 160.3625017  71.9569987  55.7875006   1.7635017
  72.9139987  55.7875006   1.7635017  71.7169987  56.7145006   1.7635017
  57.1689987  39.5025006   8.1235017  58.1259987  39.5025006   8.1235017
  56.9289987  40.4295006   8.1235017  59.3949987  52.6955006  12.2795017
  60.3519987  52.6955006  12.2795017  59.1549987  53.6225006  12.2795017
  62.3049987  53.6895006   8.5535017  63.2619987  53.6895006   8.5535017
  62.0649987  54.6165006   8.5535017  66.6329987  55.1095006  11.4875017
  67.5899987  55.1095006  11.4875017  66.3929987  56.0365006  11.4875017
  68.9179987  56.3735006  10.7705017  69.8749987  56.3735006  10.7705017
  68.6779987  57.3005006  10.7705017  59.7299987  56.9375006   8.5625017
  60.6869987  56.9375006   8.5625017  59.4899987  57.8645006   8.5625017
  62.2009987  56.5185006   7.6265017  63.1579987  56.5185006   7.6265017
  61.9609987  57.4455006   7.6265017  66.9029987  56.4305006   6.7935017
  67.8599987  56.4305006   6.7935017  66.6629987  57.3575006   6.7935017
  69.2059987  55.2635006   7.7935017  70.1629987  55.2635006   7.7935017
  68.9659987  56.1905006   7.7935017  71.7929987  56.8295006   8.0495017
  72.7499987  56.8295006   8.0495017  71.5529987  57.7565006   8.0495017
  59.1659987  55.5855006   5.4925017  60.1229987  55.5855006   5.4925017
  58.9259987  56.5125006   5.4925017  61.2609987  54.2975006   4.1455017
  62.2179987  54.2975006   4.1455017  61.0209987  55.2245006   4.1455017
  63.8539987  54.7795006   5.0165017  64.8109987  54.7795006   5.0165017
  63.6139987  55.7065006   5.0165017  59.6759987  39.0745006   1.9625017
  60.6329987  39.0745006   1.9625017  59.4359987  40.0015006   1.9625017
  58.4689987  38.8175006 158.2885017  59.4259987  38.8175006 158.2885017
  58.2289987  39.7445006 158.2885017  64.1719987  39.0265006   1.7965017
  65.1289987  39.0265006   1.7965017  63.9319987  39.9535006   1.7965017
  58.3829987  54.7685006 159.2715017  59.3399987  54.7685006 159.2715017
  58.1429987  55.6955006 159.2715017  60.3029987  40.7585006 156.7745017
  61.2599987  40.7585006 156.7745017  60.0629987  41.6855006 156.7745017
  65.3249987  41.0315006 159.1975017  66.2819987  41.0315006 159.1975017
  65.0849987  41.9585006 159.1975017  67.2449987  56.0485006 157.6365017
  68.2019987  56.0485006 157.6365017  67.0049987  56.9755006 157.6365017
  73.9589987  55.5745006 160.3395017  74.9159987  55.5745006 160.3395017
  73.7189987  56.5015006 160.3395017  59.5879987  39.6005006  11.4625017
  60.5449987  39.6005006  11.4625017  59.3479987  40.5275006  11.4625017
  61.5939987  38.9675006  13.0735017  62.5509987  38.9675006  13.0735017
  61.3539987  39.8945006  13.0735017  60.1699987  55.7115006 156.2405017
  61.1269987  55.7115006 156.2405017  59.9299987  56.6385006 156.2405017
  69.9779987  38.2705006  13.2685017  70.9349987  38.2705006  13.2685017
  69.7379987  39.1975006  13.2685017  73.2039987  54.3175006  11.8965017
  74.1609987  54.3175006  11.8965017  72.9639987  55.2445006  11.8965017
  87.6239987  48.1935006   1.8845017  88.5809987  48.1935006   1.8845017
  87.3839987  49.1205006   1.8845017  86.4959987  47.4595006   5.3685017
  87.4529987  47.4595006   5.3685017  86.2559987  48.3865006   5.3685017
  90.1949987  50.3995006   3.6465017  91.1519987  50.3995006   3.6465017
  89.9549987  51.3265006   3.6465017  79.7799987  51.5655006   5.4425017
  80.7369987  51.5655006   5.4425017  79.5399987  52.4925006   5.4425017
  76.4129987  45.1385006   0.9135017  77.3699987  45.1385006   0.9135017
  76.1729987  46.0655006   0.9135017  77.1129987  47.3505006   3.0355017
  78.0699987  47.3505006   3.0355017  76.8729987  48.2775006   3.0355017
  87.3069987  55.5495006   3.8825017  88.2639987  55.5495006   3.8825017
  87.0669987  56.4765006   3.8825017  84.8799987  49.8735006   5.8065017
  85.8369987  49.8735006   5.8065017  84.6399987  50.8005006   5.8065017
  93.4919987  41.5005006   6.5795017  94.4489987  41.5005006   6.5795017
  93.2519987  42.4275006   6.5795017  88.0369987  44.3205006   6.1365017
  88.9939987  44.3205006   6.1365017  87.7969987  45.2475006   6.1365017
  81.1459987  42.4015006   3.3765017  82.1029987  42.4015006   3.3765017
  80.9059987  43.3285006   3.3765017  88.8899987  42.4965006   1.7415017
  89.8469987  42.4965006   1.7415017  88.6499987  43.4235006   1.7415017
  77.8009987  44.7975006   4.1025017  78.7579987  44.7975006   4.1025017
  77.5609987  45.7245006   4.1025017  82.9459987  46.3695006   3.3935017
  83.9029987  46.3695006   3.3935017  82.7059987  47.2965006   3.3935017
  93.9229987  42.9305006   8.8365017  94.8799987  42.9305006   8.8365017
  93.6829987  43.8575006   8.8365017  87.3609987  50.7955006   0.9585017
  88.3179987  50.7955006   0.9585017  87.1209987  51.7225006   0.9585017
  82.5759987  48.9545006   7.6815017  83.5329987  48.9545006   7.6815017
  82.3359987  49.8815006   7.6815017  90.6859987  41.8315006   3.7325017
  91.6429987  41.8315006   3.7325017  90.4459987  42.7585006   3.7325017
  79.6029987  43.1325006   5.4235017  80.5599987  43.1325006   5.4235017
  79.3629987  44.0595006   5.4235017  81.0079987  50.9515006   8.4875017
  81.9649987  50.9515006   8.4875017  80.7679987  51.8785006   8.4875017
  77.1019987  50.5795006 159.8155017  78.0589987  50.5795006 159.8155017
  76.8619987  51.5065006 159.8155017  90.7179987  52.2345006   6.0155017
  91.6749987  52.2345006   6.0155017  90.4779987  53.1615006   6.0155017
  91.0319987  40.5255006   7.4125017  91.9889987  40.5255006   7.4125017
  90.7919987  41.4525006   7.4125017  84.0269987  38.6335006   4.8755017
  84.9839987  38.6335006   4.8755017  83.7869987  39.5605006   4.8755017
  88.9709987  54.0195006   2.6185017  89.9279987  54.0195006   2.6185017
  88.7309987  54.9465006   2.6185017  90.1719987  51.9465006   1.1255017
  91.1289987  51.9465006   1.1255017  89.9319987  52.8735006   1.1255017
  91.8079987  50.5275006   9.6205017  92.7649987  50.5275006   9.6205017
  91.5679987  51.4545006   9.6205017  86.2989987  47.4375006 159.9365017
  87.2559987  47.4375006 159.9365017  86.0589987  48.3645006 159.9365017
  86.3599987  45.9715006 156.9455017  87.3169987  45.9715006 156.9455017
  86.1199987  46.8985006 156.9455017  93.6829987  46.8415006   7.6745017
  94.6399987  46.8415006   7.6745017  93.4429987  47.7685006   7.6745017
  89.7359987  47.6515006   0.3065017  90.6929987  47.6515006   0.3065017
  89.4959987  48.5785006   0.3065017  89.6569987  45.8115006   9.4165017
  90.6139987  45.8115006   9.4165017  89.4169987  46.7385006   9.4165017
  81.3419987  48.3025006   2.2305017  82.2989987  48.3025006   2.2305017
  81.1019987  49.2295006   2.2305017  82.6879987  51.7185006   4.8995017
  83.6449987  51.7185006   4.8995017  82.4479987  52.6455006   4.8995017
  81.6969987  47.0555006   5.8505017  82.6539987  47.0555006   5.8505017
  81.4569987  47.9825006   5.8505017  88.0759987  52.6125006   6.5795017
  89.0329987  52.6125006   6.5795017  87.8359987  53.5395006   6.5795017
  82.6239987  51.4675006  10.5885017  83.5809987  51.4675006  10.5885017
  82.3839987  52.3945006  10.5885017  88.6009987  46.8345006 158.5265017
  89.5579987  46.8345006 158.5265017  88.3609987  47.7615006 158.5265017
  86.3219987  53.5625006   1.4455017  87.2789987  53.5625006   1.4455017
  86.0819987  54.4895006   1.4455017  80.8639987  53.5095006  11.3225017
  81.8209987  53.5095006  11.3225017  80.6239987  54.4365006  11.3225017
  92.3269987  38.5695006 158.3955017  93.2839987  38.5695006 158.3955017
  92.0869987  39.4965006 158.3955017  80.3289987  47.3345006 160.3785017
  81.2859987  47.3345006 160.3785017  80.0889987  48.2615006 160.3785017
  93.4509987  52.9265006 156.7615017  94.4079987  52.9265006 156.7615017
  93.2109987  53.8535006 156.7615017  76.4299987  49.7315006   8.7045017
  77.3869987  49.7315006   8.7045017  76.1899987  50.6585006   8.7045017
  76.1789987  52.4905006   5.5115017  77.1359987  52.4905006   5.5115017
  75.9389987  53.4175006   5.5115017  94.4129987  53.1915006  11.1935017
  95.3699987  53.1915006  11.1935017  94.1729987  54.1185006  11.1935017
  85.3699987  52.7365006  10.0565017  86.3269987  52.7365006  10.0565017
  85.1299987  53.6635006  10.0565017  85.8039987  56.4845006 160.4045017
  86.7609987  56.4845006 160.4045017  85.5639987  57.4115006 160.4045017
  79.4449987  55.3495006   1.6685017  80.4019987  55.3495006   1.6685017
  79.2049987  56.2765006   1.6685017  88.8689987  55.6895006 157.3875017
  89.8259987  55.6895006 157.3875017  88.6289987  56.6165006 157.3875017
  88.5579987  55.6165006 160.1515017  89.5149987  55.6165006 160.1515017
  88.3179987  56.5435006 160.1515017  91.5549987  44.6645006  11.6775017
  92.5119987  44.6645006  11.6775017  91.3149987  45.5915006  11.6775017
  78.6769987  51.0555006   9.6595017  79.6339987  51.0555006   9.6595017
  78.4369987  51.9825006   9.6595017  81.2889987  39.5155006   5.7075017
  82.2459987  39.5155006   5.7075017  81.0489987  40.4425006   5.7075017
  86.0079987  39.2205006   8.9995017  86.9649987  39.2205006   8.9995017
  85.7679987  40.1475006   8.9995017  89.3099987  43.0405006   9.8795017
  90.2669987  43.0405006   9.8795017  89.0699987  43.9675006   9.8795017
  90.0549987  47.8715006 156.2755017  91.0119987  47.8715006 156.2755017
  89.8149987  48.7985006 156.2755017  85.6589987  41.7815006 156.8385017
  86.6159987  41.7815006 156.8385017  85.4189987  42.7085006 156.8385017
  81.4439987  44.4935006   6.8195017  82.4009987  44.4935006   6.8195017
  81.2039987  45.4205006   6.8195017  81.4229987  44.6565006   1.7225017
  82.3799987  44.6565006   1.7225017  81.1829987  45.5835006   1.7225017
  86.9489987  45.1305006   0.5155017  87.9059987  45.1305006   0.5155017
  86.7089987  46.0575006   0.5155017  86.0309987  45.3175006  11.9295017
  86.9879987  45.3175006  11.9295017  85.7909987  46.2445006  11.9295017
  87.9769987  44.6115006   3.3445017  88.9339987  44.6115006   3.3445017
  87.7369987  45.5385006   3.3445017  82.4909987  42.1705006 155.9555017
  83.4479987  42.1705006 155.9555017  82.2509987  43.0975006 155.9555017
  77.0339987  42.6145006 158.4295017  77.9909987  42.6145006 158.4295017
  76.7939987  43.5415006 158.4295017  87.1939987  46.2165006   7.9295017
  88.1509987  46.2165006   7.9295017  86.9539987  47.1435006   7.9295017
  84.0029987  42.1725006   2.7345017  84.9599987  42.1725006   2.7345017
  83.7629987  43.0995006   2.7345017  78.8009987  43.7405006   1.6035017
  79.7579987  43.7405006   1.6035017  78.5609987  44.6675006   1.6035017
  82.4519987  43.7715006 159.7765017  83.4089987  43.7715006 159.7765017
  82.2119987  44.6985006 159.7765017  88.3969987  41.4085006   5.9935017
  89.3539987  41.4085006   5.9935017  88.1569987  42.3355006   5.9935017
  81.1429987  44.9615006 157.3705017  82.0999987  44.9615006 157.3705017
  80.9029987  45.8885006 157.3705017  91.6109987  57.0595006  12.3095017
  92.5679987  57.0595006  12.3095017  91.3709987  57.9865006  12.3095017
  85.2719987  44.9345006   4.6385017  86.2289987  44.9345006   4.6385017
  85.0319987  45.8615006   4.6385017  80.3039987  41.0875006   1.0755017
  81.2609987  41.0875006   1.0755017  80.0639987  42.0145006   1.0755017
  83.9129987  43.2685006   7.0525017  84.8699987  43.2685006   7.0525017
  83.6729987  44.1955006   7.0525017  84.5039987  49.5045006 159.2865017
  85.4609987  49.5045006 159.2865017  84.2639987  50.4315006 159.2865017
  91.6669987  48.6785006   7.5515017  92.6239987  48.6785006   7.5515017
  91.4269987  49.6055006   7.5515017  88.3429987  42.3155006 157.4695017
  89.2999987  42.3155006 157.4695017  88.1029987  43.2425006 157.4695017
  85.9959987  49.7455006   9.9845017  86.9529987  49.7455006   9.9845017
  85.7559987  50.6725006   9.9845017  89.0719987  44.2165006 159.1125017
  90.0289987  44.2165006 159.1125017  88.8319987  45.1435006 159.1125017
  79.5989987  48.8525006   4.5455017  80.5559987  48.8525006   4.5455017
  79.3589987  49.7795006   4.5455017  86.6099987  50.9665006 158.3185017
  87.5669987  50.9665006 158.3185017  86.3699987  51.8935006 158.3185017
  83.6129987  46.8985006  11.9885017  84.5699987  46.8985006  11.9885017
  83.3729987  47.8255006  11.9885017  88.2839987  52.1775006   9.9295017
  89.2409987  52.1775006   9.9295017  88.0439987  53.1045006   9.9295017
  93.9789987  44.3685006 158.8665017  94.9359987  44.3685006 158.8665017
  93.7389987  45.2955006 158.8665017  93.9519987  50.2305006  11.1475017
  94.9089987  50.2305006  11.1475017  93.7119987  51.1575006  11.1475017
  92.2399987  53.2005006 159.2785017  93.1969987  53.2005006 159.2785017
  91.9999987  54.1275006 159.2785017  89.4579987  48.0135006   5.8245017
  90.4149987  48.0135006   5.8245017  89.2179987  48.9405006   5.8245017
  81.9819987  52.3375006   1.9295017  82.9389987  52.3375006   1.9295017
  81.7419987  53.2645006   1.9295017  77.7419987  47.1845006 157.0445017
  78.6989987  47.1845006 157.0445017  77.5019987  48.1115006 157.0445017
  83.4039987  50.0025006   1.4575017  84.3609987  50.0025006   1.4575017
  83.1639987  50.9295006   1.4575017  83.8599987  54.1785006   7.8465017
  84.8169987  54.1785006   7.8465017  83.6199987  55.1055006   7.8465017
  82.0779987  55.0035006   0.9935017  83.0349987  55.0035006   0.9935017
  81.8379987  55.9305006   0.9935017  87.4039987  50.2115006   7.4895017
  88.3609987  50.2115006   7.4895017  87.1639987  51.1385006   7.4895017
  89.6949987  51.2445006 157.1115017  90.6519987  51.2445006 157.1115017
  89.4549987  52.1715006 157.1115017  90.1689987  54.7795006   9.9825017
  91.1259987  54.7795006   9.9825017  89.9289987  55.7065006   9.9825017
  94.1709987  55.6215006 157.3545017  95.1279987  55.6215006 157.3545017
  93.9309987  56.5485006 157.3545017  90.4909987  49.8875006 159.3465017
  91.4479987  49.8875006 159.3465017  90.2509987  50.8145006 159.3465017
  77.8739987  53.8255006   7.7925017  78.8309987  53.8255006   7.7925017
  77.6339987  54.7525006   7.7925017  83.8149987  52.3295006 155.5915017
  84.7719987  52.3295006 155.5915017  83.5749987  53.2565006 155.5915017
  82.6339987  51.8605006 158.0475017  83.5909987  51.8605006 158.0475017
  82.3939987  52.7875006 158.0475017  79.1469987  49.1065006 158.5375017
  80.1039987  49.1065006 158.5375017  78.9069987  50.0335006 158.5375017
  86.9799987  41.7945006   8.2975017  87.9369987  41.7945006   8.2975017
  86.7399987  42.7215006   8.2975017  87.7329987  41.3805006 159.9405017
  88.6899987  41.3805006 159.9405017  87.4929987  42.3075006 159.9405017
  85.4209987  53.5315006 158.7665017  86.3779987  53.5315006 158.7665017
  85.1809987  54.4585006 158.7665017  84.9559987  43.1335006   0.2195017
  85.9129987  43.1335006   0.2195017  84.7159987  44.0605006   0.2195017
  85.5329987  44.1555006   9.3765017  86.4899987  44.1555006   9.3765017
  85.2929987  45.0825006   9.3765017  85.8149987  40.1915006   1.1255017
  86.7719987  40.1915006   1.1255017  85.5749987  41.1185006   1.1255017
  82.8019987  54.5675006 158.7775017  83.7589987  54.5675006 158.7775017
  82.5619987  55.4945006 158.7775017  81.4699987  41.2825006 158.3665017
  82.4269987  41.2825006 158.3665017  81.2299987  42.2095006 158.3665017
  91.6999987  42.0195006  10.2565017  92.6569987  42.0195006  10.2565017
  91.4599987  42.9465006  10.2565017  90.2999987  45.8045006   4.2865017
  91.2569987  45.8045006   4.2865017  90.0599987  46.7315006   4.2865017
  79.7099987  51.7235006 157.4195017  80.6669987  51.7235006 157.4195017
  79.4699987  52.6505006 157.4195017  78.0599987  44.3955006 156.5485017
  79.0169987  44.3955006 156.5485017  77.8199987  45.3225006 156.5485017
  91.3669987  55.0515006   5.9485017  92.3239987  55.0515006   5.9485017
  91.1269987  55.9785006   5.9485017  77.8179987  53.1025006   0.8785017
  78.7749987  53.1025006   0.8785017  77.5779987  54.0295006   0.8785017
  77.0489987  55.7505006  12.1795017  78.0059987  55.7505006  12.1795017
  76.8089987  56.6775006  12.1795017  81.7109987  54.7045006  13.7805017
  82.6679987  54.7045006  13.7805017  81.4709987  55.6315006  13.7805017
  85.8209987  54.1845006 155.7255017  86.7779987  54.1845006 155.7255017
  85.5809987  55.1115006 155.7255017  88.2259987  53.0505006  12.5265017
  89.1829987  53.0505006  12.5265017  87.9859987  53.9775006  12.5265017
  90.3919987  53.9425006 155.9245017  91.3489987  53.9425006 155.9245017
  90.1519987  54.8695006 155.9245017  81.2899987  49.8765006 155.7575017
  82.2469987  49.8765006 155.7575017  81.0499987  50.8035006 155.7575017
  83.6999987  49.5325006  12.5395017  84.6569987  49.5325006  12.5395017
  83.4599987  50.4595006  12.5395017  86.7069987  50.9695006 155.5185017
  87.6639987  50.9695006 155.5185017  86.4669987  51.8965006 155.5185017
  89.3589987  49.3845006   9.9485017  90.3159987  49.3845006   9.9485017
  89.1189987  50.3115006   9.9485017  82.4849987  47.8845006 158.1435017
  83.4419987  47.8845006 158.1435017  82.2449987  48.8115006 158.1435017
  81.7899987  45.7185006   9.8985017  82.7469987  45.7185006   9.8985017
  81.5499987  46.6455006   9.8985017  83.5579987  46.1065006 156.3655017
  84.5149987  46.1065006 156.3655017  83.3179987  47.0335006 156.3655017
  86.8139987  48.2605006  13.2545017  87.7709987  48.2605006  13.2545017
  86.5739987  49.1875006  13.2545017  92.9139987  48.4365006 155.7955017
  93.8709987  48.4365006 155.7955017  92.6739987  49.3635006 155.7955017
  82.1269987  43.1025006  10.9745017  83.0839987  43.1025006  10.9745017
  81.8869987  44.0295006  10.9745017  82.5519987  41.4285006   8.5035017
  83.5089987  41.4285006   8.5035017  82.3119987  42.3555006   8.5035017
  84.0929987  46.9215006   8.7415017  85.0499987  46.9215006   8.7415017
  83.8529987  47.8485006   8.7415017  88.5049987  44.7115006  13.7475017
  89.4619987  44.7115006  13.7475017  88.2649987  45.6385006  13.7475017
  89.8409987  47.4965006  11.8815017  90.7979987  47.4965006  11.8815017
  89.6009987  48.4235006  11.8815017  83.3459987  38.9035006   8.9335017
  84.3029987  38.9035006   8.9335017  83.1059987  39.8305006   8.9335017
  84.6299987  43.1795006  12.4935017  85.5869987  43.1795006  12.4935017
  84.3899987  44.1065006  12.4935017  87.3379987  42.3385006  11.5735017
  88.2949987  42.3385006  11.5735017  87.0979987  43.2655006  11.5735017
  88.9359987  40.9925006  13.5475017  89.8929987  40.9925006  13.5475017
  88.6959987  41.9195006  13.5475017  83.5679987  38.2595006  11.6015017
  84.5249987  38.2595006  11.6015017  83.3279987  39.1865006  11.6015017
  83.9739987  39.9295006  13.6775017  84.9309987  39.9295006  13.6775017
  83.7339987  40.8565006  13.6775017  83.4049987  56.8025006 157.4275017
  84.3619987  56.8025006 157.4275017  83.1649987  57.7295006 157.4275017
  76.9669987  51.4045006 156.8965017  77.9239987  51.4045006 156.8965017
  76.7269987  52.3315006 156.8965017  75.7279987  56.7825006   1.3415017
  76.6849987  56.7825006   1.3415017  75.4879987  57.7095006   1.3415017
  76.5519987  54.9055006   3.1975017  77.5089987  54.9055006   3.1975017
  76.3119987  55.8325006   3.1975017  94.0859987  55.7035006   6.1485017
  95.0429987  55.7035006   6.1485017  93.8459987  56.6305006   6.1485017
  93.6619987  55.3005006   9.0915017  94.6189987  55.3005006   9.0915017
  93.4219987  56.2275006   9.0915017  92.1069987  51.0315006  13.7475017
  93.0639987  51.0315006  13.7475017  91.8669987  51.9585006  13.7475017
  93.4139987  49.3435006 159.7455017  94.3709987  49.3435006 159.7455017
  93.1739987  50.2705006 159.7455017  93.7869987  47.4145006   1.0695017
  94.7439987  47.4145006   1.0695017  93.5469987  48.3415006   1.0695017
  93.5439987  50.1305006   6.0525017  94.5009987  50.1305006   6.0525017
  93.3039987  51.0575006   6.0525017  92.0899987  53.0275006   8.3345017
  93.0469987  53.0275006   8.3345017  91.8499987  53.9545006   8.3345017
  94.0859987  47.2505006 158.0105017  95.0429987  47.2505006 158.0105017
  93.8459987  48.1775006 158.0105017  92.4529987  44.4885006 156.5325017
  93.4099987  44.4885006 156.5325017  92.2129987  45.4155006 156.5325017
  91.6009987  45.8995006   1.6345017  92.5579987  45.8995006   1.6345017
  91.3609987  46.8265006   1.6345017  76.6149987  47.9895006   5.6825017
  77.5719987  47.9895006   5.6825017  76.3749987  48.9165006   5.6825017
  92.4519987  47.8695006  11.3145017  93.4089987  47.8695006  11.3145017
  92.2119987  48.7965006  11.3145017  93.9639987  45.7595006  11.9775017
  94.9209987  45.7595006  11.9775017  93.7239987  46.6865006  11.9775017
  91.6929987  41.9455006 155.6645017  92.6499987  41.9455006 155.6645017
  91.4529987  42.8725006 155.6645017  91.2609987  43.4815006 160.6145017
  92.2179987  43.4815006 160.6145017  91.0209987  44.4085006 160.6145017
  91.9059987  44.0285006   5.5385017  92.8629987  44.0285006   5.5385017
  91.6659987  44.9555006   5.5385017  91.9679987  44.7545006   8.3245017
  92.9249987  44.7545006   8.3245017  91.7279987  45.6815006   8.3245017
  94.2359987  38.7945006  13.6755017  95.1929987  38.7945006  13.6755017
  93.9959987  39.7215006  13.6755017  91.9349987  40.7655006   0.1465017
  92.8919987  40.7655006   0.1465017  91.6949987  41.6925006   0.1465017
  75.6929987  44.5405006   5.7395017  76.6499987  44.5405006   5.7395017
  75.4529987  45.4675006   5.7395017  93.7649987  40.9015006  12.0275017
  94.7219987  40.9015006  12.0275017  93.5249987  41.8285006  12.0275017
  93.7629987  40.8045006 157.2425017  94.7199987  40.8045006 157.2425017
  93.5229987  41.7315006 157.2425017  76.0739987  40.8535006 160.3535017
  77.0309987  40.8535006 160.3535017  75.8339987  41.7805006 160.3535017
  90.8129987  55.7875006   1.7645017  91.7699987  55.7875006   1.7645017
  90.5729987  56.7145006   1.7645017  78.2279987  52.6045006  12.2485017
  79.1849987  52.6045006  12.2485017  77.9879987  53.5315006  12.2485017
  81.1569987  53.6875006   8.5595017  82.1139987  53.6875006   8.5595017
  80.9169987  54.6145006   8.5595017  85.4809987  55.1155006  11.4695017
  86.4379987  55.1155006  11.4695017  85.2409987  56.0425006  11.4695017
  87.7789987  56.3845006  10.7585017  88.7359987  56.3845006  10.7585017
  87.5389987  57.3115006  10.7585017  92.7799987  38.9985006   9.8625017
  93.7369987  38.9985006   9.8625017  92.5399987  39.9255006   9.8625017
  78.5859987  56.9375006   8.5625017  79.5429987  56.9375006   8.5625017
  78.3459987  57.8645006   8.5625017  81.0569987  56.5195006   7.6255017
  82.0139987  56.5195006   7.6255017  80.8169987  57.4465006   7.6255017
  85.7599987  56.4275006   6.7935017  86.7169987  56.4275006   6.7935017
  85.5199987  57.3545006   6.7935017  88.0659987  55.2585006   7.7915017
  89.0229987  55.2585006   7.7915017  87.8259987  56.1855006   7.7915017
  90.6459987  56.8255006   8.0495017  91.6029987  56.8255006   8.0495017
  90.4059987  57.7525006   8.0495017  78.0219987  55.5855006   5.4925017
  78.9789987  55.5855006   5.4925017  77.7819987  56.5125006   5.4925017
  80.1169987  54.2975006   4.1455017  81.0739987  54.2975006   4.1455017
  79.8769987  55.2245006   4.1455017  82.7059987  54.7795006   5.0155017
  83.6629987  54.7795006   5.0155017  82.4659987  55.7065006   5.0155017
  86.1779987  40.4285006   4.1635017  87.1349987  40.4285006   4.1635017
  85.9379987  41.3555006   4.1635017  91.3129987  38.4905006   4.2445017
  92.2699987  38.4905006   4.2445017  91.0729987  39.4175006   4.2445017
  92.9919987  39.7095006   2.5305017  93.9489987  39.7095006   2.5305017
  92.7519987  40.6365006   2.5305017  78.5819987  39.0415006   1.9495017
  79.5389987  39.0415006   1.9495017  78.3419987  39.9685006   1.9495017
  77.3389987  38.8285006 158.3085017  78.2959987  38.8285006 158.3085017
  77.0989987  39.7555006 158.3085017  83.0439987  38.9875006   1.7895017
  84.0009987  38.9875006   1.7895017  82.8039987  39.9145006   1.7895017
  88.7059987  39.0055006   3.4295017  89.6629987  39.0055006   3.4295017
  88.4659987  39.9325006   3.4295017  90.0039987  39.0365006 159.6535017
  90.9609987  39.0365006 159.6535017  89.7639987  39.9635006 159.6535017
  77.2399987  54.7665006 159.2745017  78.1969987  54.7665006 159.2745017
  76.9999987  55.6935006 159.2745017  79.1589987  40.7605006 156.7725017
  80.1159987  40.7605006 156.7725017  78.9189987  41.6875006 156.7725017
  84.1869987  41.0135006 159.1895017  85.1439987  41.0135006 159.1895017
  83.9469987  41.9405006 159.1895017  86.1009987  56.0495006 157.6375017
  87.0579987  56.0495006 157.6375017  85.8609987  56.9765006 157.6375017
  92.8139987  55.5755006 160.3405017  93.7709987  55.5755006 160.3405017
  92.5739987  56.5025006 160.3405017  79.0349987  55.7385006 156.2385017
  79.9919987  55.7385006 156.2385017  78.7949987  56.6655006 156.2385017
  88.8509987  38.2695006  13.2275017  89.8079987  38.2695006  13.2275017
  88.6109987  39.1965006  13.2275017  92.0489987  54.3125006  11.8935017
  93.0059987  54.3125006  11.8935017  91.8089987  55.2395006  11.8935017
 106.4689987  48.1645006   1.8545017 107.4259987  48.1645006   1.8545017
 106.2289987  49.0915006   1.8545017 105.2779987  47.4735006   5.3795017
 106.2349987  47.4735006   5.3795017 105.0379987  48.4005006   5.3795017
  97.7079987  47.1185006   6.9065017  98.6649987  47.1185006   6.9065017
  97.4679987  48.0455006   6.9065017  98.6359987  51.5655006   5.4425017
  99.5929987  51.5655006   5.4425017  98.3959987  52.4925006   5.4425017
  95.2789987  45.1435006   0.9025017  96.2359987  45.1435006   0.9025017
  95.0389987  46.0705006   0.9025017  95.9749987  47.3575006   3.0365017
  96.9319987  47.3575006   3.0365017  95.7349987  48.2845006   3.0365017
 106.1809987  55.5155006   3.8605017 107.1379987  55.5155006   3.8605017
 105.9409987  56.4425006   3.8605017 103.7009987  49.8545006   5.8045017
 104.6579987  49.8545006   5.8045017 103.4609987  50.7815006   5.8045017
 106.2229987  44.0825006   6.0965017 107.1799987  44.0825006   6.0965017
 105.9829987  45.0095006   6.0965017 100.0169987  42.4055006   3.3705017
 100.9739987  42.4055006   3.3705017  99.7769987  43.3325006   3.3705017
 107.7199987  42.9885006   1.3395017 108.6769987  42.9885006   1.3395017
 107.4799987  43.9155006   1.3395017  96.6389987  44.8145006   4.1105017
  97.5959987  44.8145006   4.1105017  96.3989987  45.7415006   4.1105017
 101.7919987  46.3755006   3.3935017 102.7489987  46.3755006   3.3935017
 101.5519987  47.3025006   3.3935017  98.9019987  41.3035006   7.4155017
  99.8589987  41.3035006   7.4155017  98.6619987  42.2305006   7.4155017
 106.2339987  50.8005006   0.9565017 107.1909987  50.8005006   0.9565017
 105.9939987  51.7275006   0.9565017 101.4419987  48.9645006   7.6495017
 102.3989987  48.9645006   7.6495017 101.2019987  49.8915006   7.6495017
  98.4579987  43.1715006   5.4195017  99.4149987  43.1715006   5.4195017
  98.2179987  44.0985006   5.4195017  99.8679987  50.9505006   8.4725017
 100.8249987  50.9505006   8.4725017  99.6279987  51.8775006   8.4725017
  95.9579987  50.5795006 159.8155017  96.9149987  50.5795006 159.8155017
  95.7179987  51.5065006 159.8155017 102.8779987  38.6365006   4.8805017
 103.8349987  38.6365006   4.8805017 102.6379987  39.5635006   4.8805017
 107.5019987  53.8425006   2.2145017 108.4589987  53.8425006   2.2145017
 107.2619987  54.7695006   2.2145017 105.1289987  47.4305006 159.9165017
 106.0859987  47.4305006 159.9165017 104.8889987  48.3575006 159.9165017
 105.1949987  45.9625006 156.9395017 106.1519987  45.9625006 156.9395017
 104.9549987  46.8895006 156.9395017 100.2089987  48.3095006   2.2225017
 101.1659987  48.3095006   2.2225017  99.9689987  49.2365006   2.2225017
 101.5379987  51.7045006   4.9045017 102.4949987  51.7045006   4.9045017
 101.2979987  52.6315006   4.9045017 100.5469987  47.0525006   5.8705017
 101.5039987  47.0525006   5.8705017 100.3069987  47.9795006   5.8705017
 106.5349987  52.6345006   6.6235017 107.4919987  52.6345006   6.6235017
 106.2949987  53.5615006   6.6235017 101.4859987  51.4705006  10.5735017
 102.4429987  51.4705006  10.5735017 101.2459987  52.3975006  10.5735017
 107.4599987  46.8185006 158.5435017 108.4169987  46.8185006 158.5435017
 107.2199987  47.7455006 158.5435017  98.4029987  47.6955006   9.7095017
  99.3599987  47.6955006   9.7095017  98.1629987  48.6225006   9.7095017
 105.0829987  53.5585006   1.4365017 106.0399987  53.5585006   1.4365017
 104.8429987  54.4855006   1.4365017  99.7269987  53.5235006  11.3295017
 100.6839987  53.5235006  11.3295017  99.4869987  54.4505006  11.3295017
  99.1839987  47.3345006 160.3805017 100.1409987  47.3345006 160.3805017
  98.9439987  48.2615006 160.3805017  95.2659987  49.7535006   8.7035017
  96.2229987  49.7535006   8.7035017  95.0259987  50.6805006   8.7035017
  95.0319987  52.4915006   5.5065017  95.9889987  52.4915006   5.5065017
  94.7919987  53.4185006   5.5065017 104.2419987  52.7345006  10.0785017
 105.1989987  52.7345006  10.0785017 104.0019987  53.6615006  10.0785017
 104.6649987  56.4875006 160.4075017 105.6219987  56.4875006 160.4075017
 104.4249987  57.4145006 160.4075017  98.3009987  55.3495006   1.6685017
  99.2579987  55.3495006   1.6685017  98.0609987  56.2765006   1.6685017
 107.7399987  55.6715006 157.3685017 108.6969987  55.6715006 157.3685017
 107.4999987  56.5985006 157.3685017 107.2489987  55.4485006 160.0075017
 108.2059987  55.4485006 160.0075017 107.0089987  56.3755006 160.0075017
  97.5489987  51.0695006   9.6725017  98.5059987  51.0695006   9.6725017
  97.3089987  51.9965006   9.6725017 100.2189987  39.5315006   5.6345017
 101.1759987  39.5315006   5.6345017  99.9789987  40.4585006   5.6345017
 104.8999987  39.2075006   9.0095017 105.8569987  39.2075006   9.0095017
 104.6599987  40.1345006   9.0095017 104.5329987  41.7725006 156.8745017
 105.4899987  41.7725006 156.8745017 104.2929987  42.6995006 156.8745017
 100.2859987  44.4765006   6.7905017 101.2429987  44.4765006   6.7905017
 100.0459987  45.4035006   6.7905017 100.2819987  44.6615006   1.7225017
 101.2389987  44.6615006   1.7225017 100.0419987  45.5885006   1.7225017
 105.7869987  45.1365006   0.5135017 106.7439987  45.1365006   0.5135017
 105.5469987  46.0635006   0.5135017 104.9029987  45.3505006  11.9865017
 105.8599987  45.3505006  11.9865017 104.6629987  46.2775006  11.9865017
 106.7859987  44.5935006   3.3375017 107.7429987  44.5935006   3.3375017
 106.5459987  45.5205006   3.3375017  97.9159987  44.7905006   8.5595017
  98.8729987  44.7905006   8.5595017  97.6759987  45.7175006   8.5595017
 101.3409987  42.1675006 155.9705017 102.2979987  42.1675006 155.9705017
 101.1009987  43.0945006 155.9705017  94.6089987  41.8975006   2.5195017
  95.5659987  41.8975006   2.5195017  94.3689987  42.8245006   2.5195017
  95.8829987  42.6105006 158.4375017  96.8399987  42.6105006 158.4375017
  95.6429987  43.5375006 158.4375017 106.0459987  46.2115006   7.9495017
 107.0029987  46.2115006   7.9495017 105.8059987  47.1385006   7.9495017
 102.8459987  42.1635006   2.7415017 103.8029987  42.1635006   2.7415017
 102.6059987  43.0905006   2.7415017  97.6619987  43.7465006   1.6075017
  98.6189987  43.7465006   1.6075017  97.4219987  44.6735006   1.6075017
 101.3059987  43.7755006 159.7835017 102.2629987  43.7755006 159.7835017
 101.0659987  44.7025006 159.7835017 107.2399987  41.3625006   6.0465017
 108.1969987  41.3625006   6.0465017 106.9999987  42.2895006   6.0465017
 100.0029987  44.9615006 157.3705017 100.9599987  44.9615006 157.3705017
  99.7629987  45.8885006 157.3705017  98.1249987  49.5445006  11.8785017
  99.0819987  49.5445006  11.8785017  97.8849987  50.4715006  11.8785017
 104.0999987  44.9315006   4.5905017 105.0569987  44.9315006   4.5905017
 103.8599987  45.8585006   4.5905017  99.1449987  41.0845006   1.0745017
 100.1019987  41.0845006   1.0745017  98.9049987  42.0115006   1.0745017
 102.7609987  43.2795006   7.0465017 103.7179987  43.2795006   7.0465017
 102.5209987  44.2065006   7.0465017 103.3659987  49.5055006 159.2825017
 104.3229987  49.5055006 159.2825017 103.1259987  50.4325006 159.2825017
 107.1549987  42.3375006 157.4765017 108.1119987  42.3375006 157.4765017
 106.9149987  43.2645006 157.4765017 104.8399987  49.7205006   9.9855017
 105.7969987  49.7205006   9.9855017 104.5999987  50.6475006   9.9855017
   0.1189987  44.3215006 159.1755017   1.0759987  44.3215006 159.1755017
  -0.1210013  45.2485006 159.1755017  98.4609987  48.8735006   4.5405017
  99.4179987  48.8735006   4.5405017  98.2209987  49.8005006   4.5405017
 105.4569987  50.9565006 158.3075017 106.4139987  50.9565006 158.3075017
 105.2169987  51.8835006 158.3075017  95.4489987  47.2905006   9.8305017
  96.4059987  47.2905006   9.8305017  95.2089987  48.2175006   9.8305017
 102.7309987  47.0695006  11.9245017 103.6879987  47.0695006  11.9245017
 102.4909987  47.9965006  11.9245017 107.1529987  52.2185006   9.9165017
 108.1099987  52.2185006   9.9165017 106.9129987  53.1455006   9.9165017
 100.8369987  52.3365006   1.9305017 101.7939987  52.3365006   1.9305017
 100.5969987  53.2635006   1.9305017  96.5989987  47.1835006 157.0435017
  97.5559987  47.1835006 157.0435017  96.3589987  48.1105006 157.0435017
 102.2539987  50.0045006   1.4565017 103.2109987  50.0045006   1.4565017
 102.0139987  50.9315006   1.4565017 102.7069987  54.1765006   7.8465017
 103.6639987  54.1765006   7.8465017 102.4669987  55.1035006   7.8465017
 100.9349987  55.0055006   0.9965017 101.8919987  55.0055006   0.9965017
 100.6949987  55.9325006   0.9965017 106.2759987  50.1885006   7.5045017
 107.2329987  50.1885006   7.5045017 106.0359987  51.1155006   7.5045017
  97.1069987  42.0175006   9.3575017  98.0639987  42.0175006   9.3575017
  96.8669987  42.9445006   9.3575017  96.7289987  53.8235006   7.7945017
  97.6859987  53.8235006   7.7945017  96.4889987  54.7505006   7.7945017
 102.6679987  52.3325006 155.5835017 103.6249987  52.3325006 155.5835017
 102.4279987  53.2595006 155.5835017 101.4919987  51.8595006 158.0465017
 102.4489987  51.8595006 158.0465017 101.2519987  52.7865006 158.0465017
  98.0039987  49.1065006 158.5395017  98.9609987  49.1065006 158.5395017
  97.7639987  50.0335006 158.5395017 105.8499987  41.7805006   8.3115017
 106.8069987  41.7805006   8.3115017 105.6099987  42.7075006   8.3115017
 106.3259987  41.6015006 159.9155017 107.2829987  41.6015006 159.9155017
 106.0859987  42.5285006 159.9155017 104.2859987  53.5265006 158.7725017
 105.2429987  53.5265006 158.7725017 104.0459987  54.4535006 158.7725017
 103.7909987  43.1555006   0.2165017 104.7479987  43.1555006   0.2165017
 103.5509987  44.0825006   0.2165017 104.3479987  44.1075006   9.4105017
 105.3049987  44.1075006   9.4105017 104.1079987  45.0345006   9.4105017
 104.6989987  40.1925006   1.1325017 105.6559987  40.1925006   1.1325017
 104.4589987  41.1195006   1.1325017 101.6349987  54.5655006 158.7705017
 102.5919987  54.5655006 158.7705017 101.3949987  55.4925006 158.7705017
 100.3249987  41.2805006 158.3715017 101.2819987  41.2805006 158.3715017
 100.0849987  42.2075006 158.3715017  98.5649987  51.7235006 157.4205017
  99.5219987  51.7235006 157.4205017  98.3249987  52.6505006 157.4205017
  96.9079987  44.3945006 156.5485017  97.8649987  44.3945006 156.5485017
  96.6679987  45.3215006 156.5485017  97.7239987  39.1845006   4.7315017
  98.6809987  39.1845006   4.7315017  97.4839987  40.1115006   4.7315017
  96.6739987  53.1015006   0.8785017  97.6309987  53.1015006   0.8785017
  96.4339987  54.0285006   0.8785017  95.8949987  55.7505006  12.1795017
  96.8519987  55.7505006  12.1795017  95.6549987  56.6775006  12.1795017
 100.5549987  54.6765006  13.7925017 101.5119987  54.6765006  13.7925017
 100.3149987  55.6035006  13.7925017 104.7059987  54.1705006 155.7205017
 105.6629987  54.1705006 155.7205017 104.4659987  55.0975006 155.7205017
 107.1359987  53.0545006  12.5245017 108.0929987  53.0545006  12.5245017
 106.8959987  53.9815006  12.5245017  95.8049987  49.5365006  13.1715017
  96.7619987  49.5365006  13.1715017  95.5649987  50.4635006  13.1715017
 100.1399987  49.8755006 155.7575017 101.0969987  49.8755006 155.7575017
  99.8999987  50.8025006 155.7575017 102.5139987  49.5485006  12.5735017
 103.4709987  49.5485006  12.5735017 102.2739987  50.4755006  12.5735017
 105.5959987  50.9545006 155.5255017 106.5529987  50.9545006 155.5255017
 105.3559987  51.8815006 155.5255017  96.6659987  46.7495006  12.5485017
  97.6229987  46.7495006  12.5485017  96.4259987  47.6765006  12.5485017
 101.3409987  47.8845006 158.1435017 102.2979987  47.8845006 158.1435017
 101.1009987  48.8115006 158.1435017 100.4279987  45.7615006   9.2305017
 101.3849987  45.7615006   9.2305017 100.1879987  46.6885006   9.2305017
 102.4109987  46.1055006 156.3565017 103.3679987  46.1055006 156.3565017
 102.1709987  47.0325006 156.3565017 105.6769987  48.2535006  13.2675017
 106.6339987  48.2535006  13.2675017 105.4369987  49.1805006  13.2675017
 101.0499987  42.9755006  10.9565017 102.0069987  42.9755006  10.9565017
 100.8099987  43.9025006  10.9565017 101.4159987  41.4315006   8.5025017
 102.3729987  41.4315006   8.5025017 101.1759987  42.3585006   8.5025017
 102.9939987  46.9355006   8.7635017 103.9509987  46.9355006   8.7635017
 102.7539987  47.8625006   8.7635017 107.3909987  44.7275006  13.8435017
 108.3479987  44.7275006  13.8435017 107.1509987  45.6545006  13.8435017
  99.3139987  43.6075006  13.3885017 100.2709987  43.6075006  13.3885017
  99.0739987  44.5345006  13.3885017 102.2169987  38.9055006   8.9225017
 103.1739987  38.9055006   8.9225017 101.9769987  39.8325006   8.9225017
 103.4799987  43.2125006  12.5255017 104.4369987  43.2125006  12.5255017
 103.2399987  44.1395006  12.5255017 106.1349987  42.3365006  11.5785017
 107.0919987  42.3365006  11.5785017 105.8949987  43.2635006  11.5785017
 107.7739987  41.0345006  13.5195017 108.7309987  41.0345006  13.5195017
 107.5339987  41.9615006  13.5195017  97.4119987  42.1685006  12.5765017
  98.3689987  42.1685006  12.5765017  97.1719987  43.0955006  12.5765017
 102.4109987  38.2695006  11.6155017 103.3679987  38.2695006  11.6155017
 102.1709987  39.1965006  11.6155017 102.7799987  39.9045006  13.6995017
 103.7369987  39.9045006  13.6995017 102.5399987  40.8315006  13.6995017
 102.2629987  56.8065006 157.4285017 103.2199987  56.8065006 157.4285017
 102.0229987  57.7335006 157.4285017  95.8229987  51.4055006 156.8965017
  96.7799987  51.4055006 156.8965017  95.5829987  52.3325006 156.8965017
  94.5789987  56.7885006   1.3435017  95.5359987  56.7885006   1.3435017
  94.3389987  57.7155006   1.3435017  95.4079987  54.9065006   3.1975017
  96.3649987  54.9065006   3.1975017  95.1679987  55.8335006   3.1975017
  95.4659987  47.9815006   5.6915017  96.4229987  47.9815006   5.6915017
  95.2259987  48.9085006   5.6915017  95.0689987  43.2795006  11.8275017
  96.0259987  43.2795006  11.8275017  94.8289987  44.2065006  11.8275017
  96.2779987  41.5705006   4.6965017  97.2349987  41.5705006   4.6965017
  96.0379987  42.4975006   4.6965017  94.5679987  44.5655006   5.7465017
  95.5249987  44.5655006   5.7465017  94.3279987  45.4925006   5.7465017
  94.9319987  40.8405006 160.3625017  95.8889987  40.8405006 160.3625017
  94.6919987  41.7675006 160.3625017  94.8849987  39.5085006   8.1215017
  95.8419987  39.5085006   8.1215017  94.6449987  40.4355006   8.1215017
  97.1059987  52.6965006  12.2805017  98.0629987  52.6965006  12.2805017
  96.8659987  53.6235006  12.2805017 100.0169987  53.6905006   8.5525017
 100.9739987  53.6905006   8.5525017  99.7769987  54.6175006   8.5525017
 104.3349987  55.1245006  11.4935017 105.2919987  55.1245006  11.4935017
 104.0949987  56.0515006  11.4935017 106.6879987  56.4255006  10.7205017
 107.6449987  56.4255006  10.7205017 106.4479987  57.3525006  10.7205017
  97.4419987  56.9375006   8.5625017  98.3989987  56.9375006   8.5625017
  97.2019987  57.8645006   8.5625017  99.9129987  56.5185006   7.6265017
 100.8699987  56.5185006   7.6265017  99.6729987  57.4455006   7.6265017
 104.5959987  56.4285006   6.7995017 105.5529987  56.4285006   6.7995017
 104.3559987  57.3555006   6.7995017 106.9359987  55.2945006   7.8095017
 107.8929987  55.2945006   7.8095017 106.6959987  56.2215006   7.8095017
  96.8759987  55.5845006   5.4925017  97.8329987  55.5845006   5.4925017
  96.6359987  56.5115006   5.4925017  98.9709987  54.2975006   4.1455017
  99.9279987  54.2975006   4.1455017  98.7309987  55.2245006   4.1455017
 101.5379987  54.7795006   5.0145017 102.4949987  54.7795006   5.0145017
 101.2979987  55.7065006   5.0145017 105.0119987  40.4195006   4.1415017
 105.9689987  40.4195006   4.1415017 104.7719987  41.3465006   4.1415017
  97.3939987  39.0615006   1.9995017  98.3509987  39.0615006   1.9995017
  97.1539987  39.9885006   1.9995017  96.1829987  38.8185006 158.2885017
  97.1399987  38.8185006 158.2885017  95.9429987  39.7455006 158.2885017
 101.8999987  38.9695006   1.7885017 102.8569987  38.9695006   1.7885017
 101.6599987  39.8965006   1.7885017 107.4669987  38.9265006   3.5905017
 108.4239987  38.9265006   3.5905017 107.2269987  39.8535006   3.5905017
  96.0959987  54.7675006 159.2745017  97.0529987  54.7675006 159.2745017
  95.8559987  55.6945006 159.2745017  98.0149987  40.7585006 156.7755017
  98.9719987  40.7585006 156.7755017  97.7749987  41.6855006 156.7755017
 103.0449987  41.0095006 159.1905017 104.0019987  41.0095006 159.1905017
 102.8049987  41.9365006 159.1905017 104.9369987  56.0505006 157.6245017
 105.8939987  56.0505006 157.6245017 104.6969987  56.9775006 157.6245017
  97.2969987  39.5885006  11.4525017  98.2539987  39.5885006  11.4525017
  97.0569987  40.5155006  11.4525017  99.2929987  38.9675006  13.0735017
 100.2499987  38.9675006  13.0735017  99.0529987  39.8945006  13.0735017
  97.8909987  55.7385006 156.2385017  98.8479987  55.7385006 156.2385017
  97.6509987  56.6655006 156.2385017  -0.0900013  38.3315006  13.2665017
   0.8669987  38.3315006  13.2665017  -0.3300013  39.2585006  13.2665017
  12.1999987  67.0495006   1.8845017  13.1569987  67.0495006   1.8845017
  11.9599987  67.9765006   1.8845017  11.0719987  66.3165006   5.3685017
  12.0289987  66.3165006   5.3685017  10.8319987  67.2435006   5.3685017
   3.4769987  65.9475006   6.8985017   4.4339987  65.9475006   6.8985017
   3.2369987  66.8745006   6.8985017  14.7709987  69.2555006   3.6465017
  15.7279987  69.2555006   3.6465017  14.5309987  70.1825006   3.6465017
   4.3399987  70.4175006   5.4495017   5.2969987  70.4175006   5.4495017
   4.0999987  71.3445006   5.4495017   1.0659987  64.0945006   0.8535017
   2.0229987  64.0945006   0.8535017   0.8259987  65.0215006   0.8535017
   1.6879987  66.1855006   3.0325017   2.6449987  66.1855006   3.0325017
   1.4479987  67.1125006   3.0325017  11.8829987  74.4055006   3.8825017
  12.8399987  74.4055006   3.8825017  11.6429987  75.3325006   3.8825017
   9.4479987  68.7225006   5.8115017  10.4049987  68.7225006   5.8115017
   9.2079987  69.6495006   5.8115017  18.0679987  60.3565006   6.5795017
  19.0249987  60.3565006   6.5795017  17.8279987  61.2835006   6.5795017
  12.6129987  63.1755006   6.1365017  13.5699987  63.1755006   6.1365017
  12.3729987  64.1025006   6.1365017   5.7359987  61.2565006   3.3585017
   6.6929987  61.2565006   3.3585017   5.4959987  62.1835006   3.3585017
  13.4679987  61.3525006   1.7405017  14.4249987  61.3525006   1.7405017
  13.2279987  62.2795006   1.7405017   2.5409987  63.7155006   4.0095017
   3.4979987  63.7155006   4.0095017   2.3009987  64.6425006   4.0095017
   7.5189987  65.2255006   3.3945017   8.4759987  65.2255006   3.3945017
   7.2789987  66.1525006   3.3945017  18.4999987  61.7875006   8.8355017
  19.4569987  61.7875006   8.8355017  18.2599987  62.7145006   8.8355017
   4.6289987  60.1675006   7.4255017   5.5859987  60.1675006   7.4255017
   4.3889987  61.0945006   7.4255017  11.9369987  69.6515006   0.9585017
  12.8939987  69.6515006   0.9585017  11.6969987  70.5785006   0.9585017
   7.1539987  67.8095006   7.6695017   8.1109987  67.8095006   7.6695017
   6.9139987  68.7365006   7.6695017  15.2619987  60.6875006   3.7325017
  16.2189987  60.6875006   3.7325017  15.0219987  61.6145006   3.7325017
   4.2039987  62.0025006   5.4405017   5.1609987  62.0025006   5.4405017
   3.9639987  62.9295006   5.4405017   5.5919987  69.7985006   8.4735017
   6.5489987  69.7985006   8.4735017   5.3519987  70.7255006   8.4735017
   1.7049987  69.4525006 159.7855017   2.6619987  69.4525006 159.7855017
   1.4649987  70.3795006 159.7855017  15.2939987  71.0905006   6.0155017
  16.2509987  71.0905006   6.0155017  15.0539987  72.0175006   6.0155017
  15.6089987  59.3795006   7.4135017  16.5659987  59.3795006   7.4135017
  15.3689987  60.3065006   7.4135017   8.5889987  57.4905006   4.8715017
   9.5459987  57.4905006   4.8715017   8.3489987  58.4175006   4.8715017
  13.5469987  72.8755006   2.6185017  14.5039987  72.8755006   2.6185017
  13.3069987  73.8025006   2.6185017  14.7479987  70.8025006   1.1255017
  15.7049987  70.8025006   1.1255017  14.5079987  71.7295006   1.1255017
  16.3839987  69.3835006   9.6205017  17.3409987  69.3835006   9.6205017
  16.1439987  70.3105006   9.6205017  10.8749987  66.2935006 159.9365017
  11.8319987  66.2935006 159.9365017  10.6349987  67.2205006 159.9365017
  10.9349987  64.8265006 156.9455017  11.8919987  64.8265006 156.9455017
  10.6949987  65.7535006 156.9455017  18.2599987  65.6975006   7.6745017
  19.2169987  65.6975006   7.6745017  18.0199987  66.6245006   7.6745017
  14.3119987  66.5075006   0.3065017  15.2689987  66.5075006   0.3065017
  14.0719987  67.4345006   0.3065017  14.2349987  64.6675006   9.4155017
  15.1919987  64.6675006   9.4155017  13.9949987  65.5945006   9.4155017
   5.9519987  67.1765006   2.2205017   6.9089987  67.1765006   2.2205017
   5.7119987  68.1035006   2.2205017   7.2599987  70.5615006   4.8995017
   8.2169987  70.5615006   4.8995017   7.0199987  71.4885006   4.8995017
   6.2839987  65.9095006   5.8725017   7.2409987  65.9095006   5.8725017
   6.0439987  66.8365006   5.8725017  12.6449987  71.4705006   6.5765017
  13.6019987  71.4705006   6.5765017  12.4049987  72.3975006   6.5765017
   7.2049987  70.3275006  10.5755017   8.1619987  70.3275006  10.5755017
   6.9649987  71.2545006  10.5755017  13.1769987  65.6905006 158.5265017
  14.1339987  65.6905006 158.5265017  12.9369987  66.6175006 158.5265017
   4.1249987  66.4995006   9.7655017   5.0819987  66.4995006   9.7655017
   3.8849987  67.4265006   9.7655017  10.8979987  72.4185006   1.4455017
  11.8549987  72.4185006   1.4455017  10.6579987  73.3455006   1.4455017
   5.4409987  72.3775006  11.3315017   6.3979987  72.3775006  11.3315017
   5.2009987  73.3045006  11.3315017  16.9029987  57.4255006 158.3955017
  17.8599987  57.4255006 158.3955017  16.6629987  58.3525006 158.3955017
   4.9259987  66.2015006 160.3795017   5.8829987  66.2015006 160.3795017
   4.6859987  67.1285006 160.3795017  18.0269987  71.7825006 156.7615017
  18.9839987  71.7825006 156.7615017  17.7869987  72.7095006 156.7615017
   1.1249987  68.5855006   8.6535017   2.0819987  68.5855006   8.6535017
   0.8849987  69.5125006   8.6535017   1.0109987  71.4805006   5.2305017
   1.9679987  71.4805006   5.2305017   0.7709987  72.4075006   5.2305017
  18.9889987  72.0475006  11.1925017  19.9459987  72.0475006  11.1925017
  18.7489987  72.9745006  11.1925017   9.9459987  71.5915006  10.0575017
  10.9029987  71.5915006  10.0575017   9.7059987  72.5185006  10.0575017
  10.3799987  75.3405006 160.4045017  11.3369987  75.3405006 160.4045017
  10.1399987  76.2675006 160.4045017   4.0209987  74.1995006   1.6525017
   4.9779987  74.1995006   1.6525017   3.7809987  75.1265006   1.6525017
  13.4449987  74.5455006 157.3875017  14.4019987  74.5455006 157.3875017
  13.2049987  75.4725006 157.3875017  13.1339987  74.4725006 160.1515017
  14.0909987  74.4725006 160.1515017  12.8939987  75.3995006 160.1515017
  16.1299987  63.5205006  11.6775017  17.0869987  63.5205006  11.6775017
  15.8899987  64.4475006  11.6775017   3.2619987  69.9565006   9.6835017
   4.2189987  69.9565006   9.6835017   3.0219987  70.8835006   9.6835017
   5.9369987  58.3975006   5.6235017   6.8939987  58.3975006   5.6235017
   5.6969987  59.3245006   5.6235017  10.5819987  58.0785006   8.9985017
  11.5389987  58.0785006   8.9985017  10.3419987  59.0055006   8.9985017
  13.8849987  61.8955006   9.8865017  14.8419987  61.8955006   9.8865017
  13.6449987  62.8225006   9.8865017  14.6309987  66.7275006 156.2755017
  15.5879987  66.7275006 156.2755017  14.3909987  67.6545006 156.2755017
  10.2349987  60.6375006 156.8385017  11.1919987  60.6375006 156.8385017
   9.9949987  61.5645006 156.8385017   6.0449987  63.3595006   6.8455017
   7.0019987  63.3595006   6.8455017   5.8049987  64.2865006   6.8455017
   5.9849987  63.5165006   1.7245017   6.9419987  63.5165006   1.7245017
   5.7449987  64.4435006   1.7245017  11.5239987  63.9875006   0.5145017
  12.4809987  63.9875006   0.5145017  11.2839987  64.9145006   0.5145017
  10.5989987  64.1935006  11.9545017  11.5559987  64.1935006  11.9545017
  10.3589987  65.1205006  11.9545017  12.5529987  63.4675006   3.3445017
  13.5099987  63.4675006   3.3445017  12.3129987  64.3945006   3.3445017
   3.7039987  63.6345006   8.5845017   4.6609987  63.6345006   8.5845017
   3.4639987  64.5615006   8.5845017   7.0789987  61.0245006 155.9485017
   8.0359987  61.0245006 155.9485017   6.8389987  61.9515006 155.9485017
   0.4279987  60.0575006   2.8555017   1.3849987  60.0575006   2.8555017
   0.1879987  60.9845006   2.8555017   1.8009987  61.4675006 158.5375017
   2.7579987  61.4675006 158.5375017   1.5609987  62.3945006 158.5375017
  11.7689987  65.0715006   7.9305017  12.7259987  65.0715006   7.9305017
  11.5289987  65.9985006   7.9305017   8.5619987  61.0285006   2.7455017
   9.5189987  61.0285006   2.7455017   8.3219987  61.9555006   2.7455017
   3.3929987  62.5805006   1.5965017   4.3499987  62.5805006   1.5965017
   3.1529987  63.5075006   1.5965017   7.0239987  62.6295006 159.7745017
   7.9809987  62.6295006 159.7745017   6.7839987  63.5565006 159.7745017
  12.9729987  60.2665006   5.9935017  13.9299987  60.2665006   5.9935017
  12.7329987  61.1935006   5.9935017   5.7079987  63.8225006 157.3625017
   6.6649987  63.8225006 157.3625017   5.4679987  64.7495006 157.3625017
  16.1869987  75.9155006  12.3095017  17.1439987  75.9155006  12.3095017
  15.9469987  76.8425006  12.3095017   3.8569987  68.3615006  11.8935017
   4.8139987  68.3615006  11.8935017   3.6169987  69.2885006  11.8935017
   9.8569987  63.7945006   4.6405017  10.8139987  63.7945006   4.6405017
   9.6169987  64.7215006   4.6405017   4.8559987  59.9465006   1.0575017
   5.8129987  59.9465006   1.0575017   4.6159987  60.8735006   1.0575017
   8.4939987  62.1335006   7.0525017   9.4509987  62.1335006   7.0525017
   8.2539987  63.0605006   7.0525017   9.0799987  68.3595006 159.2865017
  10.0369987  68.3595006 159.2865017   8.8399987  69.2865006 159.2865017
  16.2429987  67.5345006   7.5515017  17.1999987  67.5345006   7.5515017
  16.0029987  68.4615006   7.5515017  12.9189987  61.1715006 157.4685017
  13.8759987  61.1715006 157.4685017  12.6789987  62.0985006 157.4685017
  10.5669987  68.5975006   9.9865017  11.5239987  68.5975006   9.9865017
  10.3269987  69.5245006   9.9865017  13.6479987  63.0735006 159.1125017
  14.6049987  63.0735006 159.1125017  13.4079987  64.0005006 159.1125017
   4.1839987  67.7325006   4.5455017   5.1409987  67.7325006   4.5455017
   3.9439987  68.6595006   4.5455017  11.1849987  69.8245006 158.3185017
  12.1419987  69.8245006 158.3185017  10.9449987  70.7515006 158.3185017
   1.1629987  66.1505006   9.8245017   2.1199987  66.1505006   9.8245017
   0.9229987  67.0775006   9.8245017   8.1889987  65.7025006  12.0075017
   9.1459987  65.7025006  12.0075017   7.9489987  66.6295006  12.0075017
  12.8599987  71.0335006   9.9295017  13.8169987  71.0335006   9.9295017
  12.6199987  71.9605006   9.9295017  18.5539987  63.2265006 158.8665017
  19.5109987  63.2265006 158.8665017  18.3139987  64.1535006 158.8665017
  18.5279987  69.0865006  11.1475017  19.4849987  69.0865006  11.1475017
  18.2879987  70.0135006  11.1475017  16.8159987  72.0555006 159.2795017
  17.7729987  72.0555006 159.2795017  16.5759987  72.9825006 159.2795017
  14.0339987  66.8695006   5.8245017  14.9909987  66.8695006   5.8245017
  13.7939987  67.7965006   5.8245017   6.5689987  71.1865006   1.9295017
   7.5259987  71.1865006   1.9295017   6.3289987  72.1135006   1.9295017
   2.2869987  66.0315006 157.0705017   3.2439987  66.0315006 157.0705017
   2.0469987  66.9585006 157.0705017   7.9829987  68.8575006   1.4555017
   8.9399987  68.8575006   1.4555017   7.7429987  69.7845006   1.4555017
   8.4319987  73.0375006   7.8465017   9.3889987  73.0375006   7.8465017
   8.1919987  73.9645006   7.8465017   6.6629987  73.8575006   0.9925017
   7.6199987  73.8575006   0.9925017   6.4229987  74.7845006   0.9925017
  11.9769987  69.0655006   7.4885017  12.9339987  69.0655006   7.4885017
  11.7369987  69.9925006   7.4885017  14.2709987  70.1005006 157.1115017
  15.2279987  70.1005006 157.1115017  14.0309987  71.0275006 157.1115017
  14.7449987  73.6355006   9.9825017  15.7019987  73.6355006   9.9825017
  14.5049987  74.5625006   9.9825017  18.7469987  74.4775006 157.3545017
  19.7039987  74.4775006 157.3545017  18.5069987  75.4045006 157.3545017
   2.8079987  60.8835006   9.3695017   3.7649987  60.8835006   9.3695017
   2.5679987  61.8105006   9.3695017  15.0669987  68.7435006 159.3465017
  16.0239987  68.7435006 159.3465017  14.8269987  69.6705006 159.3465017
   2.4749987  72.6845006   7.7775017   3.4319987  72.6845006   7.7775017
   2.2349987  73.6115006   7.7775017   8.3909987  71.1855006 155.5915017
   9.3479987  71.1855006 155.5915017   8.1509987  72.1125006 155.5915017
   7.2229987  70.7175006 158.0455017   8.1799987  70.7175006 158.0455017
   6.9829987  71.6445006 158.0455017   3.6919987  67.9445006 158.5275017
   4.6489987  67.9445006 158.5275017   3.4519987  68.8715006 158.5275017
  11.5539987  60.6515006   8.3025017  12.5109987  60.6515006   8.3025017
  11.3139987  61.5785006   8.3025017  12.3139987  60.2345006 159.9365017
  13.2709987  60.2345006 159.9365017  12.0739987  61.1615006 159.9365017
   9.9969987  72.3875006 158.7665017  10.9539987  72.3875006 158.7665017
   9.7569987  73.3145006 158.7665017   9.5309987  61.9895006   0.2195017
  10.4879987  61.9895006   0.2195017   9.2909987  62.9165006   0.2195017
  10.0819987  62.9995006   9.4075017  11.0389987  62.9995006   9.4075017
   9.8419987  63.9265006   9.4075017  10.3919987  59.0475006   1.1255017
  11.3489987  59.0475006   1.1255017  10.1519987  59.9745006   1.1255017
   7.3789987  73.4235006 158.7765017   8.3359987  73.4235006 158.7765017
   7.1389987  74.3505006 158.7765017   6.0499987  60.1405006 158.3655017
   7.0069987  60.1405006 158.3655017   5.8099987  61.0675006 158.3655017
  16.2759987  60.8755006  10.2555017  17.2329987  60.8755006  10.2555017
  16.0359987  61.8025006  10.2555017  14.8759987  64.6605006   4.2865017
  15.8329987  64.6605006   4.2865017  14.6359987  65.5875006   4.2865017
   4.2919987  70.5845006 157.4115017   5.2489987  70.5845006 157.4115017
   4.0519987  71.5115006 157.4115017   2.5799987  63.2615006 156.5945017
   3.5369987  63.2615006 156.5945017   2.3399987  64.1885006 156.5945017
  15.9429987  73.9075006   5.9485017  16.8999987  73.9075006   5.9485017
  15.7029987  74.8345006   5.9485017   3.4639987  58.0385006   4.7165017
   4.4209987  58.0385006   4.7165017   3.2239987  58.9655006   4.7165017
   2.3869987  71.9695006   0.8905017   3.3439987  71.9695006   0.8905017
   2.1469987  72.8965006   0.8905017   1.7139987  74.5545006  12.1115017
   2.6709987  74.5545006  12.1115017   1.4739987  75.4815006  12.1115017
   6.2709987  73.5165006  13.7935017   7.2279987  73.5165006  13.7935017
   6.0309987  74.4435006  13.7935017  10.3969987  73.0405006 155.7255017
  11.3539987  73.0405006 155.7255017  10.1569987  73.9675006 155.7255017
  12.8009987  71.9065006  12.5265017  13.7579987  71.9065006  12.5265017
  12.5609987  72.8335006  12.5265017  14.9679987  72.7985006 155.9245017
  15.9249987  72.7985006 155.9245017  14.7279987  73.7255006 155.9245017
   1.5089987  68.3945006  13.1665017   2.4659987  68.3945006  13.1665017
   1.2689987  69.3215006  13.1665017   5.8669987  68.7325006 155.7575017
   6.8239987  68.7325006 155.7575017   5.6269987  69.6595006 155.7575017
   8.2309987  68.3705006  12.5615017   9.1879987  68.3705006  12.5615017
   7.9909987  69.2975006  12.5615017  11.2829987  69.8255006 155.5185017
  12.2399987  69.8255006 155.5185017  11.0429987  70.7525006 155.5185017
  13.9349987  68.2405006   9.9485017  14.8919987  68.2405006   9.9485017
  13.6949987  69.1675006   9.9485017   2.3629987  65.5895006  12.5445017
   3.3199987  65.5895006  12.5445017   2.1229987  66.5165006  12.5445017
   7.0609987  66.7405006 158.1435017   8.0179987  66.7405006 158.1435017
   6.8209987  67.6675006 158.1435017   6.3379987  64.5665006   9.9175017
   7.2949987  64.5665006   9.9175017   6.0979987  65.4935006   9.9175017
   8.1329987  64.9615006 156.3665017   9.0899987  64.9615006 156.3665017
   7.8929987  65.8885006 156.3665017  11.3939987  67.1115006  13.2325017
  12.3509987  67.1115006  13.2325017  11.1539987  68.0385006  13.2325017
  17.4899987  67.2925006 155.7955017  18.4469987  67.2925006 155.7955017
  17.2499987  68.2195006 155.7955017   6.7329987  61.9405006  10.9855017
   7.6899987  61.9405006  10.9855017   6.4929987  62.8675006  10.9855017
   7.1309987  60.3185006   8.5175017   8.0879987  60.3185006   8.5175017
   6.8909987  61.2455006   8.5175017   8.6809987  65.7865006   8.7645017
   9.6379987  65.7865006   8.7645017   8.4409987  66.7135006   8.7645017
  13.0829987  63.5635006  13.7505017  14.0399987  63.5635006  13.7505017
  12.8429987  64.4905006  13.7505017  14.4119987  66.3455006  11.8755017
  15.3689987  66.3455006  11.8755017  14.1719987  67.2725006  11.8755017
   5.1809987  63.1895006  12.8945017   6.1379987  63.1895006  12.8945017
   4.9409987  64.1165006  12.8945017   7.9129987  57.7625006   8.9295017
   8.8699987  57.7625006   8.9295017   7.6729987  58.6895006   8.9295017
   9.1969987  62.0865006  12.5235017  10.1539987  62.0865006  12.5235017
   8.9569987  63.0135006  12.5235017  11.9139987  61.2225006  11.5985017
  12.8709987  61.2225006  11.5985017  11.6739987  62.1495006  11.5985017
  13.5089987  59.8525006  13.5425017  14.4659987  59.8525006  13.5425017
  13.2689987  60.7795006  13.5425017   3.3269987  61.1145006  12.6415017
   4.2839987  61.1145006  12.6415017   3.0869987  62.0415006  12.6415017
   8.1359987  57.1245006  11.6155017   9.0929987  57.1245006  11.6155017
   7.8959987  58.0515006  11.6155017   8.5029987  58.7575006  13.7045017
   9.4599987  58.7575006  13.7045017   8.2629987  59.6845006  13.7045017
   7.9809987  75.6585006 157.4275017   8.9379987  75.6585006 157.4275017
   7.7409987  76.5855006 157.4275017   1.5899987  70.2715006 156.8815017
   2.5469987  70.2715006 156.8815017   1.3499987  71.1985006 156.8815017
 108.0929987  75.6965006   1.3585017 109.0499987  75.6965006   1.3585017
 107.8529987  76.6235006   1.3585017   1.5129987  73.9105006   3.3095017
   2.4699987  73.9105006   3.3095017   1.2729987  74.8375006   3.3095017
  18.6619987  74.5595006   6.1485017  19.6189987  74.5595006   6.1485017
  18.4219987  75.4865006   6.1485017  18.2419987  74.1555006   9.0925017
  19.1989987  74.1555006   9.0925017  18.0019987  75.0825006   9.0925017
  16.6829987  69.8875006  13.7475017  17.6399987  69.8875006  13.7475017
  16.4429987  70.8145006  13.7475017  17.9899987  68.1995006 159.7455017
  18.9469987  68.1995006 159.7455017  17.7499987  69.1265006 159.7455017
  18.3649987  66.2705006   1.0705017  19.3219987  66.2705006   1.0705017
  18.1249987  67.1975006   1.0705017  18.1199987  68.9865006   6.0535017
  19.0769987  68.9865006   6.0535017  17.8799987  69.9135006   6.0535017
  16.6659987  71.8835006   8.3345017  17.6229987  71.8835006   8.3345017
  16.4259987  72.8105006   8.3345017  18.6619987  66.1065006 158.0105017
  19.6189987  66.1065006 158.0105017  18.4219987  67.0335006 158.0105017
  17.0289987  63.3445006 156.5325017  17.9859987  63.3445006 156.5325017
  16.7889987  64.2715006 156.5325017  16.1769987  64.7555006   1.6345017
  17.1339987  64.7555006   1.6345017  15.9369987  65.6825006   1.6345017
   1.1829987  66.8265006   5.6975017   2.1399987  66.8265006   5.6975017
   0.9429987  67.7535006   5.6975017  17.0289987  66.7235006  11.3145017
  17.9859987  66.7235006  11.3145017  16.7889987  67.6505006  11.3145017
  18.5349987  64.6155006  11.9785017  19.4919987  64.6155006  11.9785017
  18.2949987  65.5425006  11.9785017  16.2689987  60.8015006 155.6645017
  17.2259987  60.8015006 155.6645017  16.0289987  61.7285006 155.6645017
  15.8369987  62.3375006 160.6145017  16.7939987  62.3375006 160.6145017
  15.5969987  63.2645006 160.6145017  16.4819987  62.8835006   5.5385017
  17.4389987  62.8835006   5.5385017  16.2419987  63.8105006   5.5385017
  16.5489987  63.6115006   8.3265017  17.5059987  63.6115006   8.3265017
  16.3089987  64.5385006   8.3265017   0.8809987  62.0985006  11.7565017
   1.8379987  62.0985006  11.7565017   0.6409987  63.0255006  11.7565017
  18.8129987  57.6515006  13.6745017  19.7699987  57.6515006  13.6745017
  18.5729987  58.5785006  13.6745017  16.5109987  59.6215006   0.1465017
  17.4679987  59.6215006   0.1465017  16.2709987  60.5485006   0.1465017
   2.0859987  60.4565006   4.6875017   3.0429987  60.4565006   4.6875017
   1.8459987  61.3835006   4.6875017   0.8899987  63.3885006   5.9005017
   1.8469987  63.3885006   5.9005017   0.6499987  64.3155006   5.9005017
  18.3439987  59.7575006  12.0275017  19.3009987  59.7575006  12.0275017
  18.1039987  60.6845006  12.0275017  18.3389987  59.6605006 157.2425017
  19.2959987  59.6605006 157.2425017  18.0989987  60.5875006 157.2425017
   0.8919987  59.6335006 160.3745017   1.8489987  59.6335006 160.3745017
   0.6519987  60.5605006 160.3745017  15.3889987  74.6435006   1.7645017
  16.3459987  74.6435006   1.7645017  15.1489987  75.5705006   1.7645017
 108.3279987  58.3465006   8.1475017 109.2849987  58.3465006   8.1475017
 108.0879987  59.2735006   8.1475017   2.8149987  71.5755006  12.2965017
   3.7719987  71.5755006  12.2965017   2.5749987  72.5025006  12.2965017
   5.7349987  72.5475006   8.5555017   6.6919987  72.5475006   8.5555017
   5.4949987  73.4745006   8.5555017  10.0569987  73.9715006  11.4705017
  11.0139987  73.9715006  11.4705017   9.8169987  74.8985006  11.4705017
  12.3549987  75.2405006  10.7585017  13.3119987  75.2405006  10.7585017
  12.1149987  76.1675006  10.7585017  17.3559987  57.8545006   9.8625017
  18.3129987  57.8545006   9.8625017  17.1159987  58.7815006   9.8625017
   3.1499987  75.8035006   8.5855017   4.1069987  75.8035006   8.5855017
   2.9099987  76.7305006   8.5855017   5.6469987  75.3855006   7.6295017
   6.6039987  75.3855006   7.6295017   5.4069987  76.3125006   7.6295017
  10.3349987  75.2835006   6.7935017  11.2919987  75.2835006   6.7935017
  10.0949987  76.2105006   6.7935017  12.6419987  74.1145006   7.7915017
  13.5989987  74.1145006   7.7915017  12.4019987  75.0415006   7.7915017
  15.2229987  75.6815006   8.0495017  16.1799987  75.6815006   8.0495017
  14.9829987  76.6085006   8.0495017   2.6379987  74.4615006   5.5505017
   3.5949987  74.4615006   5.5505017   2.3979987  75.3885006   5.5505017
   4.6819987  73.1515006   4.1455017   5.6389987  73.1515006   4.1455017
   4.4419987  74.0785006   4.1455017   7.2689987  73.6305006   5.0175017
   8.2259987  73.6305006   5.0175017   7.0289987  74.5575006   5.0175017
  10.7539987  59.2835006   4.1645017  11.7109987  59.2835006   4.1645017
  10.5139987  60.2105006   4.1645017  15.8889987  57.3465006   4.2445017
  16.8459987  57.3465006   4.2445017  15.6489987  58.2735006   4.2445017
  17.5669987  58.5655006   2.5305017  18.5239987  58.5655006   2.5305017
  17.3269987  59.4925006   2.5305017   3.1299987  57.9145006   1.9565017
   4.0869987  57.9145006   1.9565017   2.8899987  58.8415006   1.9565017
   1.9419987  57.6695006 158.3415017   2.8989987  57.6695006 158.3415017
   1.7019987  58.5965006 158.3415017   7.6149987  57.8365006   1.7895017
   8.5719987  57.8365006   1.7895017   7.3749987  58.7635006   1.7895017
  13.2819987  57.8615006   3.4295017  14.2389987  57.8615006   3.4295017
  13.0419987  58.7885006   3.4295017  14.5799987  57.8925006 159.6535017
  15.5369987  57.8925006 159.6535017  14.3399987  58.8195006 159.6535017
   1.9219987  73.6385006 159.2685017   2.8789987  73.6385006 159.2685017
   1.6819987  74.5655006 159.2685017   3.7349987  59.6245006 156.7765017
   4.6919987  59.6245006 156.7765017   3.4949987  60.5515006 156.7765017
   8.7609987  59.8705006 159.1905017   9.7179987  59.8705006 159.1905017
   8.5209987  60.7975006 159.1905017  10.6769987  74.9055006 157.6375017
  11.6339987  74.9055006 157.6375017  10.4369987  75.8325006 157.6375017
  17.3899987  74.4315006 160.3405017  18.3469987  74.4315006 160.3405017
  17.1499987  75.3585006 160.3405017   2.9949987  58.4515006  11.4585017
   3.9519987  58.4515006  11.4585017   2.7549987  59.3785006  11.4585017
   5.0119987  57.8305006  13.0745017   5.9689987  57.8305006  13.0745017
   4.7719987  58.7575006  13.0745017   3.5879987  74.5725006 156.2245017
   4.5449987  74.5725006 156.2245017   3.3479987  75.4995006 156.2245017
  13.4179987  57.1335006  13.2435017  14.3749987  57.1335006  13.2435017
  13.1779987  58.0605006  13.2435017  16.6249987  73.1685006  11.8935017
  17.5819987  73.1685006  11.8935017  16.3849987  74.0955006  11.8935017
  22.2839987  65.9665006   6.9235017  23.2409987  65.9665006   6.9235017
  22.0439987  66.8935006   6.9235017  23.2139987  70.4205006   5.4455017
  24.1709987  70.4205006   5.4455017  22.9739987  71.3475006   5.4455017
  19.8489987  64.0005006   0.9005017  20.8059987  64.0005006   0.9005017
  19.6089987  64.9275006   0.9005017  20.5519987  66.2145006   3.0375017
  21.5089987  66.2145006   3.0375017  20.3119987  67.1415006   3.0375017
  30.7469987  74.3945006   3.8735017  31.7039987  74.3945006   3.8735017
  30.5069987  75.3215006   3.8735017  36.9119987  60.3875006   6.5915017
  37.8689987  60.3875006   6.5915017  36.6719987  61.3145006   6.5915017
  31.4839987  63.1795006   6.1085017  32.4409987  63.1795006   6.1085017
  31.2439987  64.1065006   6.1085017  24.5629987  61.2645006   3.3775017
  25.5199987  61.2645006   3.3775017  24.3229987  62.1915006   3.3775017
  32.5279987  61.2605006   1.5405017  33.4849987  61.2605006   1.5405017
  32.2879987  62.1875006   1.5405017  21.2139987  63.6705006   4.1085017
  22.1709987  63.6705006   4.1085017  20.9739987  64.5975006   4.1085017
  26.3709987  65.2395006   3.4085017  27.3279987  65.2395006   3.4085017
  26.1309987  66.1665006   3.4085017  23.4779987  60.1605006   7.4145017
  24.4349987  60.1605006   7.4145017  23.2379987  61.0875006   7.4145017
  30.8099987  69.6765006   0.9505017  31.7669987  69.6765006   0.9505017
  30.5699987  70.6035006   0.9505017  26.0289987  67.8125006   7.6415017
  26.9859987  67.8125006   7.6415017  25.7889987  68.7395006   7.6415017
  34.1279987  60.6825006   3.7385017  35.0849987  60.6825006   3.7385017
  33.8879987  61.6095006   3.7385017  23.0359987  62.0275006   5.4165017
  23.9929987  62.0275006   5.4165017  22.7959987  62.9545006   5.4165017
  24.4419987  69.7985006   8.4595017  25.3989987  69.7985006   8.4595017
  24.2019987  70.7255006   8.4595017  20.5339987  69.4355006 159.8155017
  21.4909987  69.4355006 159.8155017  20.2939987  70.3625006 159.8155017
  34.4669987  59.4445006   7.4665017  35.4239987  59.4445006   7.4665017
  34.2269987  60.3715006   7.4665017  27.4289987  57.4835006   4.8795017
  28.3859987  57.4835006   4.8795017  27.1889987  58.4105006   4.8795017
  32.4209987  72.8745006   2.6135017  33.3779987  72.8745006   2.6135017
  32.1809987  73.8015006   2.6135017  33.5729987  70.8095006   1.1395017
  34.5299987  70.8095006   1.1395017  33.3329987  71.7365006   1.1395017
  29.7349987  66.2865006 159.9475017  30.6919987  66.2865006 159.9475017
  29.4949987  67.2135006 159.9475017  29.7899987  64.8245006 156.9345017
  30.7469987  64.8245006 156.9345017  29.5499987  65.7515006 156.9345017
  33.1299987  66.4845006   0.2785017  34.0869987  66.4845006   0.2785017
  32.8899987  67.4115006   0.2785017  24.7729987  67.1695006   2.2275017
  25.7299987  67.1695006   2.2275017  24.5329987  68.0965006   2.2275017
  26.1279987  70.5555006   4.9085017  27.0849987  70.5555006   4.9085017
  25.8879987  71.4825006   4.9085017  25.1609987  65.8905006   5.8785017
  26.1179987  65.8905006   5.8785017  24.9209987  66.8175006   5.8785017
  26.0669987  70.3355006  10.5555017  27.0239987  70.3355006  10.5555017
  25.8269987  71.2625006  10.5555017  32.0269987  65.6955006 158.5205017
  32.9839987  65.6955006 158.5205017  31.7869987  66.6225006 158.5205017
  22.9799987  66.5085006   9.7295017  23.9369987  66.5085006   9.7295017
  22.7399987  67.4355006   9.7295017  29.7549987  72.4055006   1.4705017
  30.7119987  72.4055006   1.4705017  29.5149987  73.3325006   1.4705017
  24.2939987  72.3805006  11.3315017  25.2509987  72.3805006  11.3315017
  24.0539987  73.3075006  11.3315017  35.7589987  57.4255006 158.3965017
  36.7159987  57.4255006 158.3965017  35.5189987  58.3525006 158.3965017
  23.7619987  66.1905006 160.3785017  24.7189987  66.1905006 160.3785017
  23.5219987  67.1175006 160.3785017  36.8859987  71.7775006 156.6825017
  37.8429987  71.7775006 156.6825017  36.6459987  72.7045006 156.6825017
  19.8459987  68.6095006   8.7025017  20.8029987  68.6095006   8.7025017
  19.6059987  69.5365006   8.7025017  19.6079987  71.3485006   5.5055017
  20.5649987  71.3485006   5.5055017  19.3679987  72.2755006   5.5055017
  37.8549987  72.0695006  11.1995017  38.8119987  72.0695006  11.1995017
  37.6149987  72.9965006  11.1995017  29.2469987  75.3475006 160.4025017
  30.2039987  75.3475006 160.4025017  29.0069987  76.2745006 160.4025017
  22.8769987  74.2055006   1.6685017  23.8339987  74.2055006   1.6685017
  22.6369987  75.1325006   1.6685017  32.3079987  74.5515006 157.3955017
  33.2649987  74.5515006 157.3955017  32.0679987  75.4785006 157.3955017
  31.9849987  74.4955006 160.1855017  32.9419987  74.4955006 160.1855017
  31.7449987  75.4225006 160.1855017  22.1269987  69.9255006   9.6765017
  23.0839987  69.9255006   9.6765017  21.8869987  70.8525006   9.6765017
  24.7939987  58.3895006   5.6335017  25.7509987  58.3895006   5.6335017
  24.5539987  59.3165006   5.6335017  29.4379987  58.0415006   9.0265017
  30.3949987  58.0415006   9.0265017  29.1979987  58.9685006   9.0265017
  33.4839987  66.7185006 156.2685017  34.4409987  66.7185006 156.2685017
  33.2439987  67.6455006 156.2685017  29.0909987  60.6375006 156.8395017
  30.0479987  60.6375006 156.8395017  28.8509987  61.5645006 156.8395017
  24.8639987  63.3425006   6.8205017  25.8209987  63.3425006   6.8205017
  24.6239987  64.2695006   6.8205017  24.8479987  63.5285006   1.7175017
  25.8049987  63.5285006   1.7175017  24.6079987  64.4555006   1.7175017
  30.3879987  64.0045006   0.5195017  31.3449987  64.0045006   0.5195017
  30.1479987  64.9315006   0.5195017  31.6309987  63.6705006   3.2795017
  32.5879987  63.6705006   3.2795017  31.3909987  64.5975006   3.2795017
  22.5369987  63.6425006   8.5765017  23.4939987  63.6425006   8.5765017
  22.2969987  64.5695006   8.5765017  25.9239987  61.0265006 155.9555017
  26.8809987  61.0265006 155.9555017  25.6839987  61.9535006 155.9555017
  19.1849987  60.7525006   2.5195017  20.1419987  60.7525006   2.5195017
  18.9449987  61.6795006   2.5195017  20.4589987  61.4665006 158.4375017
  21.4159987  61.4665006 158.4375017  20.2189987  62.3935006 158.4375017
  27.3049987  60.9645006   2.7185017  28.2619987  60.9645006   2.7185017
  27.0649987  61.8915006   2.7185017  22.2369987  62.6035006   1.6075017
  23.1939987  62.6035006   1.6075017  21.9969987  63.5305006   1.6075017
  25.8779987  62.6315006 159.7705017  26.8349987  62.6315006 159.7705017
  25.6379987  63.5585006 159.7705017  31.8479987  60.2495006   6.0495017
  32.8049987  60.2495006   6.0495017  31.6079987  61.1765006   6.0495017
  24.5749987  63.8175006 157.3695017  25.5319987  63.8175006 157.3695017
  24.3349987  64.7445006 157.3695017  35.0669987  75.9985006  12.2115017
  36.0239987  75.9985006  12.2115017  34.8269987  76.9255006  12.2115017
  22.6959987  68.4165006  11.8685017  23.6529987  68.4165006  11.8685017
  22.4559987  69.3435006  11.8685017  28.7079987  63.8085006   4.6365017
  29.6649987  63.8085006   4.6365017  28.4679987  64.7355006   4.6365017
  23.7209987  59.9405006   1.0735017  24.6779987  59.9405006   1.0735017
  23.4809987  60.8675006   1.0735017  27.3419987  62.1385006   7.0465017
  28.2989987  62.1385006   7.0465017  27.1019987  63.0655006   7.0465017
  27.9319987  68.3605006 159.2895017  28.8889987  68.3605006 159.2895017
  27.6919987  69.2875006 159.2895017  31.7759987  61.1735006 157.4645017
  32.7329987  61.1735006 157.4645017  31.5359987  62.1005006 157.4645017
  32.5059987  63.0815006 159.0935017  33.4629987  63.0815006 159.0935017
  32.2659987  64.0085006 159.0935017  23.0489987  67.7315006   4.5515017
  24.0059987  67.7315006   4.5515017  22.8089987  68.6585006   4.5515017
  30.0389987  69.8195006 158.3175017  30.9959987  69.8195006 158.3175017
  29.7989987  70.7465006 158.3175017  20.0329987  66.1455006   9.8225017
  20.9899987  66.1455006   9.8225017  19.7929987  67.0725006   9.8225017
  37.4099987  63.2285006 158.8695017  38.3669987  63.2285006 158.8695017
  37.1699987  64.1555006 158.8695017  25.4179987  71.1935006   1.9405017
  26.3749987  71.1935006   1.9405017  25.1779987  72.1205006   1.9405017
  21.1749987  66.0395006 157.0435017  22.1319987  66.0395006 157.0435017
  20.9349987  66.9665006 157.0435017  26.8559987  68.8525006   1.4945017
  27.8129987  68.8525006   1.4945017  26.6159987  69.7795006   1.4945017
  27.3079987  73.0175006   7.8165017  28.2649987  73.0175006   7.8165017
  27.0679987  73.9445006   7.8165017  25.5079987  73.8615006   0.9945017
  26.4649987  73.8615006   0.9945017  25.2679987  74.7885006   0.9945017
  33.1199987  70.0905006 157.0995017  34.0769987  70.0905006 157.0995017
  32.8799987  71.0175006 157.0995017  33.5709987  73.6595006  10.0075017
  34.5279987  73.6595006  10.0075017  33.3309987  74.5865006  10.0075017
  21.6779987  60.8855006   9.3595017  22.6349987  60.8855006   9.3595017
  21.4379987  61.8125006   9.3595017  33.9099987  68.7225006 159.3555017
  34.8669987  68.7225006 159.3555017  33.6699987  69.6495006 159.3555017
  21.3179987  72.6815006   7.7915017  22.2749987  72.6815006   7.7915017
  21.0779987  73.6085006   7.7915017  27.2469987  71.1855006 155.5915017
  28.2039987  71.1855006 155.5915017  27.0069987  72.1125006 155.5915017
  26.0659987  70.7165006 158.0475017  27.0229987  70.7165006 158.0475017
  25.8259987  71.6435006 158.0475017  22.5799987  67.9625006 158.5395017
  23.5369987  67.9625006 158.5395017  22.3399987  68.8895006 158.5395017
  31.1809987  60.2205006 159.9185017  32.1379987  60.2205006 159.9185017
  30.9409987  61.1475006 159.9185017  28.8539987  72.3885006 158.7675017
  29.8109987  72.3885006 158.7675017  28.6139987  73.3155006 158.7675017
  28.3619987  62.0135006   0.2065017  29.3189987  62.0135006   0.2065017
  28.1219987  62.9405006   0.2065017  29.2259987  59.0315006   1.0925017
  30.1829987  59.0315006   1.0925017  28.9859987  59.9585006   1.0925017
  26.2349987  73.4235006 158.7775017  27.1919987  73.4235006 158.7775017
  25.9949987  74.3505006 158.7775017  24.9019987  60.1385006 158.3655017
  25.8589987  60.1385006 158.3655017  24.6619987  61.0655006 158.3655017
  35.1219987  60.8625006  10.2425017  36.0789987  60.8625006  10.2425017
  34.8819987  61.7895006  10.2425017  33.8339987  64.5515006   4.2345017
  34.7909987  64.5515006   4.2345017  33.5939987  65.4785006   4.2345017
  23.1409987  70.5795006 157.4195017  24.0979987  70.5795006 157.4195017
  22.9009987  71.5065006 157.4195017  21.4839987  63.2495006 156.5495017
  22.4409987  63.2495006 156.5495017  21.2439987  64.1765006 156.5495017
  22.2999987  58.0405006   4.7315017  23.2569987  58.0405006   4.7315017
  22.0599987  58.9675006   4.7315017  21.2499987  71.9575006   0.8785017
  22.2069987  71.9575006   0.8785017  21.0099987  72.8845006   0.8785017
  20.4679987  74.6095006  12.1775017  21.4249987  74.6095006  12.1775017
  20.2279987  75.5365006  12.1775017  25.1089987  73.4905006  13.7915017
  26.0659987  73.4905006  13.7915017  24.8689987  74.4175006  13.7915017
  29.2529987  73.0405006 155.7265017  30.2099987  73.0405006 155.7265017
  29.0129987  73.9675006 155.7265017  33.7949987  72.7815006 155.8895017
  34.7519987  72.7815006 155.8895017  33.5549987  73.7085006 155.8895017
  20.3929987  68.3915006  13.1645017  21.3499987  68.3915006  13.1645017
  20.1529987  69.3185006  13.1645017  24.7209987  68.7325006 155.7565017
  25.6779987  68.7325006 155.7565017  24.4809987  69.6595006 155.7565017
  30.1379987  69.8255006 155.5175017  31.0949987  69.8255006 155.5175017
  29.8979987  70.7525006 155.5175017  21.2159987  65.6045006  12.5365017
  22.1729987  65.6045006  12.5365017  20.9759987  66.5315006  12.5365017
  25.9139987  66.7395006 158.1415017  26.8709987  66.7395006 158.1415017
  25.6739987  67.6665006 158.1415017  25.1539987  64.5365006   9.8735017
  26.1109987  64.5365006   9.8735017  24.9139987  65.4635006   9.8735017
  26.9899987  64.9625006 156.3655017  27.9469987  64.9625006 156.3655017
  26.7499987  65.8895006 156.3655017  36.3409987  67.2905006 155.8095017
  37.2979987  67.2905006 155.8095017  36.1009987  68.2175006 155.8095017
  25.5239987  61.9195006  10.9645017  26.4809987  61.9195006  10.9645017
  25.2839987  62.8465006  10.9645017  25.9869987  60.2895006   8.5085017
  26.9439987  60.2895006   8.5085017  25.7469987  61.2165006   8.5085017
  27.5269987  65.7635006   8.7035017  28.4839987  65.7635006   8.7035017
  27.2869987  66.6905006   8.7035017  23.9949987  63.2295006  12.8415017
  24.9519987  63.2295006  12.8415017  23.7549987  64.1565006  12.8415017
  26.7819987  57.7665006   8.9455017  27.7389987  57.7665006   8.9455017
  26.5419987  58.6935006   8.9455017  22.1099987  61.1015006  12.6245017
  23.0669987  61.1015006  12.6245017  21.8699987  62.0285006  12.6245017
  27.0349987  57.1475006  11.6125017  27.9919987  57.1475006  11.6125017
  26.7949987  58.0745006  11.6125017  26.8369987  75.6585006 157.4275017
  27.7939987  75.6585006 157.4275017  26.5969987  76.5855006 157.4275017
  20.3989987  70.2615006 156.8965017  21.3559987  70.2615006 156.8965017
  20.1589987  71.1885006 156.8965017  19.1549987  75.6425006   1.3445017
  20.1119987  75.6425006   1.3445017  18.9149987  76.5695006   1.3445017
  19.9829987  73.7615006   3.1975017  20.9399987  73.7615006   3.1975017
  19.7429987  74.6885006   3.1975017  37.0449987  74.1555006   9.1595017
  38.0019987  74.1555006   9.1595017  36.8049987  75.0825006   9.1595017
  37.5089987  66.1025006 158.0185017  38.4659987  66.1025006 158.0185017
  37.2689987  67.0295006 158.0185017  35.8959987  63.3485006 156.5345017
  36.8529987  63.3485006 156.5345017  35.6559987  64.2755006 156.5345017
  34.9889987  64.7655006   1.6085017  35.9459987  64.7655006   1.6085017
  34.7489987  65.6925006   1.6085017  20.0369987  66.8355006   5.6885017
  20.9939987  66.8355006   5.6885017  19.7969987  67.7625006   5.6885017
  35.1249987  60.8015006 155.6655017  36.0819987  60.8015006 155.6655017
  34.8849987  61.7285006 155.6655017  34.7079987  62.3435006 160.5965017
  35.6649987  62.3435006 160.5965017  34.4679987  63.2705006 160.5965017
  35.3619987  62.8245006   5.5345017  36.3189987  62.8245006   5.5345017
  35.1219987  63.7515006   5.5345017  19.6349987  62.1345006  11.8235017
  20.5919987  62.1345006  11.8235017  19.3949987  63.0615006  11.8235017
  35.3719987  59.6185006   0.1445017  36.3289987  59.6185006   0.1445017
  35.1319987  60.5455006   0.1445017  20.8559987  60.4265006   4.6955017
  21.8129987  60.4265006   4.6955017  20.6159987  61.3535006   4.6955017
  19.1439987  63.4205006   5.7465017  20.1009987  63.4205006   5.7465017
  18.9039987  64.3475006   5.7465017  37.1999987  59.7385006  12.0305017
  38.1569987  59.7385006  12.0305017  36.9599987  60.6655006  12.0305017
  37.1929987  59.6605006 157.2425017  38.1499987  59.6605006 157.2425017
  36.9529987  60.5875006 157.2425017  19.5079987  59.6965006 160.3625017
  20.4649987  59.6965006 160.3625017  19.2679987  60.6235006 160.3625017
  19.4609987  58.3665006   8.1225017  20.4179987  58.3665006   8.1225017
  19.2209987  59.2935006   8.1225017  21.6749987  71.5635006  12.2845017
  22.6319987  71.5635006  12.2845017  21.4349987  72.4905006  12.2845017
  24.5849987  72.5425006   8.5225017  25.5419987  72.5425006   8.5225017
  24.3449987  73.4695006   8.5225017  28.9209987  73.9915006  11.4825017
  29.8779987  73.9915006  11.4825017  28.6809987  74.9185006  11.4825017
  31.2339987  75.2355006  10.7525017  32.1909987  75.2355006  10.7525017
  30.9939987  76.1625006  10.7525017  36.1909987  57.8635006   9.8585017
  37.1479987  57.8635006   9.8585017  35.9509987  58.7905006   9.8585017
  22.0209987  75.7925006   8.5615017  22.9779987  75.7925006   8.5615017
  21.7809987  76.7195006   8.5615017  24.4899987  75.3745006   7.6265017
  25.4469987  75.3745006   7.6265017  24.2499987  76.3015006   7.6265017
  29.1999987  75.2815006   6.7885017  30.1569987  75.2815006   6.7885017
  28.9599987  76.2085006   6.7885017  31.5019987  74.1365006   7.7585017
  32.4589987  74.1365006   7.7585017  31.2619987  75.0635006   7.7585017
  34.0629987  75.6815006   8.0395017  35.0199987  75.6815006   8.0395017
  33.8229987  76.6085006   8.0395017  21.4539987  74.4415006   5.4925017
  22.4109987  74.4415006   5.4925017  21.2139987  75.3685006   5.4925017
  23.5489987  73.1535006   4.1455017  24.5059987  73.1535006   4.1455017
  23.3089987  74.0805006   4.1455017  26.1489987  73.6315006   5.0155017
  27.1059987  73.6315006   5.0155017  25.9089987  74.5585006   5.0155017
  29.6729987  58.8795006   4.4575017  30.6299987  58.8795006   4.4575017
  29.4329987  59.8065006   4.4575017  34.7459987  57.3515006   4.2445017
  35.7029987  57.3515006   4.2445017  34.5059987  58.2785006   4.2445017
  36.4149987  58.5575006   2.5295017  37.3719987  58.5575006   2.5295017
  36.1749987  59.4845006   2.5295017  21.9699987  57.9175006   1.9995017
  22.9269987  57.9175006   1.9995017  21.7299987  58.8445006   1.9995017
  20.7569987  57.6745006 158.2895017  21.7139987  57.6745006 158.2895017
  20.5169987  58.6015006 158.2895017  26.4709987  57.8195006   1.7865017
  27.4279987  57.8195006   1.7865017  26.2309987  58.7465006   1.7865017
  32.1889987  57.8375006   3.4315017  33.1459987  57.8375006   3.4315017
  31.9489987  58.7645006   3.4315017  33.4329987  57.8945006 159.6515017
  34.3899987  57.8945006 159.6515017  33.1929987  58.8215006 159.6515017
  20.6719987  73.6235006 159.2745017  21.6289987  73.6235006 159.2745017
  20.4319987  74.5505006 159.2745017  22.5919987  59.6145006 156.7745017
  23.5489987  59.6145006 156.7745017  22.3519987  60.5415006 156.7745017
  27.6119987  59.8655006 159.1965017  28.5689987  59.8655006 159.1965017
  27.3719987  60.7925006 159.1965017  29.5339987  74.9045006 157.6375017
  30.4909987  74.9045006 157.6375017  29.2939987  75.8315006 157.6375017
  21.8699987  58.4515006  11.4565017  22.8269987  58.4515006  11.4565017
  21.6299987  59.3785006  11.4565017  23.8459987  57.7985006  13.0545017
  24.8029987  57.7985006  13.0545017  23.6059987  58.7255006  13.0545017
  22.4669987  74.5945006 156.2385017  23.4239987  74.5945006 156.2385017
  22.2269987  75.5215006 156.2385017  35.4499987  73.1855006  11.9605017
  36.4069987  73.1855006  11.9605017  35.2099987  74.1125006  11.9605017
  49.9119987  67.0525006   1.8845017  50.8689987  67.0525006   1.8845017
  49.6719987  67.9795006   1.8845017  48.8119987  66.3045006   5.3655017
  49.7689987  66.3045006   5.3655017  48.5719987  67.2315006   5.3655017
  41.1959987  65.9215006   6.8985017  42.1529987  65.9215006   6.8985017
  40.9559987  66.8485006   6.8985017  52.4829987  69.2545006   3.6475017
  53.4399987  69.2545006   3.6475017  52.2429987  70.1815006   3.6475017
  38.7069987  64.0225006   0.8885017  39.6639987  64.0225006   0.8885017
  38.4669987  64.9495006   0.8885017  49.5989987  74.4145006   3.8795017
  50.5559987  74.4145006   3.8795017  49.3589987  75.3415006   3.8795017
  47.1929987  68.7415006   5.7745017  48.1499987  68.7415006   5.7745017
  46.9529987  69.6685006   5.7745017  55.7799987  60.3565006   6.5795017
  56.7369987  60.3565006   6.5795017  55.5399987  61.2835006   6.5795017
  50.3239987  63.1765006   6.1375017  51.2809987  63.1765006   6.1375017
  50.0839987  64.1035006   6.1375017  43.4669987  61.2665006   3.3705017
  44.4239987  61.2665006   3.3705017  43.2269987  62.1935006   3.3705017
  51.1789987  61.3525006   1.7415017  52.1359987  61.3525006   1.7415017
  50.9389987  62.2795006   1.7415017  40.0449987  63.6025006   4.1295017
  41.0019987  63.6025006   4.1295017  39.8049987  64.5295006   4.1295017
  45.2569987  65.2085006   3.3695017  46.2139987  65.2085006   3.3695017
  45.0169987  66.1355006   3.3695017  56.2139987  61.7875006   8.8365017
  57.1709987  61.7875006   8.8365017  55.9739987  62.7145006   8.8365017
  42.3219987  60.1495006   7.4135017  43.2789987  60.1495006   7.4135017
  42.0819987  61.0765006   7.4135017  49.6589987  69.6535006   0.9475017
  50.6159987  69.6535006   0.9475017  49.4189987  70.5805006   0.9475017
  52.9739987  60.6875006   3.7325017  53.9309987  60.6875006   3.7325017
  52.7339987  61.6145006   3.7325017  41.9009987  62.0055006   5.4475017
  42.8579987  62.0055006   5.4475017  41.6609987  62.9325006   5.4475017
  53.0069987  71.0905006   6.0155017  53.9639987  71.0905006   6.0155017
  52.7669987  72.0175006   6.0155017  53.3209987  59.3795006   7.4135017
  54.2779987  59.3795006   7.4135017  53.0809987  60.3065006   7.4135017
  46.3029987  57.4915006   4.8735017  47.2599987  57.4915006   4.8735017
  46.0629987  58.4185006   4.8735017  51.2579987  72.8745006   2.6175017
  52.2149987  72.8745006   2.6175017  51.0179987  73.8015006   2.6175017
  52.4599987  70.8025006   1.1255017  53.4169987  70.8025006   1.1255017
  52.2199987  71.7295006   1.1255017  54.0929987  69.3875006   9.6205017
  55.0499987  69.3875006   9.6205017  53.8529987  70.3145006   9.6205017
  48.5869987  66.2935006 159.9365017  49.5439987  66.2935006 159.9365017
  48.3469987  67.2205006 159.9365017  48.6479987  64.8275006 156.9455017
  49.6049987  64.8275006 156.9455017  48.4079987  65.7545006 156.9455017
  55.9549987  65.6835006   7.6455017  56.9119987  65.6835006   7.6455017
  55.7149987  66.6105006   7.6455017  52.0269987  66.5115006   0.3055017
  52.9839987  66.5115006   0.3055017  51.7869987  67.4385006   0.3055017
  51.9469987  64.6655006   9.4075017  52.9039987  64.6655006   9.4075017
  51.7069987  65.5925006   9.4075017  43.6429987  67.1775006   2.1815017
  44.5999987  67.1775006   2.1815017  43.4029987  68.1045006   2.1815017
  50.3669987  71.4715006   6.5775017  51.3239987  71.4715006   6.5775017
  50.1269987  72.3985006   6.5775017  44.8959987  70.3165006  10.5785017
  45.8529987  70.3165006  10.5785017  44.6559987  71.2435006  10.5785017
  50.8889987  65.6915006 158.5265017  51.8459987  65.6915006 158.5265017
  50.6489987  66.6185006 158.5265017  41.8479987  66.4655006   9.7995017
  42.8049987  66.4655006   9.7995017  41.6079987  67.3925006   9.7995017
  48.6109987  72.4175006   1.4455017  49.5679987  72.4175006   1.4455017
  48.3709987  73.3445006   1.4455017  43.1639987  72.3875006  11.3335017
  44.1209987  72.3875006  11.3335017  42.9239987  73.3145006  11.3335017
  54.6089987  57.4245006 158.4075017  55.5659987  57.4245006 158.4075017
  54.3689987  58.3515006 158.4075017  42.6349987  66.1905006 160.3565017
  43.5919987  66.1905006 160.3565017  42.3949987  67.1175006 160.3565017
  55.7389987  71.7825006 156.7615017  56.6959987  71.7825006 156.7615017
  55.4989987  72.7095006 156.7615017  56.7059987  72.0565006  11.2085017
  57.6629987  72.0565006  11.2085017  56.4659987  72.9835006  11.2085017
  47.6619987  71.5825006  10.0565017  48.6189987  71.5825006  10.0565017
  47.4219987  72.5095006  10.0565017  48.1049987  75.3425006 160.4035017
  49.0619987  75.3425006 160.4035017  47.8649987  76.2695006 160.4035017
  51.1569987  74.5455006 157.3875017  52.1139987  74.5455006 157.3875017
  50.9169987  75.4725006 157.3875017  50.8459987  74.4725006 160.1515017
  51.8029987  74.4725006 160.1515017  50.6059987  75.3995006 160.1515017
  53.8409987  63.5125006  11.6765017  54.7979987  63.5125006  11.6765017
  53.6009987  64.4395006  11.6765017  40.9469987  69.9685006   9.6765017
  41.9039987  69.9685006   9.6765017  40.7069987  70.8955006   9.6765017
  43.6509987  58.3885006   5.6335017  44.6079987  58.3885006   5.6335017
  43.4109987  59.3155006   5.6335017  48.2909987  58.0785006   9.0005017
  49.2479987  58.0785006   9.0005017  48.0509987  59.0055006   9.0005017
  51.5979987  61.8965006   9.8865017  52.5549987  61.8965006   9.8865017
  51.3579987  62.8235006   9.8865017  52.3429987  66.7275006 156.2765017
  53.2999987  66.7275006 156.2765017  52.1029987  67.6545006 156.2765017
  47.9469987  60.6375006 156.8385017  48.9039987  60.6375006 156.8385017
  47.7069987  61.5645006 156.8385017  43.7809987  63.3765006   6.8415017
  44.7379987  63.3765006   6.8415017  43.5409987  64.3035006   6.8415017
  43.7039987  63.5125006   1.7255017  44.6609987  63.5125006   1.7255017
  43.4639987  64.4395006   1.7255017  49.2299987  63.9875006   0.5155017
  50.1869987  63.9875006   0.5155017  48.9899987  64.9145006   0.5155017
  48.3119987  64.1925006  11.9535017  49.2689987  64.1925006  11.9535017
  48.0719987  65.1195006  11.9535017  50.2649987  63.4665006   3.3445017
  51.2219987  63.4665006   3.3445017  50.0249987  64.3935006   3.3445017
  41.4659987  63.5985006   8.5925017  42.4229987  63.5985006   8.5925017
  41.2259987  64.5255006   8.5925017  44.7789987  61.0265006 155.9555017
  45.7359987  61.0265006 155.9555017  44.5389987  61.9535006 155.9555017
  38.0379987  60.7355006   2.5125017  38.9949987  60.7355006   2.5125017
  37.7979987  61.6625006   2.5125017  39.3099987  61.4605006 158.4295017
  40.2669987  61.4605006 158.4295017  39.0699987  62.3875006 158.4295017
  49.4649987  65.0755006   7.9305017  50.4219987  65.0755006   7.9305017
  49.2249987  66.0025006   7.9305017  46.2809987  61.0135006   2.7425017
  47.2379987  61.0135006   2.7425017  46.0409987  61.9405006   2.7425017
  41.0969987  62.5855006   1.6015017  42.0539987  62.5855006   1.6015017
  40.8569987  63.5125006   1.6015017  44.7399987  62.6275006 159.7755017
  45.6969987  62.6275006 159.7755017  44.4999987  63.5545006 159.7755017
  50.6849987  60.2645006   5.9935017  51.6419987  60.2645006   5.9935017
  50.4449987  61.1915006   5.9935017  43.4309987  63.8175006 157.3705017
  44.3879987  63.8175006 157.3705017  43.1909987  64.7445006 157.3705017
  53.9209987  75.9125006  12.3015017  54.8779987  75.9125006  12.3015017
  53.6809987  76.8395006  12.3015017  41.5659987  68.3685006  11.8815017
  42.5229987  68.3685006  11.8815017  41.3259987  69.2955006  11.8815017
  47.5619987  63.7945006   4.6455017  48.5189987  63.7945006   4.6455017
  47.3219987  64.7215006   4.6455017  42.5759987  59.9405006   1.0745017
  43.5329987  59.9405006   1.0745017  42.3359987  60.8675006   1.0745017
  46.2009987  62.1465006   7.0505017  47.1579987  62.1465006   7.0505017
  45.9609987  63.0735006   7.0505017  46.7949987  68.3545006 159.2815017
  47.7519987  68.3545006 159.2815017  46.5549987  69.2815006 159.2815017
  53.9539987  67.5345006   7.5445017  54.9109987  67.5345006   7.5445017
  53.7139987  68.4615006   7.5445017  50.6309987  61.1715006 157.4695017
  51.5879987  61.1715006 157.4695017  50.3909987  62.0985006 157.4695017
  48.3169987  68.5985006  10.0135017  49.2739987  68.5985006  10.0135017
  48.0769987  69.5255006  10.0135017  51.3599987  63.0735006 159.1125017
  52.3169987  63.0735006 159.1125017  51.1199987  64.0005006 159.1125017
  48.9009987  69.8225006 158.3165017  49.8579987  69.8225006 158.3165017
  48.6609987  70.7495006 158.3165017  45.9109987  65.7045006  12.0185017
  46.8679987  65.7045006  12.0185017  45.6709987  66.6315006  12.0185017
  50.5679987  71.0335006   9.9285017  51.5249987  71.0335006   9.9285017
  50.3279987  71.9605006   9.9285017  56.2649987  63.2235006 158.8625017
  57.2219987  63.2235006 158.8625017  56.0249987  64.1505006 158.8625017
  56.2199987  69.0945006  11.1595017  57.1769987  69.0945006  11.1595017
  55.9799987  70.0215006  11.1595017  54.5269987  72.0555006 159.2785017
  55.4839987  72.0555006 159.2785017  54.2869987  72.9825006 159.2785017
  51.7439987  66.8695006   5.8245017  52.7009987  66.8695006   5.8245017
  51.5039987  67.7965006   5.8245017  40.0269987  66.0405006 157.0425017
  40.9839987  66.0405006 157.0425017  39.7869987  66.9675006 157.0425017
  45.6649987  68.8685006   1.4345017  46.6219987  68.8685006   1.4345017
  45.4249987  69.7955006   1.4345017  46.1339987  73.0545006   7.8415017
  47.0909987  73.0545006   7.8415017  45.8939987  73.9815006   7.8415017
  44.3449987  73.8765006   0.9985017  45.3019987  73.8765006   0.9985017
  44.1049987  74.8035006   0.9985017  49.7189987  69.0735006   7.4995017
  50.6759987  69.0735006   7.4995017  49.4789987  70.0005006   7.4995017
  51.9839987  70.1015006 157.1105017  52.9409987  70.1015006 157.1105017
  51.7439987  71.0285006 157.1105017  52.4499987  73.6255006   9.9765017
  53.4069987  73.6255006   9.9765017  52.2099987  74.5525006   9.9765017
  56.4559987  74.4785006 157.3535017  57.4129987  74.4785006 157.3535017
  56.2159987  75.4055006 157.3535017  40.5279987  60.8835006   9.3425017
  41.4849987  60.8835006   9.3425017  40.2879987  61.8105006   9.3425017
  52.7799987  68.7445006 159.3455017  53.7369987  68.7445006 159.3455017
  52.5399987  69.6715006 159.3455017  40.1469987  72.6825006   7.8035017
  41.1039987  72.6825006   7.8035017  39.9069987  73.6095006   7.8035017
  46.1029987  71.1855006 155.5895017  47.0599987  71.1855006 155.5895017
  45.8629987  72.1125006 155.5895017  44.9699987  70.7035006 158.0325017
  45.9269987  70.7035006 158.0325017  44.7299987  71.6305006 158.0325017
  41.4349987  67.9565006 158.5645017  42.3919987  67.9565006 158.5645017
  41.1949987  68.8835006 158.5645017  49.2679987  60.6545006   8.2995017
  50.2249987  60.6545006   8.2995017  49.0279987  61.5815006   8.2995017
  50.0229987  60.2365006 159.9395017  50.9799987  60.2365006 159.9395017
  49.7829987  61.1635006 159.9395017  47.7079987  72.3855006 158.7685017
  48.6649987  72.3855006 158.7685017  47.4679987  73.3125006 158.7685017
  47.2439987  61.9895006   0.2195017  48.2009987  61.9895006   0.2195017
  47.0039987  62.9165006   0.2195017  47.7819987  63.0105006   9.3955017
  48.7389987  63.0105006   9.3955017  47.5419987  63.9375006   9.3955017
  48.1039987  59.0475006   1.1255017  49.0609987  59.0475006   1.1255017
  47.8639987  59.9745006   1.1255017  45.0909987  73.4205006 158.7785017
  46.0479987  73.4205006 158.7785017  44.8509987  74.3475006 158.7785017
  43.7579987  60.1385006 158.3665017  44.7149987  60.1385006 158.3665017
  43.5179987  61.0655006 158.3665017  53.9879987  60.8735006  10.2555017
  54.9449987  60.8735006  10.2555017  53.7479987  61.8005006  10.2555017
  52.5879987  64.6605006   4.2865017  53.5449987  64.6605006   4.2865017
  52.3479987  65.5875006   4.2865017  42.0209987  70.5635006 157.3925017
  42.9779987  70.5635006 157.3925017  41.7809987  71.4905006 157.3925017
  40.3419987  63.2495006 156.5445017  41.2989987  63.2495006 156.5445017
  40.1019987  64.1765006 156.5445017  53.6529987  73.9075006   5.9485017
  54.6099987  73.9075006   5.9485017  53.4129987  74.8345006   5.9485017
  41.1639987  58.0315006   4.7295017  42.1209987  58.0315006   4.7295017
  40.9239987  58.9585006   4.7295017  39.3309987  74.5945006  12.1895017
  40.2879987  74.5945006  12.1895017  39.0909987  75.5215006  12.1895017
  43.9699987  73.5195006  13.7955017  44.9269987  73.5195006  13.7955017
  43.7299987  74.4465006  13.7955017  48.1089987  73.0405006 155.7255017
  49.0659987  73.0405006 155.7255017  47.8689987  73.9675006 155.7255017
  50.5199987  71.9045006  12.5295017  51.4769987  71.9045006  12.5295017
  50.2799987  72.8315006  12.5295017  52.6799987  72.7985006 155.9245017
  53.6369987  72.7985006 155.9245017  52.4399987  73.7255006 155.9245017
  39.2629987  68.3885006  13.1365017  40.2199987  68.3885006  13.1365017
  39.0229987  69.3155006  13.1365017  43.5809987  68.7315006 155.7595017
  44.5379987  68.7315006 155.7595017  43.3409987  69.6585006 155.7595017
  45.9479987  68.3665006  12.5655017  46.9049987  68.3665006  12.5655017
  45.7079987  69.2935006  12.5655017  48.9959987  69.8255006 155.5185017
  49.9529987  69.8255006 155.5185017  48.7559987  70.7525006 155.5185017
  51.6539987  68.2385006   9.9565017  52.6109987  68.2385006   9.9565017
  51.4139987  69.1655006   9.9565017  40.0849987  65.6005006  12.5475017
  41.0419987  65.6005006  12.5475017  39.8449987  66.5275006  12.5475017
  44.7709987  66.7395006 158.1375017  45.7279987  66.7395006 158.1375017
  44.5309987  67.6665006 158.1375017  44.0699987  64.5885006   9.9305017
  45.0269987  64.5885006   9.9305017  43.8299987  65.5155006   9.9305017
  45.8459987  64.9625006 156.3655017  46.8029987  64.9625006 156.3655017
  45.6059987  65.8895006 156.3655017  49.0909987  67.1075006  13.2295017
  50.0479987  67.1075006  13.2295017  48.8509987  68.0345006  13.2295017
  55.2019987  67.2925006 155.7945017  56.1589987  67.2925006 155.7945017
  54.9619987  68.2195006 155.7945017  44.4359987  61.9375006  10.9805017
  45.3929987  61.9375006  10.9805017  44.1959987  62.8645006  10.9805017
  44.8319987  60.3135006   8.5255017  45.7889987  60.3135006   8.5255017
  44.5919987  61.2405006   8.5255017  46.3909987  65.7915006   8.7625017
  47.3479987  65.7915006   8.7625017  46.1509987  66.7185006   8.7625017
  50.7939987  63.5705006  13.7445017  51.7509987  63.5705006  13.7445017
  50.5539987  64.4975006  13.7445017  52.1149987  66.3425006  11.8675017
  53.0719987  66.3425006  11.8675017  51.8749987  67.2695006  11.8675017
  42.8729987  63.1795006  12.8955017  43.8299987  63.1795006  12.8955017
  42.6329987  64.1065006  12.8955017  45.6309987  57.7565006   8.9265017
  46.5879987  57.7565006   8.9265017  45.3909987  58.6835006   8.9265017
  46.9039987  62.0875006  12.5225017  47.8609987  62.0875006  12.5225017
  46.6639987  63.0145006  12.5225017  49.6259987  61.2205006  11.5995017
  50.5829987  61.2205006  11.5995017  49.3859987  62.1475006  11.5995017
  51.2219987  59.8505006  13.5395017  52.1789987  59.8505006  13.5395017
  50.9819987  60.7775006  13.5395017  41.0309987  61.0815006  12.6145017
  41.9879987  61.0815006  12.6145017  40.7909987  62.0085006  12.6145017
  45.8519987  57.1275006  11.6155017  46.8089987  57.1275006  11.6155017
  45.6119987  58.0545006  11.6155017  46.2149987  58.7605006  13.7035017
  47.1719987  58.7605006  13.7035017  45.9749987  59.6875006  13.7035017
  45.6929987  75.6585006 157.4275017  46.6499987  75.6585006 157.4275017
  45.4529987  76.5855006 157.4275017  39.2559987  70.2755006 156.8295017
  40.2129987  70.2755006 156.8295017  39.0159987  71.2025006 156.8295017
  56.3569987  74.5605006   6.1435017  57.3139987  74.5605006   6.1435017
  56.1169987  75.4875006   6.1435017  55.9559987  74.1575006   9.1005017
  56.9129987  74.1575006   9.1005017  55.7159987  75.0845006   9.1005017
  55.7019987  68.1995006 159.7455017  56.6589987  68.1995006 159.7455017
  55.4619987  69.1265006 159.7455017  56.0779987  66.2715006   1.0715017
  57.0349987  66.2715006   1.0715017  55.8379987  67.1985006   1.0715017
  55.8339987  68.9895006   6.0565017  56.7909987  68.9895006   6.0565017
  55.5939987  69.9165006   6.0565017  54.3769987  71.8805006   8.3405017
  55.3339987  71.8805006   8.3405017  54.1369987  72.8075006   8.3405017
  56.3749987  66.1065006 158.0105017  57.3319987  66.1065006 158.0105017
  56.1349987  67.0335006 158.0105017  54.7189987  63.3535006 156.5315017
  55.6759987  63.3535006 156.5315017  54.4789987  64.2805006 156.5315017
  53.8889987  64.7555006   1.6355017  54.8459987  64.7555006   1.6355017
  53.6489987  65.6825006   1.6355017  54.7259987  66.7235006  11.3025017
  55.6829987  66.7235006  11.3025017  54.4859987  67.6505006  11.3025017
  56.2379987  64.6155006  11.9995017  57.1949987  64.6155006  11.9995017
  55.9979987  65.5425006  11.9995017  53.9589987  60.8205006 155.6925017
  54.9159987  60.8205006 155.6925017  53.7189987  61.7475006 155.6925017
  53.5489987  62.3375006 160.6155017  54.5059987  62.3375006 160.6155017
  53.3089987  63.2645006 160.6155017  54.1919987  62.8845006   5.5375017
  55.1489987  62.8845006   5.5375017  53.9519987  63.8115006   5.5375017
  54.2629987  63.6105006   8.3235017  55.2199987  63.6105006   8.3235017
  54.0229987  64.5375006   8.3235017  38.5199987  62.1055006  11.8075017
  39.4769987  62.1055006  11.8075017  38.2799987  63.0325006  11.8075017
  56.5249987  57.6555006  13.6765017  57.4819987  57.6555006  13.6765017
  56.2849987  58.5825006  13.6765017  54.2229987  59.6215006   0.1465017
  55.1799987  59.6215006   0.1465017  53.9829987  60.5485006   0.1465017
  39.7059987  60.4145006   4.7135017  40.6629987  60.4145006   4.7135017
  39.4659987  61.3415006   4.7135017  56.0549987  59.7575006  12.0275017
  57.0119987  59.7575006  12.0275017  55.8149987  60.6845006  12.0275017
  56.0559987  59.6495006 157.2555017  57.0129987  59.6495006 157.2555017
  55.8159987  60.5765006 157.2555017  38.3629987  59.6965006 160.3625017
  39.3199987  59.6965006 160.3625017  38.1229987  60.6235006 160.3625017
  53.1009987  74.6435006   1.7645017  54.0579987  74.6435006   1.7645017
  52.8609987  75.5705006   1.7645017  38.3259987  58.3885006   8.1415017
  39.2829987  58.3885006   8.1415017  38.0859987  59.3155006   8.1415017
  40.5369987  71.5565006  12.2855017  41.4939987  71.5565006  12.2855017
  40.2969987  72.4835006  12.2855017  43.4509987  72.5995006   8.6245017
  44.4079987  72.5995006   8.6245017  43.2109987  73.5265006   8.6245017
  47.7669987  73.9715006  11.4665017  48.7239987  73.9715006  11.4665017
  47.5269987  74.8985006  11.4665017  50.0689987  75.2425006  10.7585017
  51.0259987  75.2425006  10.7585017  49.8289987  76.1695006  10.7585017
  55.0679987  57.8545006   9.8625017  56.0249987  57.8545006   9.8625017
  54.8279987  58.7815006   9.8625017  40.8899987  75.8295006   8.5825017
  41.8469987  75.8295006   8.5825017  40.6499987  76.7565006   8.5825017
  43.3679987  75.3855006   7.6355017  44.3249987  75.3855006   7.6355017
  43.1279987  76.3125006   7.6355017  48.0409987  75.2785006   6.7925017
  48.9979987  75.2785006   6.7925017  47.8009987  76.2055006   6.7925017
  50.3519987  74.1145006   7.7905017  51.3089987  74.1145006   7.7905017
  50.1119987  75.0415006   7.7905017  52.9359987  75.6835006   8.0515017
  53.8929987  75.6835006   8.0515017  52.6959987  76.6105006   8.0515017
  40.3469987  74.5045006   5.5255017  41.3039987  74.5045006   5.5255017
  40.1069987  75.4315006   5.5255017  42.4449987  73.2085006   4.1425017
  43.4019987  73.2085006   4.1425017  42.2049987  74.1355006   4.1425017
  44.9859987  73.6255006   5.0295017  45.9429987  73.6255006   5.0295017
  44.7459987  74.5525006   5.0295017  48.4669987  59.2845006   4.1635017
  49.4239987  59.2845006   4.1635017  48.2269987  60.2115006   4.1635017
  53.6009987  57.3465006   4.2445017  54.5579987  57.3465006   4.2445017
  53.3609987  58.2735006   4.2445017  55.2809987  58.5635006   2.5345017
  56.2379987  58.5635006   2.5345017  55.0409987  59.4905006   2.5345017
  40.8259987  57.9175006   1.9985017  41.7829987  57.9175006   1.9985017
  40.5859987  58.8445006   1.9985017  39.6139987  57.6745006 158.2885017
  40.5709987  57.6745006 158.2885017  39.3739987  58.6015006 158.2885017
  45.3269987  57.8355006   1.7895017  46.2839987  57.8355006   1.7895017
  45.0869987  58.7625006   1.7895017  50.9939987  57.8615006   3.4295017
  51.9509987  57.8615006   3.4295017  50.7539987  58.7885006   3.4295017
  52.2849987  57.8955006 159.6655017  53.2419987  57.8955006 159.6655017
  52.0449987  58.8225006 159.6655017  41.4469987  59.6155006 156.7745017
  42.4039987  59.6155006 156.7745017  41.2069987  60.5425006 156.7745017
  46.4749987  59.8695006 159.1895017  47.4319987  59.8695006 159.1895017
  46.2349987  60.7965006 159.1895017  48.3879987  74.9045006 157.6375017
  49.3449987  74.9045006 157.6375017  48.1479987  75.8315006 157.6375017
  55.1019987  74.4315006 160.3395017  56.0589987  74.4315006 160.3395017
  54.8619987  75.3585006 160.3395017  41.3469987  74.6185006 156.2255017
  42.3039987  74.6185006 156.2255017  41.1069987  75.5455006 156.2255017
  51.1299987  57.1275006  13.2375017  52.0869987  57.1275006  13.2375017
  50.8899987  58.0545006  13.2375017  54.3399987  73.1815006  11.9115017
  55.2969987  73.1815006  11.9115017  54.0999987  74.1085006  11.9115017
  59.9879987  65.9545006   6.9155017  60.9449987  65.9545006   6.9155017
  59.7479987  66.8815006   6.9155017  60.9619987  70.4295006   5.4555017
  61.9189987  70.4295006   5.4555017  60.7219987  71.3565006   5.4555017
  57.5589987  63.9925006   0.9045017  58.5159987  63.9925006   0.9045017
  57.3189987  64.9195006   0.9045017  58.2639987  66.2145006   3.0365017
  59.2209987  66.2145006   3.0365017  58.0239987  67.1415006   3.0365017
  74.6609987  60.3405006   6.5795017  75.6179987  60.3405006   6.5795017
  74.4209987  61.2675006   6.5795017  62.3029987  61.2565006   3.3735017
  63.2599987  61.2565006   3.3735017  62.0629987  62.1835006   3.3735017
  70.0499987  61.3285006   1.7285017  71.0069987  61.3285006   1.7285017
  69.8099987  62.2555006   1.7285017  58.9269987  63.6715006   4.1085017
  59.8839987  63.6715006   4.1085017  58.6869987  64.5985006   4.1085017
  64.0939987  65.2255006   3.3595017  65.0509987  65.2255006   3.3595017
  63.8539987  66.1525006   3.3595017  75.0899987  61.7795006   8.8485017
  76.0469987  61.7795006   8.8485017  74.8499987  62.7065006   8.8485017
  61.1899987  60.1605006   7.4145017  62.1469987  60.1605006   7.4145017
  60.9499987  61.0875006   7.4145017  71.8499987  60.6625006   3.7175017
  72.8069987  60.6625006   3.7175017  71.6099987  61.5895006   3.7175017
  60.7439987  62.0255006   5.4165017  61.7009987  62.0255006   5.4165017
  60.5039987  62.9525006   5.4165017  58.2469987  69.4355006 159.8155017
  59.2039987  69.4355006 159.8155017  58.0069987  70.3625006 159.8155017
  72.1809987  59.3855006   7.4305017  73.1379987  59.3855006   7.4305017
  71.9409987  60.3125006   7.4305017  65.1579987  57.4915006   4.8725017
  66.1149987  57.4915006   4.8725017  64.9179987  58.4185006   4.8725017
  72.9709987  69.3805006   9.6355017  73.9279987  69.3805006   9.6355017
  72.7309987  70.3075006   9.6355017  67.3839987  66.2185006 159.8695017
  68.3409987  66.2185006 159.8695017  67.1439987  67.1455006 159.8695017
  67.4699987  64.7845006 156.9595017  68.4269987  64.7845006 156.9595017
  67.2299987  65.7115006 156.9595017  74.8289987  65.7065006   7.6835017
  75.7859987  65.7065006   7.6835017  74.5889987  66.6335006   7.6835017
  62.4769987  67.1595006   2.2315017  63.4339987  67.1595006   2.2315017
  62.2369987  68.0865006   2.2315017  62.8369987  65.9125006   5.8685017
  63.7939987  65.9125006   5.8685017  62.5969987  66.8395006   5.8685017
  69.7349987  65.6995006 158.5385017  70.6919987  65.6995006 158.5385017
  69.4949987  66.6265006 158.5385017  60.7139987  66.4845006   9.7655017
  61.6709987  66.4845006   9.7655017  60.4739987  67.4115006   9.7655017
  61.9509987  72.3935006  11.2935017  62.9079987  72.3935006  11.2935017
  61.7109987  73.3205006  11.2935017  73.4709987  57.4245006 158.3955017
  74.4279987  57.4245006 158.3955017  73.2309987  58.3515006 158.3955017
  61.5089987  66.1745006 160.3395017  62.4659987  66.1745006 160.3395017
  61.2689987  67.1015006 160.3395017  57.5609987  68.6105006   8.6755017
  58.5179987  68.6105006   8.6755017  57.3209987  69.5375006   8.6755017
  57.3449987  71.3525006   5.5205017  58.3019987  71.3525006   5.5205017
  57.1049987  72.2795006   5.5205017  75.5629987  72.0495006  11.1795017
  76.5199987  72.0495006  11.1795017  75.3229987  72.9765006  11.1795017
  66.9349987  75.3625006 160.4205017  67.8919987  75.3625006 160.4205017
  66.6949987  76.2895006 160.4205017  60.5899987  74.1965006   1.6635017
  61.5469987  74.1965006   1.6635017  60.3499987  75.1235006   1.6635017
  70.0009987  74.5455006 157.3885017  70.9579987  74.5455006 157.3885017
  69.7609987  75.4725006 157.3885017  69.6869987  74.4515006 160.1285017
  70.6439987  74.4515006 160.1285017  69.4469987  75.3785006 160.1285017
  72.7019987  63.5215006  11.6705017  73.6589987  63.5215006  11.6705017
  72.4619987  64.4485006  11.6705017  59.8449987  69.9265006   9.6465017
  60.8019987  69.9265006   9.6465017  59.6049987  70.8535006   9.6465017
  62.5059987  58.3875006   5.6345017  63.4629987  58.3875006   5.6345017
  62.2659987  59.3145006   5.6345017  67.1449987  58.0725006   8.9945017
  68.1019987  58.0725006   8.9945017  66.9049987  58.9995006   8.9945017
  70.4919987  61.9155006   9.9365017  71.4489987  61.9155006   9.9365017
  70.2519987  62.8425006   9.9365017  71.1869987  66.7135006 156.2505017
  72.1439987  66.7135006 156.2505017  70.9469987  67.6405006 156.2505017
  66.7939987  60.6535006 156.8475017  67.7509987  60.6535006 156.8475017
  66.5539987  61.5805006 156.8475017  62.5629987  63.3395006   6.8355017
  63.5199987  63.3395006   6.8355017  62.3229987  64.2665006   6.8355017
  62.5749987  63.5275006   1.7055017  63.5319987  63.5275006   1.7055017
  62.3349987  64.4545006   1.7055017  68.0409987  63.9655006   0.4895017
  68.9979987  63.9655006   0.4895017  67.8009987  64.8925006   0.4895017
  67.1559987  64.2155006  12.0055017  68.1129987  64.2155006  12.0055017
  66.9159987  65.1425006  12.0055017  68.9829987  63.3555006   3.2545017
  69.9399987  63.3555006   3.2545017  68.7429987  64.2825006   3.2545017
  60.2589987  63.6475006   8.5785017  61.2159987  63.6475006   8.5785017
  60.0189987  64.5745006   8.5785017  63.6489987  61.0685006 155.9855017
  64.6059987  61.0685006 155.9855017  63.4089987  61.9955006 155.9855017
  56.8959987  60.7525006   2.5195017  57.8529987  60.7525006   2.5195017
  56.6559987  61.6795006   2.5195017  58.1889987  61.4815006 158.4755017
  59.1459987  61.4815006 158.4755017  57.9489987  62.4085006 158.4755017
  65.1339987  61.0375006   2.7385017  66.0909987  61.0375006   2.7385017
  64.8939987  61.9645006   2.7385017  59.9499987  62.6025006   1.6085017
  60.9069987  62.6025006   1.6085017  59.7099987  63.5295006   1.6085017
  63.5919987  62.6595006 159.7965017  64.5489987  62.6595006 159.7965017
  63.3519987  63.5865006 159.7965017  69.5499987  60.1605006   6.0155017
  70.5069987  60.1605006   6.0155017  69.3099987  61.0875006   6.0155017
  62.3099987  63.8185006 157.3835017  63.2669987  63.8185006 157.3835017
  62.0699987  64.7455006 157.3835017  72.8199987  75.8665006  12.2955017
  73.7769987  75.8665006  12.2955017  72.5799987  76.7935006  12.2955017
  60.4119987  68.3935006  11.8835017  61.3689987  68.3935006  11.8835017
  60.1719987  69.3205006  11.8835017  66.3119987  63.7275006   4.5585017
  67.2689987  63.7275006   4.5585017  66.0719987  64.6545006   4.5585017
  61.4319987  59.9375006   1.0755017  62.3889987  59.9375006   1.0755017
  61.1919987  60.8645006   1.0755017  65.0389987  62.1245006   7.0635017
  65.9959987  62.1245006   7.0635017  64.7989987  63.0515006   7.0635017
  72.7879987  67.5565006   7.5465017  73.7449987  67.5565006   7.5465017
  72.5479987  68.4835006   7.5465017  69.4959987  61.1575006 157.4635017
  70.4529987  61.1575006 157.4635017  69.2559987  62.0845006 157.4635017
  67.0699987  68.5125006   9.9485017  68.0269987  68.5125006   9.9485017
  66.8299987  69.4395006   9.9485017  70.2039987  63.0725006 159.0945017
  71.1609987  63.0725006 159.0945017  69.9639987  63.9995006 159.0945017
  60.7619987  67.7315006   4.5515017  61.7189987  67.7315006   4.5515017
  60.5219987  68.6585006   4.5515017  57.7469987  66.1495006   9.8045017
  58.7039987  66.1495006   9.8045017  57.5069987  67.0765006   9.8045017
  64.7579987  65.6745006  12.0135017  65.7149987  65.6745006  12.0135017
  64.5179987  66.6015006  12.0135017  75.1229987  63.2235006 158.8605017
  76.0799987  63.2235006 158.8605017  74.8829987  64.1505006 158.8605017
  75.1159987  69.0785006  11.1415017  76.0729987  69.0785006  11.1415017
  74.8759987  70.0055006  11.1415017  63.1019987  71.2145006   1.9895017
  64.0589987  71.2145006   1.9895017  62.8619987  72.1415006   1.9895017
  58.8919987  66.0405006 157.0425017  59.8489987  66.0405006 157.0425017
  58.6519987  66.9675006 157.0425017  64.5179987  68.8385006   1.4715017
  65.4749987  68.8385006   1.4715017  64.2779987  69.7655006   1.4715017
  63.2429987  73.8795006   1.0165017  64.1999987  73.8795006   1.0165017
  63.0029987  74.8065006   1.0165017  70.8269987  70.0755006 157.1085017
  71.7839987  70.0755006 157.1085017  70.5869987  71.0025006 157.1085017
  75.3379987  74.5045006 157.3575017  76.2949987  74.5045006 157.3575017
  75.0979987  75.4315006 157.3575017  59.3949987  60.8865006   9.3635017
  60.3519987  60.8865006   9.3635017  59.1549987  61.8135006   9.3635017
  59.0519987  72.6815006   7.7925017  60.0089987  72.6815006   7.7925017
  58.8119987  73.6085006   7.7925017  64.9649987  71.1825006 155.5925017
  65.9219987  71.1825006 155.5925017  64.7249987  72.1095006 155.5925017
  63.7909987  70.7185006 158.0475017  64.7479987  70.7185006 158.0475017
  63.5509987  71.6455006 158.0475017  60.2909987  67.9625006 158.5335017
  61.2479987  67.9625006 158.5335017  60.0509987  68.8895006 158.5335017
  68.1069987  60.6265006   8.3155017  69.0639987  60.6265006   8.3155017
  67.8669987  61.5535006   8.3155017  68.8609987  60.2655006 159.9465017
  69.8179987  60.2655006 159.9465017  68.6209987  61.1925006 159.9465017
  66.5689987  72.4015006 158.7685017  67.5259987  72.4015006 158.7685017
  66.3289987  73.3285006 158.7685017  66.0579987  62.0835006   0.2125017
  67.0149987  62.0835006   0.2125017  65.8179987  63.0105006   0.2125017
  66.5849987  62.9495006   9.4555017  67.5419987  62.9495006   9.4555017
  66.3449987  63.8765006   9.4555017  66.9589987  59.0465006   1.1275017
  67.9159987  59.0465006   1.1275017  66.7189987  59.9735006   1.1275017
  63.9349987  73.4245006 158.7645017  64.8919987  73.4245006 158.7645017
  63.6949987  74.3515006 158.7645017  62.6309987  60.1445006 158.3795017
  63.5879987  60.1445006 158.3795017  62.3909987  61.0715006 158.3795017
  72.8529987  60.8745006  10.2575017  73.8099987  60.8745006  10.2575017
  72.6129987  61.8015006  10.2575017  60.8559987  70.5805006 157.4175017
  61.8129987  70.5805006 157.4175017  60.6159987  71.5075006 157.4175017
  59.2009987  63.2525006 156.5495017  60.1579987  63.2525006 156.5495017
  58.9609987  64.1795006 156.5495017  60.0109987  58.0405006   4.7315017
  60.9679987  58.0405006   4.7315017  59.7709987  58.9675006   4.7315017
  58.9609987  71.9565006   0.8775017  59.9179987  71.9565006   0.8775017
  58.7209987  72.8835006   0.8775017  58.2059987  74.6285006  12.1925017
  59.1629987  74.6285006  12.1925017  57.9659987  75.5555006  12.1925017
  66.9679987  73.0345006 155.7365017  67.9249987  73.0345006 155.7365017
  66.7279987  73.9615006 155.7365017  71.5199987  72.7865006 155.9065017
  72.4769987  72.7865006 155.9065017  71.2799987  73.7135006 155.9065017
  62.4349987  68.7435006 155.7565017  63.3919987  68.7435006 155.7565017
  62.1949987  69.6705006 155.7565017  64.7889987  68.3635006  12.5555017
  65.7459987  68.3635006  12.5555017  64.5489987  69.2905006  12.5555017
  67.8969987  69.8165006 155.5505017  68.8539987  69.8165006 155.5505017
  67.6569987  70.7435006 155.5505017  59.0059987  65.5865006  12.5515017
  59.9629987  65.5865006  12.5515017  58.7659987  66.5135006  12.5515017
  63.6569987  66.6975006 158.1445017  64.6139987  66.6975006 158.1445017
  63.4169987  67.6245006 158.1445017  62.9169987  64.5725006   9.9195017
  63.8739987  64.5725006   9.9195017  62.6769987  65.4995006   9.9195017
  64.7039987  64.9375006 156.3805017  65.6609987  64.9375006 156.3805017
  64.4639987  65.8645006 156.3805017  67.9619987  67.0975006  13.2195017
  68.9189987  67.0975006  13.2195017  67.7219987  68.0245006  13.2195017
  74.0689987  67.2855006 155.7765017  75.0259987  67.2855006 155.7765017
  73.8289987  68.2125006 155.7765017  63.2889987  61.9355006  10.9805017
  64.2459987  61.9355006  10.9805017  63.0489987  62.8625006  10.9805017
  63.6959987  60.3085006   8.5155017  64.6529987  60.3085006   8.5155017
  63.4559987  61.2355006   8.5155017  65.2149987  65.7785006   8.7455017
  66.1719987  65.7785006   8.7455017  64.9749987  66.7055006   8.7455017
  69.6429987  63.5695006  13.7935017  70.5999987  63.5695006  13.7935017
  69.4029987  64.4965006  13.7935017  70.9759987  66.3585006  11.8605017
  71.9329987  66.3585006  11.8605017  70.7359987  67.2855006  11.8605017
  61.7569987  63.1705006  12.9115017  62.7139987  63.1705006  12.9115017
  61.5169987  64.0975006  12.9115017  64.4909987  57.7555006   8.9275017
  65.4479987  57.7555006   8.9275017  64.2509987  58.6825006   8.9275017
  65.7669987  62.0725006  12.5185017  66.7239987  62.0725006  12.5185017
  65.5269987  62.9995006  12.5185017  68.4869987  61.2215006  11.6055017
  69.4439987  61.2215006  11.6055017  68.2469987  62.1485006  11.6055017
  70.0789987  59.8545006  13.5425017  71.0359987  59.8545006  13.5425017
  69.8389987  60.7815006  13.5425017  59.8549987  61.1165006  12.6405017
  60.8119987  61.1165006  12.6405017  59.6149987  62.0435006  12.6405017
  64.7079987  57.1225006  11.6185017  65.6649987  57.1225006  11.6185017
  64.4679987  58.0495006  11.6185017  65.0729987  58.7765006  13.6935017
  66.0299987  58.7765006  13.6935017  64.8329987  59.7035006  13.6935017
  64.5449987  75.6795006 157.4325017  65.5019987  75.6795006 157.4325017
  64.3049987  76.6065006 157.4325017  58.1109987  70.2615006 156.8965017
  59.0679987  70.2615006 156.8965017  57.8709987  71.1885006 156.8965017
  56.8659987  75.6395006   1.3495017  57.8229987  75.6395006   1.3495017
  56.6259987  76.5665006   1.3495017  57.6929987  73.7595006   3.1915017
  58.6499987  73.7595006   3.1915017  57.4529987  74.6865006   3.1915017
  75.2849987  74.5275006   6.1455017  76.2419987  74.5275006   6.1455017
  75.0449987  75.4545006   6.1455017  74.8229987  74.1555006   9.0825017
  75.7799987  74.1555006   9.0825017  74.5829987  75.0825006   9.0825017
  73.2449987  69.8935006  13.7215017  74.2019987  69.8935006  13.7215017
  73.0049987  70.8205006  13.7215017  74.9689987  66.2155006   1.0705017
  75.9259987  66.2155006   1.0705017  74.7289987  67.1425006   1.0705017
  74.7059987  68.9765006   6.0605017  75.6629987  68.9765006   6.0605017
  74.4659987  69.9035006   6.0605017  75.2379987  66.1105006 158.0085017
  76.1949987  66.1105006 158.0085017  74.9979987  67.0375006 158.0085017
  73.5959987  63.3425006 156.5255017  74.5529987  63.3425006 156.5255017
  73.3559987  64.2695006 156.5255017  72.8049987  64.6955006   1.6665017
  73.7619987  64.6955006   1.6665017  72.5649987  65.6225006   1.6665017
  57.7419987  66.8335006   5.6845017  58.6989987  66.8335006   5.6845017
  57.5019987  67.7605006   5.6845017  73.5909987  66.7405006  11.3045017
  74.5479987  66.7405006  11.3045017  73.3509987  67.6675006  11.3045017
  75.1069987  64.6165006  11.9765017  76.0639987  64.6165006  11.9765017
  74.8669987  65.5435006  11.9765017  72.8369987  60.8005006 155.6645017
  73.7939987  60.8005006 155.6645017  72.5969987  61.7275006 155.6645017
  72.3969987  62.3045006 160.6025017  73.3539987  62.3045006 160.6025017
  72.1569987  63.2315006 160.6025017  73.0679987  62.8765006   5.5325017
  74.0249987  62.8765006   5.5325017  72.8279987  63.8035006   5.5325017
  73.1239987  63.6245006   8.3975017  74.0809987  63.6245006   8.3975017
  72.8839987  64.5515006   8.3975017  57.3719987  62.1195006  11.8235017
  58.3289987  62.1195006  11.8235017  57.1319987  63.0465006  11.8235017
  75.3809987  57.6525006  13.6765017  76.3379987  57.6525006  13.6765017
  75.1409987  58.5795006  13.6765017  73.0809987  59.6185006   0.1465017
  74.0379987  59.6185006   0.1465017  72.8409987  60.5455006   0.1465017
  58.5679987  60.4265006   4.6955017  59.5249987  60.4265006   4.6955017
  58.3279987  61.3535006   4.6955017  56.8569987  63.4185006   5.7455017
  57.8139987  63.4185006   5.7455017  56.6169987  64.3455006   5.7455017
  74.9149987  59.7525006  12.0305017  75.8719987  59.7525006  12.0305017
  74.6749987  60.6795006  12.0305017  74.9059987  59.6605006 157.2425017
  75.8629987  59.6605006 157.2425017  74.6659987  60.5875006 157.2425017
  57.2169987  59.7005006 160.3765017  58.1739987  59.7005006 160.3765017
  56.9769987  60.6275006 160.3765017  71.9779987  74.6595006   1.7425017
  72.9349987  74.6595006   1.7425017  71.7379987  75.5865006   1.7425017
  57.1739987  58.3645006   8.1235017  58.1309987  58.3645006   8.1235017
  56.9339987  59.2915006   8.1235017  59.3729987  71.6075006  12.2995017
  60.3299987  71.6075006  12.2995017  59.1329987  72.5345006  12.2995017
  73.9239987  57.8545006   9.8635017  74.8809987  57.8545006   9.8635017
  73.6839987  58.7815006   9.8635017  59.1209987  74.4115006   5.4665017
  60.0779987  74.4115006   5.4665017  58.8809987  75.3385006   5.4665017
  61.2509987  73.1365006   4.1655017  62.2079987  73.1365006   4.1655017
  61.0109987  74.0635006   4.1655017  63.7349987  73.6015006   5.0055017
  64.6919987  73.6015006   5.0055017  63.4949987  74.5285006   5.0055017
  67.3129987  59.2765006   4.1605017  68.2699987  59.2765006   4.1605017
  67.0729987  60.2035006   4.1605017  72.4559987  57.3455006   4.2455017
  73.4129987  57.3455006   4.2455017  72.2159987  58.2725006   4.2455017
  74.1389987  58.5645006   2.5285017  75.0959987  58.5645006   2.5285017
  73.8989987  59.4915006   2.5285017  59.6789987  57.9135006   2.0105017
  60.6359987  57.9135006   2.0105017  59.4389987  58.8405006   2.0105017
  58.4839987  57.6725006 158.3135017  59.4409987  57.6725006 158.3135017
  58.2439987  58.5995006 158.3135017  64.1829987  57.8365006   1.7895017
  65.1399987  57.8365006   1.7895017  63.9429987  58.7635006   1.7895017
  69.8539987  57.8565006   3.4295017  70.8109987  57.8565006   3.4295017
  69.6139987  58.7835006   3.4295017  71.1479987  57.8925006 159.6535017
  72.1049987  57.8925006 159.6535017  70.9079987  58.8195006 159.6535017
  58.3839987  73.6235006 159.2735017  59.3409987  73.6235006 159.2735017
  58.1439987  74.5505006 159.2735017  60.3269987  59.6055006 156.8405017
  61.2839987  59.6055006 156.8405017  60.0869987  60.5325006 156.8405017
  65.3359987  59.8815006 159.1915017  66.2929987  59.8815006 159.1915017
  65.0959987  60.8085006 159.1915017  67.2439987  74.9195006 157.6365017
  68.2009987  74.9195006 157.6365017  67.0039987  75.8465006 157.6365017
  59.5789987  58.4505006  11.4635017  60.5359987  58.4505006  11.4635017
  59.3389987  59.3775006  11.4635017  61.5779987  57.8255006  13.0785017
  62.5349987  57.8255006  13.0785017  61.3379987  58.7525006  13.0785017
  60.1789987  74.5945006 156.2365017  61.1359987  74.5945006 156.2365017
  59.9389987  75.5215006 156.2365017  69.9899987  57.1355006  13.2345017
  70.9469987  57.1355006  13.2345017  69.7499987  58.0625006  13.2345017
  73.2139987  73.1715006  11.8405017  74.1709987  73.1715006  11.8405017
  72.9739987  74.0985006  11.8405017  87.6239987  67.0495006   1.8845017
  88.5809987  67.0495006   1.8845017  87.3839987  67.9765006   1.8845017
  86.4949987  66.3145006   5.3675017  87.4519987  66.3145006   5.3675017
  86.2549987  67.2415006   5.3675017  78.8519987  65.9705006   6.9225017
  79.8089987  65.9705006   6.9225017  78.6119987  66.8975006   6.9225017
  90.1949987  69.2555006   3.6485017  91.1519987  69.2555006   3.6485017
  89.9549987  70.1825006   3.6485017  79.7799987  70.4215006   5.4455017
  80.7369987  70.4215006   5.4455017  79.5399987  71.3485006   5.4455017
  76.4379987  63.9965006   0.8915017  77.3949987  63.9965006   0.8915017
  76.1979987  64.9235006   0.8915017  77.1479987  66.2185006   3.0565017
  78.1049987  66.2185006   3.0565017  76.9079987  67.1455006   3.0565017
  87.3049987  74.4045006   3.8825017  88.2619987  74.4045006   3.8825017
  87.0649987  75.3315006   3.8825017  84.8649987  68.7265006   5.8005017
  85.8219987  68.7265006   5.8005017  84.6249987  69.6535006   5.8005017
  93.4909987  60.3575006   6.5785017  94.4479987  60.3575006   6.5785017
  93.2509987  61.2845006   6.5785017  88.0339987  63.1755006   6.1365017
  88.9909987  63.1755006   6.1365017  87.7939987  64.1025006   6.1365017
  81.1639987  61.2605006   3.3715017  82.1209987  61.2605006   3.3715017
  80.9239987  62.1875006   3.3715017  88.8919987  61.3525006   1.7405017
  89.8489987  61.3525006   1.7405017  88.6519987  62.2795006   1.7405017
  77.7939987  63.6735006   4.1065017  78.7509987  63.6735006   4.1065017
  77.5539987  64.6005006   4.1065017  82.9449987  65.2275006   3.3955017
  83.9019987  65.2275006   3.3955017  82.7049987  66.1545006   3.3955017
  93.9289987  61.7835006   8.8385017  94.8859987  61.7835006   8.8385017
  93.6889987  62.7105006   8.8385017  80.0459987  60.1615006   7.4145017
  81.0029987  60.1615006   7.4145017  79.8059987  61.0885006   7.4145017
  87.3619987  69.6525006   0.9625017  88.3189987  69.6525006   0.9625017
  87.1219987  70.5795006   0.9625017  82.5779987  67.8105006   7.6695017
  83.5349987  67.8105006   7.6695017  82.3379987  68.7375006   7.6695017
  90.6859987  60.6885006   3.7325017  91.6429987  60.6885006   3.7325017
  90.4459987  61.6155006   3.7325017  79.6089987  62.0285006   5.4235017
  80.5659987  62.0285006   5.4235017  79.3689987  62.9555006   5.4235017
  81.0109987  69.7985006   8.4785017  81.9679987  69.7985006   8.4785017
  80.7709987  70.7255006   8.4785017  77.2019987  69.4535006 159.8035017
  78.1589987  69.4535006 159.8035017  76.9619987  70.3805006 159.8035017
  90.7179987  71.0815006   6.0415017  91.6749987  71.0815006   6.0415017
  90.4779987  72.0085006   6.0415017  91.0329987  59.3795006   7.4135017
  91.9899987  59.3795006   7.4135017  90.7929987  60.3065006   7.4135017
  84.0149987  57.4915006   4.8725017  84.9719987  57.4915006   4.8725017
  83.7749987  58.4185006   4.8725017  88.9709987  72.8755006   2.6185017
  89.9279987  72.8755006   2.6185017  88.7309987  73.8025006   2.6185017
  90.1719987  70.8025006   1.1255017  91.1289987  70.8025006   1.1255017
  89.9319987  71.7295006   1.1255017  91.9429987  69.5165006   9.5665017
  92.8999987  69.5165006   9.5665017  91.7029987  70.4435006   9.5665017
  86.2989987  66.2935006 159.9365017  87.2559987  66.2935006 159.9365017
  86.0589987  67.2205006 159.9365017  86.3599987  64.8275006 156.9455017
  87.3169987  64.8275006 156.9455017  86.1199987  65.7545006 156.9455017
  93.6559987  65.7045006   7.6865017  94.6129987  65.7045006   7.6865017
  93.4159987  66.6315006   7.6865017  89.7359987  66.5085006   0.3075017
  90.6929987  66.5085006   0.3075017  89.4959987  67.4355006   0.3075017
  89.6919987  64.7025006   9.3935017  90.6489987  64.7025006   9.3935017
  89.4519987  65.6295006   9.3935017  81.3569987  67.1675006   2.2205017
  82.3139987  67.1675006   2.2205017  81.1169987  68.0945006   2.2205017
  82.6839987  70.5615006   4.9015017  83.6409987  70.5615006   4.9015017
  82.4439987  71.4885006   4.9015017  81.6909987  65.9055006   5.8715017
  82.6479987  65.9055006   5.8715017  81.4509987  66.8325006   5.8715017
  88.0829987  71.4685006   6.5815017  89.0399987  71.4685006   6.5815017
  87.8429987  72.3955006   6.5815017  82.6359987  70.3285006  10.5725017
  83.5929987  70.3285006  10.5725017  82.3959987  71.2555006  10.5725017
  88.6009987  65.6915006 158.5265017  89.5579987  65.6915006 158.5265017
  88.3609987  66.6185006 158.5265017  79.5649987  66.4965006   9.7515017
  80.5219987  66.4965006   9.7515017  79.3249987  67.4235006   9.7515017
  86.3229987  72.4185006   1.4445017  87.2799987  72.4185006   1.4445017
  86.0829987  73.3455006   1.4445017  80.8699987  72.3785006  11.3295017
  81.8269987  72.3785006  11.3295017  80.6299987  73.3055006  11.3295017
  92.3269987  57.4255006 158.3955017  93.2839987  57.4255006 158.3955017
  92.0869987  58.3525006 158.3955017  80.3479987  66.1825006 160.3725017
  81.3049987  66.1825006 160.3725017  80.1079987  67.1095006 160.3725017
  93.4539987  71.7795006 156.7655017  94.4109987  71.7795006 156.7655017
  93.2139987  72.7065006 156.7655017  76.4199987  68.6195006   8.6925017
  77.3769987  68.6195006   8.6925017  76.1799987  69.5465006   8.6925017
  76.1849987  71.3405006   5.5135017  77.1419987  71.3405006   5.5135017
  75.9449987  72.2675006   5.5135017  94.4079987  72.0475006  11.1845017
  95.3649987  72.0475006  11.1845017  94.1679987  72.9745006  11.1845017
  85.3719987  71.5935006  10.0565017  86.3289987  71.5935006  10.0565017
  85.1319987  72.5205006  10.0565017  85.7889987  75.3435006 160.3965017
  86.7459987  75.3435006 160.3965017  85.5489987  76.2705006 160.3965017
  79.4339987  74.2115006   1.6675017  80.3909987  74.2115006   1.6675017
  79.1939987  75.1385006   1.6675017  88.8419987  74.5485006 157.3875017
  89.7989987  74.5485006 157.3875017  88.6019987  75.4755006 157.3875017
  88.5599987  74.4715006 160.1525017  89.5169987  74.4715006 160.1525017
  88.3199987  75.3985006 160.1525017  91.5499987  63.5345006  11.6675017
  92.5069987  63.5345006  11.6675017  91.3099987  64.4615006  11.6675017
  78.6729987  69.9375006   9.6665017  79.6299987  69.9375006   9.6665017
  78.4329987  70.8645006   9.6665017  81.3619987  58.3875006   5.6345017
  82.3189987  58.3875006   5.6345017  81.1219987  59.3145006   5.6345017
  86.0079987  58.0795006   8.9985017  86.9649987  58.0795006   8.9985017
  85.7679987  59.0065006   8.9985017  89.3199987  61.9085006   9.8945017
  90.2769987  61.9085006   9.8945017  89.0799987  62.8355006   9.8945017
  90.0539987  66.7275006 156.2755017  91.0109987  66.7275006 156.2755017
  89.8139987  67.6545006 156.2755017  85.6589987  60.6375006 156.8385017
  86.6159987  60.6375006 156.8385017  85.4189987  61.5645006 156.8385017
  81.4609987  63.3575006   6.8435017  82.4179987  63.3575006   6.8435017
  81.2209987  64.2845006   6.8435017  81.4259987  63.5165006   1.7225017
  82.3829987  63.5165006   1.7225017  81.1859987  64.4435006   1.7225017
  86.9489987  63.9865006   0.5155017  87.9059987  63.9865006   0.5155017
  86.7089987  64.9135006   0.5155017  86.0209987  64.1905006  11.9565017
  86.9779987  64.1905006  11.9565017  85.7809987  65.1175006  11.9565017
  87.9769987  63.4675006   3.3445017  88.9339987  63.4675006   3.3445017
  87.7369987  64.3945006   3.3445017  79.1149987  63.6405006   8.5755017
  80.0719987  63.6405006   8.5755017  78.8749987  64.5675006   8.5755017
  82.4909987  61.0265006 155.9555017  83.4479987  61.0265006 155.9555017
  82.2509987  61.9535006 155.9555017  77.0259987  61.4685006 158.4385017
  77.9829987  61.4685006 158.4385017  76.7859987  62.3955006 158.4385017
  87.2409987  65.0705006   7.9575017  88.1979987  65.0705006   7.9575017
  87.0009987  65.9975006   7.9575017  83.9869987  61.0275006   2.7455017
  84.9439987  61.0275006   2.7455017  83.7469987  61.9545006   2.7455017
  78.8049987  62.6035006   1.6075017  79.7619987  62.6035006   1.6075017
  78.5649987  63.5305006   1.6075017  82.4519987  62.6275006 159.7765017
  83.4089987  62.6275006 159.7765017  82.2119987  63.5545006 159.7765017
  88.3969987  60.2655006   5.9935017  89.3539987  60.2655006   5.9935017
  88.1569987  61.1925006   5.9935017  81.1429987  63.8165006 157.3705017
  82.0999987  63.8165006 157.3705017  80.9029987  64.7435006 157.3705017
  91.6119987  75.9135006  12.3095017  92.5689987  75.9135006  12.3095017
  91.3719987  76.8405006  12.3095017  79.2819987  68.3795006  11.8845017
  80.2389987  68.3795006  11.8845017  79.0419987  69.3065006  11.8845017
  85.2789987  63.7945006   4.6405017  86.2359987  63.7945006   4.6405017
  85.0389987  64.7215006   4.6405017  80.2889987  59.9405006   1.0745017
  81.2459987  59.9405006   1.0745017  80.0489987  60.8675006   1.0745017
  83.9179987  62.1335006   7.0525017  84.8749987  62.1335006   7.0525017
  83.6779987  63.0605006   7.0525017  84.5039987  68.3605006 159.2865017
  85.4609987  68.3605006 159.2865017  84.2639987  69.2875006 159.2865017
  91.6459987  67.5695006   7.5685017  92.6029987  67.5695006   7.5685017
  91.4059987  68.4965006   7.5685017  88.3429987  61.1715006 157.4695017
  89.2999987  61.1715006 157.4695017  88.1029987  62.0985006 157.4695017
  86.0239987  68.6055006  10.0025017  86.9809987  68.6055006  10.0025017
  85.7839987  69.5325006  10.0025017  89.0719987  63.0735006 159.1125017
  90.0289987  63.0735006 159.1125017  88.8319987  64.0005006 159.1125017
  79.6129987  67.7295006   4.5495017  80.5699987  67.7295006   4.5495017
  79.3729987  68.6565006   4.5495017  86.6089987  69.8245006 158.3185017
  87.5659987  69.8245006 158.3185017  86.3689987  70.7515006 158.3185017
  76.6089987  66.1455006   9.8115017  77.5659987  66.1455006   9.8115017
  76.3689987  67.0725006   9.8115017  83.6139987  65.7015006  12.0075017
  84.5709987  65.7015006  12.0075017  83.3739987  66.6285006  12.0075017
  88.2869987  71.0275006   9.9425017  89.2439987  71.0275006   9.9425017
  88.0469987  71.9545006   9.9425017  93.9789987  63.2245006 158.8655017
  94.9359987  63.2245006 158.8655017  93.7389987  64.1515006 158.8655017
  93.9379987  69.0315006  11.1455017  94.8949987  69.0315006  11.1455017
  93.6979987  69.9585006  11.1455017  92.2399987  72.0555006 159.2795017
  93.1969987  72.0555006 159.2795017  91.9999987  72.9825006 159.2795017
  89.4639987  66.8595006   5.8585017  90.4209987  66.8595006   5.8585017
  89.2239987  67.7865006   5.8585017  81.9859987  71.1935006   1.9315017
  82.9429987  71.1935006   1.9315017  81.7459987  72.1205006   1.9315017
  77.7449987  66.0325006 157.0465017  78.7019987  66.0325006 157.0465017
  77.5049987  66.9595006 157.0465017  83.4059987  68.8575006   1.4555017
  84.3629987  68.8575006   1.4555017  83.1659987  69.7845006   1.4555017
  83.8599987  73.0345006   7.8455017  84.8169987  73.0345006   7.8455017
  83.6199987  73.9615006   7.8455017  82.0839987  73.8705006   0.9755017
  83.0409987  73.8705006   0.9755017  81.8439987  74.7975006   0.9755017
  87.4009987  69.0715006   7.4755017  88.3579987  69.0715006   7.4755017
  87.1609987  69.9985006   7.4755017  89.6949987  70.1015006 157.1125017
  90.6519987  70.1015006 157.1125017  89.4549987  71.0285006 157.1125017
  90.1689987  73.6365006   9.9805017  91.1259987  73.6365006   9.9805017
  89.9289987  74.5635006   9.9805017  94.1699987  74.4775006 157.3535017
  95.1269987  74.4775006 157.3535017  93.9299987  75.4045006 157.3535017
  78.2509987  60.8855006   9.3635017  79.2079987  60.8855006   9.3635017
  78.0109987  61.8125006   9.3635017  90.4919987  68.7435006 159.3465017
  91.4489987  68.7435006 159.3465017  90.2519987  69.6705006 159.3465017
  77.8709987  72.6725006   7.7895017  78.8279987  72.6725006   7.7895017
  77.6309987  73.5995006   7.7895017  83.8159987  71.1855006 155.5915017
  84.7729987  71.1855006 155.5915017  83.5759987  72.1125006 155.5915017
  82.6489987  70.7175006 158.0445017  83.6059987  70.7175006 158.0445017
  82.4089987  71.6445006 158.0445017  79.1649987  67.9545006 158.5555017
  80.1219987  67.9545006 158.5555017  78.9249987  68.8815006 158.5555017
  86.9779987  60.6515006   8.3025017  87.9349987  60.6515006   8.3025017
  86.7379987  61.5785006   8.3025017  87.7379987  60.2345006 159.9385017
  88.6949987  60.2345006 159.9385017  87.4979987  61.1615006 159.9385017
  85.4259987  72.3985006 158.7705017  86.3829987  72.3985006 158.7705017
  85.1859987  73.3255006 158.7705017  84.9559987  61.9895006   0.2195017
  85.9129987  61.9895006   0.2195017  84.7159987  62.9165006   0.2195017
  85.5009987  62.9975006   9.4065017  86.4579987  62.9975006   9.4065017
  85.2609987  63.9245006   9.4065017  85.8159987  59.0475006   1.1255017
  86.7729987  59.0475006   1.1255017  85.5759987  59.9745006   1.1255017
  82.8039987  73.4135006 158.7935017  83.7609987  73.4135006 158.7935017
  82.5639987  74.3405006 158.7935017  81.4699987  60.1385006 158.3665017
  82.4269987  60.1385006 158.3665017  81.2299987  61.0655006 158.3665017
  91.7019987  60.8715006  10.2555017  92.6589987  60.8715006  10.2555017
  91.4619987  61.7985006  10.2555017  90.2999987  64.6625006   4.2865017
  91.2569987  64.6625006   4.2865017  90.0599987  65.5895006   4.2865017
  79.7229987  70.5855006 157.4185017  80.6799987  70.5855006 157.4185017
  79.4829987  71.5125006 157.4185017  78.0519987  63.2495006 156.5495017
  79.0089987  63.2495006 156.5495017  77.8119987  64.1765006 156.5495017
  91.3669987  73.9065006   5.9485017  92.3239987  73.9065006   5.9485017
  91.1269987  74.8335006   5.9485017  78.8669987  58.0405006   4.7305017
  79.8239987  58.0405006   4.7305017  78.6269987  58.9675006   4.7305017
  77.8479987  71.9775006   0.9065017  78.8049987  71.9775006   0.9065017
  77.6079987  72.9045006   0.9065017  77.0619987  74.6075006  12.1595017
  78.0189987  74.6075006  12.1595017  76.8219987  75.5345006  12.1595017
  81.6939987  73.5305006  13.7945017  82.6509987  73.5305006  13.7945017
  81.4539987  74.4575006  13.7945017  85.8149987  73.0525006 155.7435017
  86.7719987  73.0525006 155.7435017  85.5749987  73.9795006 155.7435017
  88.2439987  71.8885006  12.5095017  89.2009987  71.8885006  12.5095017
  88.0039987  72.8155006  12.5095017  90.3879987  72.8065006 155.9315017
  91.3449987  72.8065006 155.9315017  90.1479987  73.7335006 155.9315017
  76.9469987  68.3775006  13.1705017  77.9039987  68.3775006  13.1705017
  76.7069987  69.3045006  13.1705017  81.2899987  68.7325006 155.7575017
  82.2469987  68.7325006 155.7575017  81.0499987  69.6595006 155.7575017
  83.6439987  68.3705006  12.5635017  84.6009987  68.3705006  12.5635017
  83.4039987  69.2975006  12.5635017  86.7069987  69.8255006 155.5185017
  87.6639987  69.8255006 155.5185017  86.4669987  70.7525006 155.5185017
  88.8849987  68.4255006   9.7915017  89.8419987  68.4255006   9.7915017
  88.6449987  69.3525006   9.7915017  77.8529987  65.6105006  12.5595017
  78.8099987  65.6105006  12.5595017  77.6129987  66.5375006  12.5595017
  82.4859987  66.7405006 158.1445017  83.4429987  66.7405006 158.1445017
  82.2459987  67.6675006 158.1445017  81.7619987  64.5665006   9.9175017
  82.7189987  64.5665006   9.9175017  81.5219987  65.4935006   9.9175017
  83.5579987  64.9625006 156.3655017  84.5149987  64.9625006 156.3655017
  83.3179987  65.8895006 156.3655017  86.8289987  67.0975006  13.2115017
  87.7859987  67.0975006  13.2115017  86.5889987  68.0245006  13.2115017
  92.9119987  67.2945006 155.7995017  93.8689987  67.2945006 155.7995017
  92.6719987  68.2215006 155.7995017  82.1569987  61.9405006  10.9845017
  83.1139987  61.9405006  10.9845017  81.9169987  62.8675006  10.9845017
  82.5539987  60.3175006   8.5185017  83.5109987  60.3175006   8.5185017
  82.3139987  61.2445006   8.5185017  84.1049987  65.7845006   8.7635017
  85.0619987  65.7845006   8.7635017  83.8649987  66.7115006   8.7635017
  88.5109987  63.5755006  13.7285017  89.4679987  63.5755006  13.7285017
  88.2709987  64.5025006  13.7285017  89.8199987  66.3265006  11.9005017
  90.7769987  66.3265006  11.9005017  89.5799987  67.2535006  11.9005017
  80.6139987  63.1825006  12.8995017  81.5709987  63.1825006  12.8995017
  80.3739987  64.1095006  12.8995017  83.3519987  57.7585006   8.9175017
  84.3089987  57.7585006   8.9175017  83.1119987  58.6855006   8.9175017
  84.6219987  62.0825006  12.5195017  85.5789987  62.0825006  12.5195017
  84.3819987  63.0095006  12.5195017  87.3379987  61.2205006  11.5995017
  88.2949987  61.2205006  11.5995017  87.0979987  62.1475006  11.5995017
  88.9339987  59.8515006  13.5405017  89.8909987  59.8515006  13.5405017
  88.6939987  60.7785006  13.5405017  78.7099987  61.1085006  12.6325017
  79.6669987  61.1085006  12.6325017  78.4699987  62.0355006  12.6325017
  83.5599987  57.1245006  11.6145017  84.5169987  57.1245006  11.6145017
  83.3199987  58.0515006  11.6145017  83.9269987  58.7595006  13.7035017
  84.8839987  58.7595006  13.7035017  83.6869987  59.6865006  13.7035017
  83.3889987  75.5145006 157.4035017  84.3459987  75.5145006 157.4035017
  83.1489987  76.4415006 157.4035017  76.9969987  70.2755006 156.8655017
  77.9539987  70.2755006 156.8655017  76.7569987  71.2025006 156.8655017
  75.7109987  75.6295006   1.3395017  76.6679987  75.6295006   1.3395017
  75.4709987  76.5565006   1.3395017  76.5529987  73.7595006   3.1825017
  77.5099987  73.7595006   3.1825017  76.3129987  74.6865006   3.1825017
  94.0859987  74.5585006   6.1485017  95.0429987  74.5585006   6.1485017
  93.8459987  75.4855006   6.1485017  93.6609987  74.1595006   9.0945017
  94.6179987  74.1595006   9.0945017  93.4209987  75.0865006   9.0945017
  92.0989987  69.8935006  13.7285017  93.0559987  69.8935006  13.7285017
  91.8589987  70.8205006  13.7285017  93.4139987  68.1995006 159.7455017
  94.3709987  68.1995006 159.7455017  93.1739987  69.1265006 159.7455017
  93.7849987  66.2695006   1.0675017  94.7419987  66.2695006   1.0675017
  93.5449987  67.1965006   1.0675017  93.5379987  68.9785006   6.0765017
  94.4949987  68.9785006   6.0765017  93.2979987  69.9055006   6.0765017
  92.0839987  71.8625006   8.3415017  93.0409987  71.8625006   8.3415017
  91.8439987  72.7895006   8.3415017  94.0859987  66.1065006 158.0085017
  95.0429987  66.1065006 158.0085017  93.8459987  67.0335006 158.0085017
  92.4529987  63.3455006 156.5325017  93.4099987  63.3455006 156.5325017
  92.2129987  64.2725006 156.5325017  91.5999987  64.7555006   1.6345017
  92.5569987  64.7555006   1.6345017  91.3599987  65.6825006   1.6345017
  76.6029987  66.8395006   5.6835017  77.5599987  66.8395006   5.6835017
  76.3629987  67.7665006   5.6835017  92.5569987  66.6865006  11.4855017
  93.5139987  66.6865006  11.4855017  92.3169987  67.6135006  11.4855017
  93.9649987  64.6035006  11.9645017  94.9219987  64.6035006  11.9645017
  93.7249987  65.5305006  11.9645017  91.6929987  60.8005006 155.6645017
  92.6499987  60.8005006 155.6645017  91.4529987  61.7275006 155.6645017
  91.2609987  62.3375006 160.6145017  92.2179987  62.3375006 160.6145017
  91.0209987  63.2645006 160.6145017  91.9059987  62.8835006   5.5345017
  92.8629987  62.8835006   5.5345017  91.6659987  63.8105006   5.5345017
  91.9719987  63.6245006   8.3475017  92.9289987  63.6245006   8.3475017
  91.7319987  64.5515006   8.3475017  76.2189987  62.1355006  11.8365017
  77.1759987  62.1355006  11.8365017  75.9789987  63.0625006  11.8365017
  94.2369987  57.6495006  13.6755017  95.1939987  57.6495006  13.6755017
  93.9969987  58.5765006  13.6755017  91.9349987  59.6215006   0.1465017
  92.8919987  59.6215006   0.1465017  91.6949987  60.5485006   0.1465017
  77.4239987  60.4265006   4.6955017  78.3809987  60.4265006   4.6955017
  77.1839987  61.3535006   4.6955017  75.7359987  63.4145006   5.7505017
  76.6929987  63.4145006   5.7505017  75.4959987  64.3415006   5.7505017
  93.7669987  59.7585006  12.0265017  94.7239987  59.7585006  12.0265017
  93.5269987  60.6855006  12.0265017  93.7619987  59.6615006 157.2435017
  94.7189987  59.6615006 157.2435017  93.5219987  60.5885006 157.2435017
  76.0789987  59.6925006 160.3625017  77.0359987  59.6925006 160.3625017
  75.8389987  60.6195006 160.3625017  90.8059987  74.6515006   1.7615017
  91.7629987  74.6515006   1.7615017  90.5659987  75.5785006   1.7615017
  76.0309987  58.3615006   8.1245017  76.9879987  58.3615006   8.1245017
  75.7909987  59.2885006   8.1245017  78.2489987  71.5485006  12.2865017
  79.2059987  71.5485006  12.2865017  78.0089987  72.4755006  12.2865017
  81.1599987  72.5455006   8.5535017  82.1169987  72.5455006   8.5535017
  80.9199987  73.4725006   8.5535017  85.4849987  73.9615006  11.4665017
  86.4419987  73.9615006  11.4665017  85.2449987  74.8885006  11.4665017
  87.7779987  75.2425006  10.7595017  88.7349987  75.2425006  10.7595017
  87.5379987  76.1695006  10.7595017  92.7799987  57.8545006   9.8625017
  93.7369987  57.8545006   9.8625017  92.5399987  58.7815006   9.8625017
  78.5899987  75.8025006   8.5655017  79.5469987  75.8025006   8.5655017
  78.3499987  76.7295006   8.5655017  81.0569987  75.3735006   7.6255017
  82.0139987  75.3735006   7.6255017  80.8169987  76.3005006   7.6255017
  85.7599987  75.2815006   6.7935017  86.7169987  75.2815006   6.7935017
  85.5199987  76.2085006   6.7935017  88.0659987  74.1095006   7.7955017
  89.0229987  74.1095006   7.7955017  87.8259987  75.0365006   7.7955017
  90.6459987  75.6805006   8.0495017  91.6029987  75.6805006   8.0495017
  90.4059987  76.6075006   8.0495017  78.0189987  74.4355006   5.4845017
  78.9759987  74.4355006   5.4845017  77.7789987  75.3625006   5.4845017
  80.1139987  73.1525006   4.1425017  81.0709987  73.1525006   4.1425017
  79.8739987  74.0795006   4.1425017  82.7109987  73.6355006   5.0165017
  83.6679987  73.6355006   5.0165017  82.4709987  74.5625006   5.0165017
  86.1789987  59.2845006   4.1635017  87.1359987  59.2845006   4.1635017
  85.9389987  60.2115006   4.1635017  91.3129987  57.3465006   4.2445017
  92.2699987  57.3465006   4.2445017  91.0729987  58.2735006   4.2445017
  92.9909987  58.5655006   2.5305017  93.9479987  58.5655006   2.5305017
  92.7509987  59.4925006   2.5305017  78.5379987  57.9175006   1.9995017
  79.4949987  57.9175006   1.9995017  78.2979987  58.8445006   1.9995017
  77.3249987  57.6735006 158.2895017  78.2819987  57.6735006 158.2895017
  77.0849987  58.6005006 158.2895017  83.0389987  57.8365006   1.7895017
  83.9959987  57.8365006   1.7895017  82.7989987  58.7635006   1.7895017
  88.7059987  57.8615006   3.4295017  89.6629987  57.8615006   3.4295017
  88.4659987  58.7885006   3.4295017  90.0039987  57.8925006 159.6535017
  90.9609987  57.8925006 159.6535017  89.7639987  58.8195006 159.6535017
  77.2219987  73.6385006 159.3005017  78.1789987  73.6385006 159.3005017
  76.9819987  74.5655006 159.3005017  79.1589987  59.6155006 156.7745017
  80.1159987  59.6155006 156.7745017  78.9189987  60.5425006 156.7745017
  84.1869987  59.8695006 159.1895017  85.1439987  59.8695006 159.1895017
  83.9469987  60.7965006 159.1895017  86.0709987  74.9755006 157.6065017
  87.0279987  74.9755006 157.6065017  85.8309987  75.9025006 157.6065017
  92.8139987  74.4315006 160.3395017  93.7709987  74.4315006 160.3395017
  92.5739987  75.3585006 160.3395017  78.4359987  58.4495006  11.4625017
  79.3929987  58.4495006  11.4625017  78.1959987  59.3765006  11.4625017
  80.4389987  57.8195006  13.0765017  81.3959987  57.8195006  13.0765017
  80.1989987  58.7465006  13.0765017  79.0449987  74.6115006 156.2385017
  80.0019987  74.6115006 156.2385017  78.8049987  75.5385006 156.2385017
  88.8429987  57.1275006  13.2365017  89.7999987  57.1275006  13.2365017
  88.6029987  58.0545006  13.2365017  92.0379987  73.1515006  11.8875017
  92.9949987  73.1515006  11.8875017  91.7979987  74.0785006  11.8875017
 106.4919987  67.0205006   1.8395017 107.4489987  67.0205006   1.8395017
 106.2519987  67.9475006   1.8395017 105.3209987  66.3225006   5.3765017
 106.2779987  66.3225006   5.3765017 105.0809987  67.2495006   5.3765017
  97.6849987  65.9795006   6.9405017  98.6419987  65.9795006   6.9405017
  97.4449987  66.9065006   6.9405017  98.6279987  70.4285006   5.4535017
  99.5849987  70.4285006   5.4535017  98.3879987  71.3555006   5.4535017
  95.2699987  63.9905006   0.9025017  96.2269987  63.9905006   0.9025017
  95.0299987  64.9175006   0.9025017  95.9719987  66.2005006   3.0235017
  96.9289987  66.2005006   3.0235017  95.7319987  67.1275006   3.0235017
 106.1809987  74.3715006   3.8605017 107.1379987  74.3715006   3.8605017
 105.9409987  75.2985006   3.8605017 103.7329987  68.7475006   5.8155017
 104.6899987  68.7475006   5.8155017 103.4929987  69.6745006   5.8155017
 106.2199987  62.9395006   6.0995017 107.1769987  62.9395006   6.0995017
 105.9799987  63.8665006   6.0995017 100.0139987  61.2665006   3.3705017
 100.9709987  61.2665006   3.3705017  99.7739987  62.1935006   3.3705017
 107.7189987  61.8445006   1.3395017 108.6759987  61.8445006   1.3395017
 107.4789987  62.7715006   1.3395017  96.6259987  63.6565006   4.1105017
  97.5829987  63.6565006   4.1105017  96.3859987  64.5835006   4.1105017
 102.0879987  64.9305006   3.0355017 103.0449987  64.9305006   3.0355017
 101.8479987  65.8575006   3.0355017  98.8919987  60.1395006   7.4155017
  99.8489987  60.1395006   7.4155017  98.6519987  61.0665006   7.4155017
 106.2309987  69.6555006   0.9585017 107.1879987  69.6555006   0.9585017
 105.9909987  70.5825006   0.9585017 101.4529987  67.8275006   7.7355017
 102.4099987  67.8275006   7.7355017 101.2129987  68.7545006   7.7355017
  98.4579987  62.0295006   5.4165017  99.4149987  62.0295006   5.4165017
  98.2179987  62.9565006   5.4165017  99.8659987  69.8045006   8.4945017
 100.8229987  69.8045006   8.4945017  99.6259987  70.7315006   8.4945017
  95.9529987  69.4375006 159.8105017  96.9099987  69.4375006 159.8105017
  95.7129987  70.3645006 159.8105017 102.8769987  57.4945006   4.8815017
 103.8339987  57.4945006   4.8815017 102.6369987  58.4215006   4.8815017
 107.5019987  72.6985006   2.2145017 108.4589987  72.6985006   2.2145017
 107.2619987  73.6255006   2.2145017 105.1269987  66.2865006 159.9175017
 106.0839987  66.2865006 159.9175017 104.8869987  67.2135006 159.9175017
 105.1939987  64.8185006 156.9385017 106.1509987  64.8185006 156.9385017
 104.9539987  65.7455006 156.9385017 100.1499987  67.1995006   1.8565017
 101.1069987  67.1995006   1.8565017  99.9099987  68.1265006   1.8565017
 101.5639987  70.6155006   4.8875017 102.5209987  70.6155006   4.8875017
 101.3239987  71.5425006   4.8875017 100.6179987  65.6735006   6.3115017
 101.5749987  65.6735006   6.3115017 100.3779987  66.6005006   6.3115017
 106.5359987  71.4915006   6.6235017 107.4929987  71.4915006   6.6235017
 106.2959987  72.4185006   6.6235017 101.4869987  70.3295006  10.5765017
 102.4439987  70.3295006  10.5765017 101.2469987  71.2565006  10.5765017
 107.4589987  65.6745006 158.5415017 108.4159987  65.6745006 158.5415017
 107.2189987  66.6015006 158.5415017  98.4209987  66.5025006   9.7515017
  99.3779987  66.5025006   9.7515017  98.1809987  67.4295006   9.7515017
 105.0829987  72.4135006   1.4355017 106.0399987  72.4135006   1.4355017
 104.8429987  73.3405006   1.4355017  99.7269987  72.3795006  11.3295017
 100.6839987  72.3795006  11.3295017  99.4869987  73.3065006  11.3295017
  99.1899987  66.1395006 160.2725017 100.1469987  66.1395006 160.2725017
  98.9499987  67.0665006 160.2725017  95.2479987  68.6125006   8.7145017
  96.2049987  68.6125006   8.7145017  95.0079987  69.5395006   8.7145017
  95.0319987  71.3465006   5.5105017  95.9889987  71.3465006   5.5105017
  94.7919987  72.2735006   5.5105017 104.2459987  71.5915006  10.0775017
 105.2029987  71.5915006  10.0775017 104.0059987  72.5185006  10.0775017
 104.6649987  75.3435006 160.4075017 105.6219987  75.3435006 160.4075017
 104.4249987  76.2705006 160.4075017  98.3019987  74.2055006   1.6695017
  99.2589987  74.2055006   1.6695017  98.0619987  75.1325006   1.6695017
 107.7399987  74.5275006 157.3685017 108.6969987  74.5275006 157.3685017
 107.4999987  75.4545006 157.3685017 107.2489987  74.3045006 160.0075017
 108.2059987  74.3045006 160.0075017 107.0089987  75.2315006 160.0075017
  97.5379987  69.9265006   9.6645017  98.4949987  69.9265006   9.6645017
  97.2979987  70.8535006   9.6645017 100.2189987  58.3875006   5.6335017
 101.1759987  58.3875006   5.6335017  99.9789987  59.3145006   5.6335017
 104.8999987  58.0635006   9.0105017 105.8569987  58.0635006   9.0105017
 104.6599987  58.9905006   9.0105017 104.5259987  60.6335006 156.8595017
 105.4829987  60.6335006 156.8595017 104.2859987  61.5605006 156.8595017
 100.2869987  63.2545006   6.8395017 101.2439987  63.2545006   6.8395017
 100.0469987  64.1815006   6.8395017 100.2579987  63.4885006   1.7195017
 101.2149987  63.4885006   1.7195017 100.0179987  64.4155006   1.7195017
 105.7909987  63.9915006   0.5135017 106.7479987  63.9915006   0.5135017
 105.5509987  64.9185006   0.5135017 104.8979987  64.2195006  11.9875017
 105.8549987  64.2195006  11.9875017 104.6579987  65.1465006  11.9875017
 106.7889987  63.4495006   3.3385017 107.7459987  63.4495006   3.3385017
 106.5489987  64.3765006   3.3385017  97.9639987  63.6405006   8.5755017
  98.9209987  63.6405006   8.5755017  97.7239987  64.5675006   8.5755017
 101.3449987  61.0275006 155.9525017 102.3019987  61.0275006 155.9525017
 101.1049987  61.9545006 155.9525017  94.6079987  60.7525006   2.5195017
  95.5649987  60.7525006   2.5195017  94.3679987  61.6795006   2.5195017
  95.8869987  61.4645006 158.4445017  96.8439987  61.4645006 158.4445017
  95.6469987  62.3915006 158.4445017 106.0449987  65.0675006   7.9495017
 107.0019987  65.0675006   7.9495017 105.8049987  65.9945006   7.9495017
 102.8469987  61.0065006   2.7415017 103.8039987  61.0065006   2.7415017
 102.6069987  61.9335006   2.7415017  97.6549987  62.5995006   1.6075017
  98.6119987  62.5995006   1.6075017  97.4149987  63.5265006   1.6075017
 101.3079987  62.6255006 159.7745017 102.2649987  62.6255006 159.7745017
 101.0679987  63.5525006 159.7745017 107.2399987  60.2185006   6.0455017
 108.1969987  60.2185006   6.0455017 106.9999987  61.1455006   6.0455017
 100.0029987  63.8175006 157.3715017 100.9599987  63.8175006 157.3715017
  99.7629987  64.7445006 157.3715017  98.1359987  68.3825006  11.8815017
  99.0929987  68.3825006  11.8815017  97.8959987  69.3095006  11.8815017
 104.1119987  63.7835006   4.6145017 105.0689987  63.7835006   4.6145017
 103.8719987  64.7105006   4.6145017  99.1449987  59.9405006   1.0745017
 100.1019987  59.9405006   1.0745017  98.9049987  60.8675006   1.0745017
 102.7559987  62.1335006   7.0545017 103.7129987  62.1335006   7.0545017
 102.5159987  63.0605006   7.0545017 103.3639987  68.3625006 159.2915017
 104.3209987  68.3625006 159.2915017 103.1239987  69.2895006 159.2915017
 107.1549987  61.1935006 157.4765017 108.1119987  61.1935006 157.4765017
 106.9149987  62.1205006 157.4765017 104.8419987  68.5795006   9.9815017
 105.7989987  68.5795006   9.9815017 104.6019987  69.5065006   9.9815017
   0.1189987  63.1785006 159.1755017   1.0759987  63.1785006 159.1755017
  -0.1210013  64.1055006 159.1755017  98.3149987  67.7045006   4.5015017
  99.2719987  67.7045006   4.5015017  98.0749987  68.6315006   4.5015017
 105.4559987  69.8125006 158.3065017 106.4129987  69.8125006 158.3065017
 105.2159987  70.7395006 158.3065017  95.4379987  66.1585006   9.8235017
  96.3949987  66.1585006   9.8235017  95.1979987  67.0855006   9.8235017
 102.4729987  65.6995006  12.0115017 103.4299987  65.6995006  12.0115017
 102.2329987  66.6265006  12.0115017 107.1539987  71.0745006   9.9155017
 108.1109987  71.0745006   9.9155017 106.9139987  72.0015006   9.9155017
 100.8379987  71.2035006   1.9205017 101.7949987  71.2035006   1.9205017
 100.5979987  72.1305006   1.9205017  96.6039987  66.0405006 157.0435017
  97.5609987  66.0405006 157.0435017  96.3639987  66.9675006 157.0435017
 102.2599987  68.8705006   1.4305017 103.2169987  68.8705006   1.4305017
 102.0199987  69.7975006   1.4305017 102.7059987  73.0335006   7.8465017
 103.6629987  73.0335006   7.8465017 102.4659987  73.9605006   7.8465017
 100.9349987  73.8635006   0.9955017 101.8919987  73.8635006   0.9955017
 100.6949987  74.7905006   0.9955017 106.2769987  69.0425006   7.4995017
 107.2339987  69.0425006   7.4995017 106.0369987  69.9695006   7.4995017
  97.1129987  60.8825006   9.3635017  98.0699987  60.8825006   9.3635017
  96.8729987  61.8095006   9.3635017  96.7329987  72.6795006   7.7925017
  97.6899987  72.6795006   7.7925017  96.4929987  73.6065006   7.7925017
 102.6639987  71.1885006 155.5825017 103.6209987  71.1885006 155.5825017
 102.4239987  72.1155006 155.5825017 101.5009987  70.7245006 158.0345017
 102.4579987  70.7245006 158.0345017 101.2609987  71.6515006 158.0345017
  97.9989987  67.9645006 158.5345017  98.9559987  67.9645006 158.5345017
  97.7589987  68.8915006 158.5345017 105.8509987  60.6375006   8.3125017
 106.8079987  60.6375006   8.3125017 105.6109987  61.5645006   8.3125017
 106.3259987  60.4575006 159.9165017 107.2829987  60.4575006 159.9165017
 106.0859987  61.3845006 159.9165017 104.2869987  72.3835006 158.7725017
 105.2439987  72.3835006 158.7725017 104.0469987  73.3105006 158.7725017
 103.7959987  62.0045006   0.2155017 104.7529987  62.0045006   0.2155017
 103.5559987  62.9315006   0.2155017 104.3319987  62.9615006   9.4115017
 105.2889987  62.9615006   9.4115017 104.0919987  63.8885006   9.4115017
 104.6979987  59.0515006   1.1345017 105.6549987  59.0515006   1.1345017
 104.4579987  59.9785006   1.1345017 101.6349987  73.4215006 158.7705017
 102.5919987  73.4215006 158.7705017 101.3949987  74.3485006 158.7705017
 100.3259987  60.1375006 158.3685017 101.2829987  60.1375006 158.3685017
 100.0859987  61.0645006 158.3685017  98.5659987  70.5775006 157.4245017
  99.5229987  70.5775006 157.4245017  98.3259987  71.5045006 157.4245017
  96.9089987  63.2475006 156.5395017  97.8659987  63.2475006 156.5395017
  96.6689987  64.1745006 156.5395017  97.7249987  58.0405006   4.7315017
  98.6819987  58.0405006   4.7315017  97.4849987  58.9675006   4.7315017
  96.6669987  71.9695006   0.8785017  97.6239987  71.9695006   0.8785017
  96.4269987  72.8965006   0.8785017  95.8949987  74.6035006  12.1775017
  96.8519987  74.6035006  12.1775017  95.6549987  75.5305006  12.1775017
 100.5529987  73.5295006  13.7895017 101.5099987  73.5295006  13.7895017
 100.3129987  74.4565006  13.7895017 104.7069987  73.0265006 155.7215017
 105.6639987  73.0265006 155.7215017 104.4669987  73.9535006 155.7215017
 107.1339987  71.9115006  12.5235017 108.0909987  71.9115006  12.5235017
 106.8939987  72.8385006  12.5235017  95.8069987  68.3895006  13.1635017
  96.7639987  68.3895006  13.1635017  95.5669987  69.3165006  13.1635017
 100.1399987  68.7305006 155.7605017 101.0969987  68.7305006 155.7605017
  99.8999987  69.6575006 155.7605017 102.4989987  68.3685006  12.5675017
 103.4559987  68.3685006  12.5675017 102.2589987  69.2955006  12.5675017
 105.5969987  69.8085006 155.5255017 106.5539987  69.8085006 155.5255017
 105.3569987  70.7355006 155.5255017  96.6959987  65.6085006  12.5495017
  97.6529987  65.6085006  12.5495017  96.4559987  66.5355006  12.5495017
 101.3369987  66.7455006 158.1295017 102.2939987  66.7455006 158.1295017
 101.0969987  67.6725006 158.1295017 100.6209987  64.5685006   9.9145017
 101.5779987  64.5685006   9.9145017 100.3809987  65.4955006   9.9145017
 102.4129987  64.9595006 156.3685017 103.3699987  64.9595006 156.3685017
 102.1729987  65.8865006 156.3685017 105.6769987  67.1075006  13.2645017
 106.6339987  67.1075006  13.2645017 105.4369987  68.0345006  13.2645017
 101.0109987  61.9365006  10.9905017 101.9679987  61.9365006  10.9905017
 100.7709987  62.8635006  10.9905017 101.4109987  60.2975006   8.5185017
 102.3679987  60.2975006   8.5185017 101.1709987  61.2245006   8.5185017
 102.9979987  65.7955006   8.7825017 103.9549987  65.7955006   8.7825017
 102.7579987  66.7225006   8.7825017 107.3909987  63.5835006  13.8435017
 108.3479987  63.5835006  13.8435017 107.1509987  64.5105006  13.8435017
  99.4649987  63.1825006  12.9025017 100.4219987  63.1825006  12.9025017
  99.2249987  64.1095006  12.9025017 102.2169987  57.7625006   8.9215017
 103.1739987  57.7625006   8.9215017 101.9769987  58.6895006   8.9215017
 103.4749987  62.0925006  12.5235017 104.4319987  62.0925006  12.5235017
 103.2349987  63.0195006  12.5235017 106.1369987  61.1935006  11.5785017
 107.0939987  61.1935006  11.5785017 105.8969987  62.1205006  11.5785017
 107.7739987  59.8905006  13.5195017 108.7309987  59.8905006  13.5195017
 107.5339987  60.8175006  13.5195017  97.5659987  61.1085006  12.6325017
  98.5229987  61.1085006  12.6325017  97.3259987  62.0355006  12.6325017
 102.4129987  57.1245006  11.6155017 103.3699987  57.1245006  11.6155017
 102.1729987  58.0515006  11.6155017 102.7809987  58.7555006  13.7005017
 103.7379987  58.7555006  13.7005017 102.5409987  59.6825006  13.7005017
 102.2629987  75.6625006 157.4285017 103.2199987  75.6625006 157.4285017
 102.0229987  76.5895006 157.4285017  95.8229987  70.2615006 156.8965017
  96.7799987  70.2615006 156.8965017  95.5829987  71.1885006 156.8965017
  94.5779987  75.6425006   1.3455017  95.5349987  75.6425006   1.3455017
  94.3379987  76.5695006   1.3455017  95.4079987  73.7625006   3.1985017
  96.3649987  73.7625006   3.1985017  95.1679987  74.6895006   3.1985017
  95.4709987  66.8395006   5.6865017  96.4279987  66.8395006   5.6865017
  95.2309987  67.7665006   5.6865017  95.0739987  62.1365006  11.8365017
  96.0309987  62.1365006  11.8365017  94.8339987  63.0635006  11.8365017
  96.2799987  60.4265006   4.6955017  97.2369987  60.4265006   4.6955017
  96.0399987  61.3535006   4.6955017  94.5669987  63.4215006   5.7485017
  95.5239987  63.4215006   5.7485017  94.3269987  64.3485006   5.7485017
  94.9319987  59.6955006 160.3625017  95.8889987  59.6955006 160.3625017
  94.6919987  60.6225006 160.3625017  94.8859987  58.3655006   8.1235017
  95.8429987  58.3655006   8.1235017  94.6459987  59.2925006   8.1235017
  97.1069987  71.5505006  12.2805017  98.0639987  71.5505006  12.2805017
  96.8669987  72.4775006  12.2805017 100.0169987  72.5475006   8.5515017
 100.9739987  72.5475006   8.5515017  99.7769987  73.4745006   8.5515017
 104.3349987  73.9805006  11.4935017 105.2919987  73.9805006  11.4935017
 104.0949987  74.9075006  11.4935017 106.6879987  75.2815006  10.7205017
 107.6449987  75.2815006  10.7205017 106.4479987  76.2085006  10.7205017
  97.4419987  75.7935006   8.5625017  98.3989987  75.7935006   8.5625017
  97.2019987  76.7205006   8.5625017  99.9129987  75.3755006   7.6275017
 100.8699987  75.3755006   7.6275017  99.6729987  76.3025006   7.6275017
 104.5959987  75.2825006   6.8005017 105.5529987  75.2825006   6.8005017
 104.3559987  76.2095006   6.8005017 106.9389987  74.1575006   7.8135017
 107.8959987  74.1575006   7.8135017 106.6989987  75.0845006   7.8135017
  96.8769987  74.4415006   5.4925017  97.8339987  74.4415006   5.4925017
  96.6369987  75.3685006   5.4925017  98.9709987  73.1465006   4.1465017
  99.9279987  73.1465006   4.1465017  98.7309987  74.0735006   4.1465017
 101.5389987  73.6305006   5.0125017 102.4959987  73.6305006   5.0125017
 101.2989987  74.5575006   5.0125017 105.0119987  59.2765006   4.1415017
 105.9689987  59.2765006   4.1415017 104.7719987  60.2035006   4.1415017
  97.3939987  57.9175006   1.9995017  98.3509987  57.9175006   1.9995017
  97.1539987  58.8445006   1.9995017  96.1829987  57.6745006 158.2885017
  97.1399987  57.6745006 158.2885017  95.9429987  58.6015006 158.2885017
 101.9009987  57.8255006   1.7885017 102.8579987  57.8255006   1.7885017
 101.6609987  58.7525006   1.7885017 107.4669987  57.7825006   3.5905017
 108.4239987  57.7825006   3.5905017 107.2269987  58.7095006   3.5905017
  96.0959987  73.6235006 159.2735017  97.0529987  73.6235006 159.2735017
  95.8559987  74.5505006 159.2735017  98.0149987  59.6135006 156.7755017
  98.9719987  59.6135006 156.7755017  97.7749987  60.5405006 156.7755017
 103.0449987  59.8695006 159.1925017 104.0019987  59.8695006 159.1925017
 102.8049987  60.7965006 159.1925017 104.9369987  74.9075006 157.6255017
 105.8939987  74.9075006 157.6255017 104.6969987  75.8345006 157.6255017
  97.2919987  58.4495006  11.4635017  98.2489987  58.4495006  11.4635017
  97.0519987  59.3765006  11.4635017  99.2959987  57.8235006  13.0765017
 100.2529987  57.8235006  13.0765017  99.0559987  58.7505006  13.0765017
  97.8909987  74.5945006 156.2375017  98.8479987  74.5945006 156.2375017
  97.6509987  75.5215006 156.2375017  -0.0900013  57.1875006  13.2665017
   0.8669987  57.1875006  13.2665017  -0.3300013  58.1145006  13.2665017
  12.1999987  85.9055006   1.8845017  13.1569987  85.9055006   1.8845017
  11.9599987  86.8325006   1.8845017  11.0709987  85.1725006   5.3695017
  12.0279987  85.1725006   5.3695017  10.8309987  86.0995006   5.3695017
   3.4769987  84.8035006   6.8985017   4.4339987  84.8035006   6.8985017
   3.2369987  85.7305006   6.8985017  14.8009987  88.1045006   3.6475017
  15.7579987  88.1045006   3.6475017  14.5609987  89.0315006   3.6475017
   4.3399987  89.2735006   5.4495017   5.2969987  89.2735006   5.4495017
   4.0999987  90.2005006   5.4495017   1.0659987  82.9505006   0.8545017
   2.0229987  82.9505006   0.8545017   0.8259987  83.8775006   0.8545017
   1.6879987  85.0415006   3.0315017   2.6449987  85.0415006   3.0315017
   1.4479987  85.9685006   3.0315017  11.8829987  93.2615006   3.8825017
  12.8399987  93.2615006   3.8825017  11.6429987  94.1885006   3.8825017
   9.4479987  87.5785006   5.8115017  10.4049987  87.5785006   5.8115017
   9.2079987  88.5055006   5.8115017  18.0679987  79.2125006   6.5795017
  19.0249987  79.2125006   6.5795017  17.8279987  80.1395006   6.5795017
  12.6129987  82.0315006   6.1365017  13.5699987  82.0315006   6.1365017
  12.3729987  82.9585006   6.1365017   5.7359987  80.1125006   3.3585017
   6.6929987  80.1125006   3.3585017   5.4959987  81.0395006   3.3585017
  13.4679987  80.2085006   1.7405017  14.4249987  80.2085006   1.7405017
  13.2279987  81.1355006   1.7405017   2.5409987  82.5715006   4.0095017
   3.4979987  82.5715006   4.0095017   2.3009987  83.4985006   4.0095017
   7.5189987  84.0815006   3.3945017   8.4759987  84.0815006   3.3945017
   7.2789987  85.0085006   3.3945017  18.5029987  80.6425006   8.8385017
  19.4599987  80.6425006   8.8385017  18.2629987  81.5695006   8.8385017
   4.6289987  79.0235006   7.4255017   5.5859987  79.0235006   7.4255017
   4.3889987  79.9505006   7.4255017  11.9379987  88.5075006   0.9585017
  12.8949987  88.5075006   0.9585017  11.6979987  89.4345006   0.9585017
   7.1539987  86.6655006   7.6695017   8.1109987  86.6655006   7.6695017
   6.9139987  87.5925006   7.6695017  15.2619987  79.5435006   3.7325017
  16.2189987  79.5435006   3.7325017  15.0219987  80.4705006   3.7325017
   4.2039987  80.8585006   5.4405017   5.1609987  80.8585006   5.4405017
   3.9639987  81.7855006   5.4405017   5.5919987  88.6535006   8.4735017
   6.5489987  88.6535006   8.4735017   5.3519987  89.5805006   8.4735017
   1.7039987  88.3085006 159.7865017   2.6609987  88.3085006 159.7865017
   1.4639987  89.2355006 159.7865017  15.2929987  89.9465006   6.0165017
  16.2499987  89.9465006   6.0165017  15.0529987  90.8735006   6.0165017
  15.6089987  78.2355006   7.4135017  16.5659987  78.2355006   7.4135017
  15.3689987  79.1625006   7.4135017   8.5889987  76.3465006   4.8715017
   9.5459987  76.3465006   4.8715017   8.3489987  77.2735006   4.8715017
  13.5469987  91.7305006   2.6175017  14.5039987  91.7305006   2.6175017
  13.3069987  92.6575006   2.6175017  14.7629987  89.6535006   1.1255017
  15.7199987  89.6535006   1.1255017  14.5229987  90.5805006   1.1255017
  16.3849987  88.2395006   9.6205017  17.3419987  88.2395006   9.6205017
  16.1449987  89.1665006   9.6205017  10.8749987  85.1495006 159.9365017
  11.8319987  85.1495006 159.9365017  10.6349987  86.0765006 159.9365017
  10.9349987  83.6825006 156.9455017  11.8919987  83.6825006 156.9455017
  10.6949987  84.6095006 156.9455017  18.2569987  84.5525006   7.6815017
  19.2139987  84.5525006   7.6815017  18.0169987  85.4795006   7.6815017
  14.3099987  85.3645006   0.3065017  15.2669987  85.3645006   0.3065017
  14.0699987  86.2915006   0.3065017  14.2349987  83.5215006   9.4195017
  15.1919987  83.5215006   9.4195017  13.9949987  84.4485006   9.4195017
   5.9519987  86.0325006   2.2205017   6.9089987  86.0325006   2.2205017
   5.7119987  86.9595006   2.2205017   7.2599987  89.4175006   4.8995017
   8.2169987  89.4175006   4.8995017   7.0199987  90.3445006   4.8995017
   6.2839987  84.7655006   5.8725017   7.2409987  84.7655006   5.8725017
   6.0439987  85.6925006   5.8725017  12.6449987  90.3265006   6.5765017
  13.6019987  90.3265006   6.5765017  12.4049987  91.2535006   6.5765017
   7.2049987  89.1835006  10.5755017   8.1619987  89.1835006  10.5755017
   6.9649987  90.1105006  10.5755017  13.1769987  84.5465006 158.5265017
  14.1339987  84.5465006 158.5265017  12.9369987  85.4735006 158.5265017
   4.1249987  85.3555006   9.7655017   5.0819987  85.3555006   9.7655017
   3.8849987  86.2825006   9.7655017  10.8979987  91.2745006   1.4455017
  11.8549987  91.2745006   1.4455017  10.6579987  92.2015006   1.4455017
   5.4409987  91.2335006  11.3315017   6.3979987  91.2335006  11.3315017
   5.2009987  92.1605006  11.3315017  16.9029987  76.2815006 158.3955017
  17.8599987  76.2815006 158.3955017  16.6629987  77.2085006 158.3955017
   4.9259987  85.0575006 160.3795017   5.8829987  85.0575006 160.3795017
   4.6859987  85.9845006 160.3795017  18.0269987  90.6385006 156.7605017
  18.9839987  90.6385006 156.7605017  17.7869987  91.5655006 156.7605017
   1.1249987  87.4415006   8.6535017   2.0819987  87.4415006   8.6535017
   0.8849987  88.3685006   8.6535017   1.0109987  90.3375006   5.2295017
   1.9679987  90.3375006   5.2295017   0.7709987  91.2645006   5.2295017
  18.9889987  90.9035006  11.1935017  19.9459987  90.9035006  11.1935017
  18.7489987  91.8305006  11.1935017   9.9459987  90.4475006  10.0575017
  10.9029987  90.4475006  10.0575017   9.7059987  91.3745006  10.0575017
  10.3799987  94.1965006 160.4045017  11.3369987  94.1965006 160.4045017
  10.1399987  95.1235006 160.4045017   4.0209987  93.0555006   1.6525017
   4.9779987  93.0555006   1.6525017   3.7809987  93.9825006   1.6525017
  13.4449987  93.4015006 157.3875017  14.4019987  93.4015006 157.3875017
  13.2049987  94.3285006 157.3875017  13.1339987  93.3285006 160.1515017
  14.0909987  93.3285006 160.1515017  12.8939987  94.2555006 160.1515017
  16.1289987  82.3775006  11.6745017  17.0859987  82.3775006  11.6745017
  15.8889987  83.3045006  11.6745017   3.2619987  88.8125006   9.6835017
   4.2189987  88.8125006   9.6835017   3.0219987  89.7395006   9.6835017
   5.9369987  77.2535006   5.6235017   6.8939987  77.2535006   5.6235017
   5.6969987  78.1805006   5.6235017  10.5819987  76.9345006   8.9985017
  11.5389987  76.9345006   8.9985017  10.3419987  77.8615006   8.9985017
  13.8849987  80.7515006   9.8865017  14.8419987  80.7515006   9.8865017
  13.6449987  81.6785006   9.8865017  14.6309987  85.5835006 156.2765017
  15.5879987  85.5835006 156.2765017  14.3909987  86.5105006 156.2765017
  10.2349987  79.4935006 156.8385017  11.1919987  79.4935006 156.8385017
   9.9949987  80.4205006 156.8385017   6.0449987  82.2155006   6.8455017
   7.0019987  82.2155006   6.8455017   5.8049987  83.1425006   6.8455017
   5.9849987  82.3725006   1.7245017   6.9419987  82.3725006   1.7245017
   5.7449987  83.2995006   1.7245017  11.5249987  82.8435006   0.5145017
  12.4819987  82.8435006   0.5145017  11.2849987  83.7705006   0.5145017
  10.5989987  83.0495006  11.9545017  11.5559987  83.0495006  11.9545017
  10.3589987  83.9765006  11.9545017  12.5539987  82.3235006   3.3445017
  13.5109987  82.3235006   3.3445017  12.3139987  83.2505006   3.3445017
   3.7039987  82.4905006   8.5845017   4.6609987  82.4905006   8.5845017
   3.4639987  83.4175006   8.5845017   7.0789987  79.8805006 155.9485017
   8.0359987  79.8805006 155.9485017   6.8389987  80.8075006 155.9485017
   0.4279987  78.9135006   2.8565017   1.3849987  78.9135006   2.8565017
   0.1879987  79.8405006   2.8565017   1.8009987  80.3225006 158.5375017
   2.7579987  80.3225006 158.5375017   1.5609987  81.2495006 158.5375017
  11.7689987  83.9275006   7.9305017  12.7259987  83.9275006   7.9305017
  11.5289987  84.8545006   7.9305017   8.5619987  79.8845006   2.7455017
   9.5189987  79.8845006   2.7455017   8.3219987  80.8115006   2.7455017
   3.3929987  81.4365006   1.5965017   4.3499987  81.4365006   1.5965017
   3.1529987  82.3635006   1.5965017   7.0239987  81.4855006 159.7745017
   7.9809987  81.4855006 159.7745017   6.7839987  82.4125006 159.7745017
  12.9729987  79.1205006   5.9935017  13.9299987  79.1205006   5.9935017
  12.7329987  80.0475006   5.9935017   5.7079987  82.6785006 157.3625017
   6.6649987  82.6785006 157.3625017   5.4679987  83.6055006 157.3625017
  16.1869987  94.7715006  12.3095017  17.1439987  94.7715006  12.3095017
  15.9469987  95.6985006  12.3095017   3.8569987  87.2175006  11.8935017
   4.8139987  87.2175006  11.8935017   3.6169987  88.1445006  11.8935017
   9.8569987  82.6505006   4.6405017  10.8139987  82.6505006   4.6405017
   9.6169987  83.5775006   4.6405017   4.8559987  78.8025006   1.0575017
   5.8129987  78.8025006   1.0575017   4.6159987  79.7295006   1.0575017
   8.4939987  80.9895006   7.0525017   9.4509987  80.9895006   7.0525017
   8.2539987  81.9165006   7.0525017   9.0809987  87.2155006 159.2865017
  10.0379987  87.2155006 159.2865017   8.8409987  88.1425006 159.2865017
  16.2409987  86.3885006   7.5545017  17.1979987  86.3885006   7.5545017
  16.0009987  87.3155006   7.5545017  12.9189987  80.0275006 157.4685017
  13.8759987  80.0275006 157.4685017  12.6789987  80.9545006 157.4685017
  10.5669987  87.4535006   9.9875017  11.5239987  87.4535006   9.9875017
  10.3269987  88.3805006   9.9875017  13.6479987  81.9295006 159.1125017
  14.6049987  81.9295006 159.1125017  13.4079987  82.8565006 159.1125017
   4.1839987  86.5885006   4.5455017   5.1409987  86.5885006   4.5455017
   3.9439987  87.5155006   4.5455017  11.1859987  88.6805006 158.3195017
  12.1429987  88.6805006 158.3195017  10.9459987  89.6075006 158.3195017
   1.1629987  85.0065006   9.8245017   2.1199987  85.0065006   9.8245017
   0.9229987  85.9335006   9.8245017   8.1889987  84.5585006  12.0075017
   9.1459987  84.5585006  12.0075017   7.9489987  85.4855006  12.0075017
  12.8599987  89.8895006   9.9295017  13.8169987  89.8895006   9.9295017
  12.6199987  90.8165006   9.9295017  18.5519987  82.0805006 158.8655017
  19.5089987  82.0805006 158.8655017  18.3119987  83.0075006 158.8655017
  18.5279987  87.9425006  11.1475017  19.4849987  87.9425006  11.1475017
  18.2879987  88.8695006  11.1475017  16.8219987  90.9115006 159.2805017
  17.7789987  90.9115006 159.2805017  16.5819987  91.8385006 159.2805017
  14.0339987  85.7255006   5.8255017  14.9909987  85.7255006   5.8255017
  13.7939987  86.6525006   5.8255017   6.5689987  90.0425006   1.9295017
   7.5259987  90.0425006   1.9295017   6.3289987  90.9695006   1.9295017
   2.2869987  84.8875006 157.0705017   3.2439987  84.8875006 157.0705017
   2.0469987  85.8145006 157.0705017   7.9829987  87.7135006   1.4555017
   8.9399987  87.7135006   1.4555017   7.7429987  88.6405006   1.4555017
   8.4319987  91.8935006   7.8465017   9.3889987  91.8935006   7.8465017
   8.1919987  92.8205006   7.8465017   6.6629987  92.7135006   0.9925017
   7.6199987  92.7135006   0.9925017   6.4229987  93.6405006   0.9925017
  11.9769987  87.9215006   7.4885017  12.9339987  87.9215006   7.4885017
  11.7369987  88.8485006   7.4885017  14.2719987  88.9565006 157.1125017
  15.2289987  88.9565006 157.1125017  14.0319987  89.8835006 157.1125017
  14.7449987  92.4915006   9.9825017  15.7019987  92.4915006   9.9825017
  14.5049987  93.4185006   9.9825017  18.7469987  93.3345006 157.3545017
  19.7039987  93.3345006 157.3545017  18.5069987  94.2615006 157.3545017
   2.8079987  79.7395006   9.3705017   3.7649987  79.7395006   9.3705017
   2.5679987  80.6665006   9.3705017  15.0689987  87.6005006 159.3505017
  16.0259987  87.6005006 159.3505017  14.8289987  88.5275006 159.3505017
   2.4749987  91.5415006   7.7775017   3.4319987  91.5415006   7.7775017
   2.2349987  92.4685006   7.7775017   8.3909987  90.0415006 155.5915017
   9.3479987  90.0415006 155.5915017   8.1509987  90.9685006 155.5915017
   7.2229987  89.5735006 158.0455017   8.1799987  89.5735006 158.0455017
   6.9829987  90.5005006 158.0455017   3.6919987  86.8005006 158.5275017
   4.6489987  86.8005006 158.5275017   3.4519987  87.7275006 158.5275017
  11.5529987  79.5075006   8.3025017  12.5099987  79.5075006   8.3025017
  11.3129987  80.4345006   8.3025017  12.3139987  79.0905006 159.9365017
  13.2709987  79.0905006 159.9365017  12.0739987  80.0175006 159.9365017
   9.9969987  91.2435006 158.7665017  10.9539987  91.2435006 158.7665017
   9.7569987  92.1705006 158.7665017   9.5309987  80.8455006   0.2195017
  10.4879987  80.8455006   0.2195017   9.2909987  81.7725006   0.2195017
  10.0819987  81.8555006   9.4075017  11.0389987  81.8555006   9.4075017
   9.8419987  82.7825006   9.4075017  10.3919987  77.9035006   1.1255017
  11.3489987  77.9035006   1.1255017  10.1519987  78.8305006   1.1255017
   7.3789987  92.2795006 158.7765017   8.3359987  92.2795006 158.7765017
   7.1389987  93.2065006 158.7765017   6.0499987  78.9965006 158.3655017
   7.0069987  78.9965006 158.3655017   5.8099987  79.9235006 158.3655017
  16.2759987  79.7325006  10.2565017  17.2329987  79.7325006  10.2565017
  16.0359987  80.6595006  10.2565017  14.8759987  83.5165006   4.2855017
  15.8329987  83.5165006   4.2855017  14.6359987  84.4435006   4.2855017
   4.2909987  89.4425006 157.4115017   5.2479987  89.4425006 157.4115017
   4.0509987  90.3695006 157.4115017   2.5779987  82.1175006 156.6015017
   3.5349987  82.1175006 156.6015017   2.3379987  83.0445006 156.6015017
  15.9429987  92.7645006   5.9485017  16.8999987  92.7645006   5.9485017
  15.7029987  93.6915006   5.9485017   3.4639987  76.8945006   4.7165017
   4.4209987  76.8945006   4.7165017   3.2239987  77.8215006   4.7165017
   2.3859987  90.8255006   0.8905017   3.3429987  90.8255006   0.8905017
   2.1459987  91.7525006   0.8905017   1.7149987  93.4105006  12.1115017
   2.6719987  93.4105006  12.1115017   1.4749987  94.3375006  12.1115017
   6.2699987  92.3725006  13.7925017   7.2269987  92.3725006  13.7925017
   6.0299987  93.2995006  13.7925017  10.3969987  91.8965006 155.7255017
  11.3539987  91.8965006 155.7255017  10.1569987  92.8235006 155.7255017
  12.8019987  90.7625006  12.5265017  13.7589987  90.7625006  12.5265017
  12.5619987  91.6895006  12.5265017  14.9679987  91.6545006 155.9245017
  15.9249987  91.6545006 155.9245017  14.7279987  92.5815006 155.9245017
   1.5089987  87.2505006  13.1665017   2.4659987  87.2505006  13.1665017
   1.2689987  88.1775006  13.1665017   5.8659987  87.5885006 155.7575017
   6.8229987  87.5885006 155.7575017   5.6259987  88.5155006 155.7575017
   8.2309987  87.2265006  12.5615017   9.1879987  87.2265006  12.5615017
   7.9909987  88.1535006  12.5615017  11.2829987  88.6815006 155.5185017
  12.2399987  88.6815006 155.5185017  11.0429987  89.6085006 155.5185017
  13.9349987  87.0965006   9.9485017  14.8919987  87.0965006   9.9485017
  13.6949987  88.0235006   9.9485017   2.3629987  84.4455006  12.5445017
   3.3199987  84.4455006  12.5445017   2.1229987  85.3725006  12.5445017
   7.0609987  85.5965006 158.1435017   8.0179987  85.5965006 158.1435017
   6.8209987  86.5235006 158.1435017   6.3379987  83.4225006   9.9175017
   7.2949987  83.4225006   9.9175017   6.0979987  84.3495006   9.9175017
   8.1329987  83.8175006 156.3665017   9.0899987  83.8175006 156.3665017
   7.8929987  84.7445006 156.3665017  11.3939987  85.9675006  13.2325017
  12.3509987  85.9675006  13.2325017  11.1539987  86.8945006  13.2325017
  17.4909987  86.1475006 155.7955017  18.4479987  86.1475006 155.7955017
  17.2509987  87.0745006 155.7955017   6.7329987  80.7965006  10.9855017
   7.6899987  80.7965006  10.9855017   6.4929987  81.7235006  10.9855017
   7.1309987  79.1745006   8.5175017   8.0879987  79.1745006   8.5175017
   6.8909987  80.1015006   8.5175017   8.6809987  84.6425006   8.7645017
   9.6379987  84.6425006   8.7645017   8.4409987  85.5695006   8.7645017
  13.0799987  82.4215006  13.7405017  14.0369987  82.4215006  13.7405017
  12.8399987  83.3485006  13.7405017  14.4069987  85.2015006  11.8755017
  15.3639987  85.2015006  11.8755017  14.1669987  86.1285006  11.8755017
   5.1809987  82.0455006  12.8945017   6.1379987  82.0455006  12.8945017
   4.9409987  82.9725006  12.8945017   7.9129987  76.6185006   8.9295017
   8.8699987  76.6185006   8.9295017   7.6729987  77.5455006   8.9295017
   9.1959987  80.9435006  12.5265017  10.1529987  80.9435006  12.5265017
   8.9559987  81.8705006  12.5265017  11.9139987  80.0775006  11.5995017
  12.8709987  80.0775006  11.5995017  11.6739987  81.0045006  11.5995017
  13.5099987  78.7075006  13.5395017  14.4669987  78.7075006  13.5395017
  13.2699987  79.6345006  13.5395017   3.3269987  79.9705006  12.6415017
   4.2839987  79.9705006  12.6415017   3.0869987  80.8975006  12.6415017
   8.1359987  75.9805006  11.6155017   9.0929987  75.9805006  11.6155017
   7.8959987  76.9075006  11.6155017   8.5029987  77.6135006  13.7045017
   9.4599987  77.6135006  13.7045017   8.2629987  78.5405006  13.7045017
   7.9809987  94.5145006 157.4275017   8.9379987  94.5145006 157.4275017
   7.7409987  95.4415006 157.4275017   1.5939987  89.1275006 156.8815017
   2.5509987  89.1275006 156.8815017   1.3539987  90.0545006 156.8815017
 108.0939987  94.5515006   1.3585017 109.0509987  94.5515006   1.3585017
 107.8539987  95.4785006   1.3585017   1.5079987  92.7655006   3.3075017
   2.4649987  92.7655006   3.3075017   1.2679987  93.6925006   3.3075017
  18.6619987  93.4145006   6.1485017  19.6189987  93.4145006   6.1485017
  18.4219987  94.3415006   6.1485017  18.2429987  93.0055006   9.0825017
  19.1999987  93.0055006   9.0825017  18.0029987  93.9325006   9.0825017
  16.6829987  88.7435006  13.7475017  17.6399987  88.7435006  13.7475017
  16.4429987  89.6705006  13.7475017  17.9849987  87.0705006 159.7705017
  18.9419987  87.0705006 159.7705017  17.7449987  87.9975006 159.7705017
  18.3509987  85.1485006   1.0845017  19.3079987  85.1485006   1.0845017
  18.1109987  86.0755006   1.0845017  18.1139987  87.8445006   6.0235017
  19.0709987  87.8445006   6.0235017  17.8739987  88.7715006   6.0235017
  16.6659987  90.7385006   8.3345017  17.6229987  90.7385006   8.3345017
  16.4259987  91.6655006   8.3345017  18.6649987  84.9685006 158.0205017
  19.6219987  84.9685006 158.0205017  18.4249987  85.8955006 158.0205017
  17.0319987  82.2025006 156.5375017  17.9889987  82.2025006 156.5375017
  16.7919987  83.1295006 156.5375017  16.2039987  83.6165006   1.6455017
  17.1609987  83.6165006   1.6455017  15.9639987  84.5435006   1.6455017
   1.1829987  85.6825006   5.6975017   2.1399987  85.6825006   5.6975017
   0.9429987  86.6095006   5.6975017  17.0289987  85.5795006  11.3135017
  17.9859987  85.5795006  11.3135017  16.7889987  86.5065006  11.3135017
  18.5369987  83.4725006  11.9785017  19.4939987  83.4725006  11.9785017
  18.2969987  84.3995006  11.9785017  16.2689987  79.6575006 155.6645017
  17.2259987  79.6575006 155.6645017  16.0289987  80.5845006 155.6645017
  15.8369987  81.1955006 160.6155017  16.7939987  81.1955006 160.6155017
  15.5969987  82.1225006 160.6155017  16.4809987  81.7395006   5.5385017
  17.4379987  81.7395006   5.5385017  16.2409987  82.6665006   5.5385017
  16.5489987  82.4665006   8.3275017  17.5059987  82.4665006   8.3275017
  16.3089987  83.3935006   8.3275017   0.8809987  80.9545006  11.7565017
   1.8379987  80.9545006  11.7565017   0.6409987  81.8815006  11.7565017
  18.8129987  76.5085006  13.6745017  19.7699987  76.5085006  13.6745017
  18.5729987  77.4355006  13.6745017  16.5109987  78.4775006   0.1465017
  17.4679987  78.4775006   0.1465017  16.2709987  79.4045006   0.1465017
   2.0859987  79.3125006   4.6875017   3.0429987  79.3125006   4.6875017
   1.8459987  80.2395006   4.6875017   0.8909987  82.2445006   5.9005017
   1.8479987  82.2445006   5.9005017   0.6509987  83.1715006   5.9005017
  18.3429987  78.6145006  12.0265017  19.2999987  78.6145006  12.0265017
  18.1029987  79.5415006  12.0265017  18.3389987  78.5165006 157.2425017
  19.2959987  78.5165006 157.2425017  18.0989987  79.4435006 157.2425017
   0.8919987  78.4895006 160.3745017   1.8489987  78.4895006 160.3745017
   0.6519987  79.4165006 160.3745017  15.3889987  93.4995006   1.7645017
  16.3459987  93.4995006   1.7645017  15.1489987  94.4265006   1.7645017
 108.3289987  77.2025006   8.1475017 109.2859987  77.2025006   8.1475017
 108.0889987  78.1295006   8.1475017   2.8149987  90.4315006  12.2965017
   3.7719987  90.4315006  12.2965017   2.5749987  91.3585006  12.2965017
   5.7349987  91.4035006   8.5555017   6.6919987  91.4035006   8.5555017
   5.4949987  92.3305006   8.5555017  10.0569987  92.8275006  11.4695017
  11.0139987  92.8275006  11.4695017   9.8169987  93.7545006  11.4695017
  12.3549987  94.0975006  10.7585017  13.3119987  94.0975006  10.7585017
  12.1149987  95.0245006  10.7585017  17.3559987  76.7105006   9.8625017
  18.3129987  76.7105006   9.8625017  17.1159987  77.6375006   9.8625017
   3.1509987  94.6575006   8.5865017   4.1079987  94.6575006   8.5865017
   2.9109987  95.5845006   8.5865017   5.6469987  94.2415006   7.6295017
   6.6039987  94.2415006   7.6295017   5.4069987  95.1685006   7.6295017
  10.3349987  94.1395006   6.7935017  11.2919987  94.1395006   6.7935017
  10.0949987  95.0665006   6.7935017  12.6419987  92.9705006   7.7915017
  13.5989987  92.9705006   7.7915017  12.4019987  93.8975006   7.7915017
  15.2239987  94.5385006   8.0505017  16.1809987  94.5385006   8.0505017
  14.9839987  95.4655006   8.0505017   2.6369987  93.3175006   5.5495017
   3.5939987  93.3175006   5.5495017   2.3969987  94.2445006   5.5495017
   4.6819987  92.0075006   4.1455017   5.6389987  92.0075006   4.1455017
   4.4419987  92.9345006   4.1455017   7.2689987  92.4865006   5.0175017
   8.2259987  92.4865006   5.0175017   7.0289987  93.4135006   5.0175017
  10.7539987  78.1395006   4.1645017  11.7109987  78.1395006   4.1645017
  10.5139987  79.0665006   4.1645017  15.8889987  76.2025006   4.2445017
  16.8459987  76.2025006   4.2445017  15.6489987  77.1295006   4.2445017
  17.5669987  77.4215006   2.5305017  18.5239987  77.4215006   2.5305017
  17.3269987  78.3485006   2.5305017   3.1309987  76.7695006   1.9565017
   4.0879987  76.7695006   1.9565017   2.8909987  77.6965006   1.9565017
   1.9419987  76.5255006 158.3415017   2.8989987  76.5255006 158.3415017
   1.7019987  77.4525006 158.3415017   7.6149987  76.6925006   1.7895017
   8.5719987  76.6925006   1.7895017   7.3749987  77.6195006   1.7895017
  13.2819987  76.7175006   3.4295017  14.2389987  76.7175006   3.4295017
  13.0419987  77.6445006   3.4295017  14.5799987  76.7485006 159.6535017
  15.5369987  76.7485006 159.6535017  14.3399987  77.6755006 159.6535017
   1.9209987  92.4945006 159.2685017   2.8779987  92.4945006 159.2685017
   1.6809987  93.4215006 159.2685017   3.7349987  78.4795006 156.7765017
   4.6919987  78.4795006 156.7765017   3.4949987  79.4065006 156.7765017
   8.7609987  78.7265006 159.1905017   9.7179987  78.7265006 159.1905017
   8.5209987  79.6535006 159.1905017  10.6769987  93.7615006 157.6375017
  11.6339987  93.7615006 157.6375017  10.4369987  94.6885006 157.6375017
  17.3909987  93.2875006 160.3395017  18.3479987  93.2875006 160.3395017
  17.1509987  94.2145006 160.3395017   2.9949987  77.3065006  11.4575017
   3.9519987  77.3065006  11.4575017   2.7549987  78.2335006  11.4575017
   5.0119987  76.6865006  13.0745017   5.9689987  76.6865006  13.0745017
   4.7719987  77.6135006  13.0745017   3.5879987  93.4285006 156.2245017
   4.5449987  93.4285006 156.2245017   3.3479987  94.3555006 156.2245017
  13.4189987  75.9865006  13.2405017  14.3759987  75.9865006  13.2405017
  13.1789987  76.9135006  13.2405017  16.6249987  92.0245006  11.8935017
  17.5819987  92.0245006  11.8935017  16.3849987  92.9515006  11.8935017
  31.0559987  85.9055006   1.8845017  32.0129987  85.9055006   1.8845017
  30.8159987  86.8325006   1.8845017  29.9269987  85.1725006   5.3695017
  30.8839987  85.1725006   5.3695017  29.6869987  86.0995006   5.3695017
  22.2769987  84.8335006   6.9095017  23.2339987  84.8335006   6.9095017
  22.0369987  85.7605006   6.9095017  33.6269987  88.1115006   3.6465017
  34.5839987  88.1115006   3.6465017  33.3869987  89.0385006   3.6465017
  23.2079987  89.2755006   5.4265017  24.1649987  89.2755006   5.4265017
  22.9679987  90.2025006   5.4265017  19.8439987  82.8645006   0.9045017
  20.8009987  82.8645006   0.9045017  19.6039987  83.7915006   0.9045017
  20.6129987  84.9235006   3.1045017  21.5699987  84.9235006   3.1045017
  20.3729987  85.8505006   3.1045017  30.7459987  93.2665006   3.8905017
  31.7029987  93.2665006   3.8905017  30.5059987  94.1935006   3.8905017
  28.3049987  87.5795006   5.8115017  29.2619987  87.5795006   5.8115017
  28.0649987  88.5065006   5.8115017  36.9029987  79.1995006   6.5555017
  37.8599987  79.1995006   6.5555017  36.6629987  80.1265006   6.5555017
  31.4699987  82.0315006   6.1365017  32.4269987  82.0315006   6.1365017
  31.2299987  82.9585006   6.1365017  24.5889987  80.1215006   3.3705017
  25.5459987  80.1215006   3.3705017  24.3489987  81.0485006   3.3705017
  32.3329987  80.1915006   1.7315017  33.2899987  80.1915006   1.7315017
  32.0929987  81.1185006   1.7315017  21.2219987  82.5235006   4.1085017
  22.1789987  82.5235006   4.1085017  20.9819987  83.4505006   4.1085017
  26.3779987  84.0835006   3.3955017  27.3349987  84.0835006   3.3955017
  26.1379987  85.0105006   3.3955017  37.4149987  80.5835006   8.6335017
  38.3719987  80.5835006   8.6335017  37.1749987  81.5105006   8.6335017
  23.4789987  79.0165006   7.4155017  24.4359987  79.0165006   7.4155017
  23.2389987  79.9435006   7.4155017  30.7929987  88.5075006   0.9585017
  31.7499987  88.5075006   0.9585017  30.5529987  89.4345006   0.9585017
  26.0089987  86.6655006   7.6685017  26.9659987  86.6655006   7.6685017
  25.7689987  87.5925006   7.6685017  34.1269987  79.5475006   3.7245017
  35.0839987  79.5475006   3.7245017  33.8869987  80.4745006   3.7245017
  23.0389987  80.8875006   5.4225017  23.9959987  80.8875006   5.4225017
  22.7989987  81.8145006   5.4225017  24.4479987  88.6565006   8.4805017
  25.4049987  88.6565006   8.4805017  24.2079987  89.5835006   8.4805017
  20.5009987  88.2845006 159.8575017  21.4579987  88.2845006 159.8575017
  20.2609987  89.2115006 159.8575017  34.1509987  89.9535006   6.0365017
  35.1079987  89.9535006   6.0365017  33.9109987  90.8805006   6.0365017
  34.4759987  78.2605006   7.4635017  35.4329987  78.2605006   7.4635017
  34.2359987  79.1875006   7.4635017  27.4469987  76.3485006   4.8735017
  28.4039987  76.3485006   4.8735017  27.2069987  77.2755006   4.8735017
  32.3909987  91.7255006   2.6205017  33.3479987  91.7255006   2.6205017
  32.1509987  92.6525006   2.6205017  33.6029987  89.6535006   1.1275017
  34.5599987  89.6535006   1.1275017  33.3629987  90.5805006   1.1275017
  35.2419987  88.2365006   9.6205017  36.1989987  88.2365006   9.6205017
  35.0019987  89.1635006   9.6205017  29.7229987  85.1445006 159.9355017
  30.6799987  85.1445006 159.9355017  29.4829987  86.0715006 159.9355017
  29.7919987  83.6835006 156.9455017  30.7489987  83.6835006 156.9455017
  29.5519987  84.6105006 156.9455017  37.1119987  84.5405006   7.6815017
  38.0689987  84.5405006   7.6815017  36.8719987  85.4675006   7.6815017
  33.1679987  85.3635006   0.3075017  34.1249987  85.3635006   0.3075017
  32.9279987  86.2905006   0.3075017  33.1069987  83.5215006   9.4195017
  34.0639987  83.5215006   9.4195017  32.8669987  84.4485006   9.4195017
  24.7739987  86.0215006   2.2265017  25.7309987  86.0215006   2.2265017
  24.5339987  86.9485006   2.2265017  26.1169987  89.4195006   4.9025017
  27.0739987  89.4195006   4.9025017  25.8769987  90.3465006   4.9025017
  25.1199987  84.7605006   5.8675017  26.0769987  84.7605006   5.8675017
  24.8799987  85.6875006   5.8675017  31.5199987  90.3185006   6.5875017
  32.4769987  90.3185006   6.5875017  31.2799987  91.2455006   6.5875017
  26.0619987  89.1845006  10.5755017  27.0189987  89.1845006  10.5755017
  25.8219987  90.1115006  10.5755017  32.0329987  84.5475006 158.5265017
  32.9899987  84.5475006 158.5265017  31.7929987  85.4745006 158.5265017
  22.9969987  85.3545006   9.7535017  23.9539987  85.3545006   9.7535017
  22.7569987  86.2815006   9.7535017  29.7529987  91.2735006   1.4455017
  30.7099987  91.2735006   1.4455017  29.5129987  92.2005006   1.4455017
  24.3019987  91.2355006  11.3295017  25.2589987  91.2355006  11.3295017
  24.0619987  92.1625006  11.3295017  35.7329987  76.3275006 158.4005017
  36.6899987  76.3275006 158.4005017  35.4929987  77.2545006 158.4005017
  23.7339987  85.0625006 160.4115017  24.6909987  85.0625006 160.4115017
  23.4939987  85.9895006 160.4115017  36.8829987  90.6175006 156.7615017
  37.8399987  90.6175006 156.7615017  36.6429987  91.5445006 156.7615017
  19.8519987  87.4635006   8.7085017  20.8089987  87.4635006   8.7085017
  19.6119987  88.3905006   8.7085017  19.6149987  90.1935006   5.4915017
  20.5719987  90.1935006   5.4915017  19.3749987  91.1205006   5.4915017
  37.8499987  90.9015006  11.1915017  38.8069987  90.9015006  11.1915017
  37.6099987  91.8285006  11.1915017  28.8169987  90.4615006  10.0515017
  29.7739987  90.4615006  10.0515017  28.5769987  91.3885006  10.0515017
  29.2349987  94.1965006 160.4055017  30.1919987  94.1965006 160.4055017
  28.9949987  95.1235006 160.4055017  22.8769987  93.0605006   1.6685017
  23.8339987  93.0605006   1.6685017  22.6369987  93.9875006   1.6685017
  32.2689987  93.3905006 157.3855017  33.2259987  93.3905006 157.3855017
  32.0289987  94.3175006 157.3855017  31.9769987  93.3275006 160.1495017
  32.9339987  93.3275006 160.1495017  31.7369987  94.2545006 160.1495017
  34.8469987  82.4165006  11.7295017  35.8039987  82.4165006  11.7295017
  34.6069987  83.3435006  11.7295017  22.1189987  88.7815006   9.6685017
  23.0759987  88.7815006   9.6685017  21.8789987  89.7085006   9.6685017
  24.7939987  77.2435006   5.6345017  25.7509987  77.2435006   5.6345017
  24.5539987  78.1705006   5.6345017  29.4339987  76.9445006   9.0025017
  30.3909987  76.9445006   9.0025017  29.1939987  77.8715006   9.0025017
  32.7759987  80.7685006   9.9055017  33.7329987  80.7685006   9.9055017
  32.5359987  81.6955006   9.9055017  33.4919987  85.5745006 156.2815017
  34.4489987  85.5745006 156.2815017  33.2519987  86.5015006 156.2815017
  29.0909987  79.4935006 156.8385017  30.0479987  79.4935006 156.8385017
  28.8509987  80.4205006 156.8385017  24.8939987  82.2135006   6.8425017
  25.8509987  82.2135006   6.8425017  24.6539987  83.1405006   6.8425017
  24.8589987  82.3725006   1.7225017  25.8159987  82.3725006   1.7225017
  24.6189987  83.2995006   1.7225017  30.3799987  82.8415006   0.5135017
  31.3369987  82.8415006   0.5135017  30.1399987  83.7685006   0.5135017
  29.4549987  83.0485006  11.9545017  30.4119987  83.0485006  11.9545017
  29.2149987  83.9755006  11.9545017  31.4099987  82.3225006   3.3435017
  32.3669987  82.3225006   3.3435017  31.1699987  83.2495006   3.3435017
  22.5429987  82.4985006   8.5745017  23.4999987  82.4985006   8.5745017
  22.3029987  83.4255006   8.5745017  25.9229987  79.8825006 155.9555017
  26.8799987  79.8825006 155.9555017  25.6829987  80.8095006 155.9555017
  19.1839987  79.6105006   2.5215017  20.1409987  79.6105006   2.5215017
  18.9439987  80.5375006   2.5215017  20.4589987  80.3225006 158.4375017
  21.4159987  80.3225006 158.4375017  20.2189987  81.2495006 158.4375017
  30.6269987  83.9265006   7.9305017  31.5839987  83.9265006   7.9305017
  30.3869987  84.8535006   7.9305017  27.4169987  79.8835006   2.7455017
  28.3739987  79.8835006   2.7455017  27.1769987  80.8105006   2.7455017
  22.2349987  81.4695006   1.6055017  23.1919987  81.4695006   1.6055017
  21.9949987  82.3965006   1.6055017  25.8839987  81.4835006 159.7765017
  26.8409987  81.4835006 159.7765017  25.6439987  82.4105006 159.7765017
  31.8399987  79.1105006   5.9955017  32.7969987  79.1105006   5.9955017
  31.5999987  80.0375006   5.9955017  24.5749987  82.6735006 157.3705017
  25.5319987  82.6735006 157.3705017  24.3349987  83.6005006 157.3705017
  35.0309987  94.7685006  12.2875017  35.9879987  94.7685006  12.2875017
  34.7909987  95.6955006  12.2875017  22.7129987  87.2365006  11.8805017
  23.6699987  87.2365006  11.8805017  22.4729987  88.1635006  11.8805017
  28.7109987  82.6495006   4.6405017  29.6679987  82.6495006   4.6405017
  28.4709987  83.5765006   4.6405017  23.7209987  78.7965006   1.0745017
  24.6779987  78.7965006   1.0745017  23.4809987  79.7235006   1.0745017
  27.3499987  80.9865006   7.0525017  28.3069987  80.9865006   7.0525017
  27.1099987  81.9135006   7.0525017  27.9339987  87.2165006 159.2865017
  28.8909987  87.2165006 159.2865017  27.6939987  88.1435006 159.2865017
  35.1069987  86.3725006   7.5535017  36.0639987  86.3725006   7.5535017
  34.8669987  87.2995006   7.5535017  31.7749987  80.0275006 157.4695017
  32.7319987  80.0275006 157.4695017  31.5349987  80.9545006 157.4695017
  29.4259987  87.4565006   9.9865017  30.3829987  87.4565006   9.9865017
  29.1859987  88.3835006   9.9865017  32.5039987  81.9295006 159.1125017
  33.4609987  81.9295006 159.1125017  32.2639987  82.8565006 159.1125017
  22.9989987  86.5615006   4.4975017  23.9559987  86.5615006   4.4975017
  22.7589987  87.4885006   4.4975017  30.0419987  88.6795006 158.3195017
  30.9989987  88.6795006 158.3195017  29.8019987  89.6065006 158.3195017
  20.0319987  85.0055006   9.8155017  20.9889987  85.0055006   9.8155017
  19.7919987  85.9325006   9.8155017  27.0449987  84.5575006  12.0085017
  28.0019987  84.5575006  12.0085017  26.8049987  85.4845006  12.0085017
  31.7199987  89.9485006   9.9155017  32.6769987  89.9485006   9.9155017
  31.4799987  90.8755006   9.9155017  37.4019987  82.0925006 158.8705017
  38.3589987  82.0925006 158.8705017  37.1619987  83.0195006 158.8705017
  37.3899987  87.9235006  11.1485017  38.3469987  87.9235006  11.1485017
  37.1499987  88.8505006  11.1485017  35.6759987  90.8595006 159.2525017
  36.6329987  90.8595006 159.2525017  35.4359987  91.7865006 159.2525017
  32.8889987  85.7255006   5.8245017  33.8459987  85.7255006   5.8245017
  32.6489987  86.6525006   5.8245017  25.4179987  90.0505006   1.9295017
  26.3749987  90.0505006   1.9295017  25.1779987  90.9775006   1.9295017
  21.1769987  84.8905006 157.0455017  22.1339987  84.8905006 157.0455017
  20.9369987  85.8175006 157.0455017  26.8369987  87.7125006   1.4565017
  27.7939987  87.7125006   1.4565017  26.5969987  88.6395006   1.4565017
  27.2929987  91.8925006   7.8415017  28.2499987  91.8925006   7.8415017
  27.0529987  92.8195006   7.8415017  25.5159987  92.7155006   0.9985017
  26.4729987  92.7155006   0.9985017  25.2759987  93.6425006   0.9985017
  30.8379987  87.9295006   7.4915017  31.7949987  87.9295006   7.4915017
  30.5979987  88.8565006   7.4915017  33.1239987  88.9475006 157.1045017
  34.0809987  88.9475006 157.1045017  32.8839987  89.8745006 157.1045017
  33.7179987  92.2055006  10.0695017  34.6749987  92.2055006  10.0695017
  33.4779987  93.1325006  10.0695017  37.5679987  93.2505006 156.9235017
  38.5249987  93.2505006 156.9235017  37.3279987  94.1775006 156.9235017
  21.6829987  79.7415006   9.3645017  22.6399987  79.7415006   9.3645017
  21.4429987  80.6685006   9.3645017  33.9219987  87.5835006 159.3375017
  34.8789987  87.5835006 159.3375017  33.6819987  88.5105006 159.3375017
  21.3049987  91.5355006   7.7945017  22.2619987  91.5355006   7.7945017
  21.0649987  92.4625006   7.7945017  27.2469987  90.0415006 155.5915017
  28.2039987  90.0415006 155.5915017  27.0069987  90.9685006 155.5915017
  26.0659987  89.5725006 158.0475017  27.0229987  89.5725006 158.0475017
  25.8259987  90.4995006 158.0475017  22.5819987  86.8185006 158.5575017
  23.5389987  86.8185006 158.5575017  22.3419987  87.7455006 158.5575017
  30.4099987  79.5085006   8.3005017  31.3669987  79.5085006   8.3005017
  30.1699987  80.4355006   8.3005017  31.1939987  79.0695006 159.9435017
  32.1509987  79.0695006 159.9435017  30.9539987  79.9965006 159.9435017
  28.8529987  91.2435006 158.7665017  29.8099987  91.2435006 158.7665017
  28.6129987  92.1705006 158.7665017  28.3889987  80.8445006   0.2195017
  29.3459987  80.8445006   0.2195017  28.1489987  81.7715006   0.2195017
  28.9389987  81.8565006   9.4065017  29.8959987  81.8565006   9.4065017
  28.6989987  82.7835006   9.4065017  29.2619987  77.8995006   1.1345017
  30.2189987  77.8995006   1.1345017  29.0219987  78.8265006   1.1345017
  26.2309987  92.2785006 158.7755017  27.1879987  92.2785006 158.7755017
  25.9909987  93.2055006 158.7755017  24.9019987  78.9935006 158.3665017
  25.8589987  78.9935006 158.3665017  24.6619987  79.9205006 158.3665017
  35.1479987  79.7505006  10.2345017  36.1049987  79.7505006  10.2345017
  34.9079987  80.6775006  10.2345017  33.7329987  83.5165006   4.2865017
  34.6899987  83.5165006   4.2865017  33.4929987  84.4435006   4.2865017
  23.1409987  89.4355006 157.4195017  24.0979987  89.4355006 157.4195017
  22.9009987  90.3625006 157.4195017  21.4849987  82.1055006 156.5485017
  22.4419987  82.1055006 156.5485017  21.2449987  83.0325006 156.5485017
  34.7809987  92.7835006   5.9775017  35.7379987  92.7835006   5.9775017
  34.5409987  93.7105006   5.9775017  22.2989987  76.8955006   4.7305017
  23.2559987  76.8955006   4.7305017  22.0589987  77.8225006   4.7305017
  21.2329987  90.7865006   0.8685017  22.1899987  90.7865006   0.8685017
  20.9929987  91.7135006   0.8685017  20.4709987  93.4645006  12.1795017
  21.4279987  93.4645006  12.1795017  20.2309987  94.3915006  12.1795017
  25.1269987  92.3815006  13.7925017  26.0839987  92.3815006  13.7925017
  24.8869987  93.3085006  13.7925017  29.2519987  91.8965006 155.7255017
  30.2089987  91.8965006 155.7255017  29.0119987  92.8235006 155.7255017
  31.6649987  90.7655006  12.5185017  32.6219987  90.7655006  12.5185017
  31.4249987  91.6925006  12.5185017  33.8069987  91.6395006 155.9065017
  34.7639987  91.6395006 155.9065017  33.5669987  92.5665006 155.9065017
  20.3909987  87.2475006  13.1645017  21.3479987  87.2475006  13.1645017
  20.1509987  88.1745006  13.1645017  24.7219987  87.5885006 155.7575017
  25.6789987  87.5885006 155.7575017  24.4819987  88.5155006 155.7575017
  27.0869987  87.2255006  12.5625017  28.0439987  87.2255006  12.5625017
  26.8469987  88.1525006  12.5625017  30.1389987  88.6815006 155.5185017
  31.0959987  88.6815006 155.5185017  29.8989987  89.6085006 155.5185017
  32.7909987  87.1015006   9.9485017  33.7479987  87.1015006   9.9485017
  32.5509987  88.0285006   9.9485017  21.2829987  84.4665006  12.5515017
  22.2399987  84.4665006  12.5515017  21.0429987  85.3935006  12.5515017
  25.9189987  85.5955006 158.1455017  26.8759987  85.5955006 158.1455017
  25.6789987  86.5225006 158.1455017  25.1939987  83.4225006   9.9175017
  26.1509987  83.4225006   9.9175017  24.9539987  84.3495006   9.9175017
  26.9889987  83.8175006 156.3655017  27.9459987  83.8175006 156.3655017
  26.7489987  84.7445006 156.3655017  30.2509987  85.9655006  13.2315017
  31.2079987  85.9655006  13.2315017  30.0109987  86.8925006  13.2315017
  36.3459987  86.1485006 155.7945017  37.3029987  86.1485006 155.7945017
  36.1059987  87.0755006 155.7945017  25.5879987  80.7975006  10.9835017
  26.5449987  80.7975006  10.9835017  25.3479987  81.7245006  10.9835017
  25.9869987  79.1725006   8.5175017  26.9439987  79.1725006   8.5175017
  25.7469987  80.0995006   8.5175017  27.5369987  84.6425006   8.7655017
  28.4939987  84.6425006   8.7655017  27.2969987  85.5695006   8.7655017
  31.9399987  82.4235006  13.7215017  32.8969987  82.4235006  13.7215017
  31.6999987  83.3505006  13.7215017  33.2669987  85.2035006  11.8725017
  34.2239987  85.2035006  11.8725017  33.0269987  86.1305006  11.8725017
  24.0459987  82.0395006  12.8985017  25.0029987  82.0395006  12.8985017
  23.8059987  82.9665006  12.8985017  26.7759987  76.6015006   8.9355017
  27.7329987  76.6015006   8.9355017  26.5359987  77.5285006   8.9355017
  28.0559987  80.9335006  12.5185017  29.0129987  80.9335006  12.5185017
  27.8159987  81.8605006  12.5185017  30.7649987  80.0825006  11.5995017
  31.7219987  80.0825006  11.5995017  30.5249987  81.0095006  11.5995017
  32.3839987  78.7055006  13.5445017  33.3409987  78.7055006  13.5445017
  32.1439987  79.6325006  13.5445017  22.1419987  79.9645006  12.6325017
  23.0989987  79.9645006  12.6325017  21.9019987  80.8915006  12.6325017
  26.9939987  75.9685006  11.6145017  27.9509987  75.9685006  11.6145017
  26.7539987  76.8955006  11.6145017  27.3599987  77.6235006  13.7015017
  28.3169987  77.6235006  13.7015017  27.1199987  78.5505006  13.7015017
  26.8369987  94.5145006 157.4275017  27.7939987  94.5145006 157.4275017
  26.5969987  95.4415006 157.4275017  20.3999987  89.1155006 156.8975017
  21.3569987  89.1155006 156.8975017  20.1599987  90.0425006 156.8975017
  19.1549987  94.5015006   1.3415017  20.1119987  94.5015006   1.3415017
  18.9149987  95.4285006   1.3415017  19.9919987  92.6055006   3.1935017
  20.9489987  92.6055006   3.1935017  19.7519987  93.5325006   3.1935017
  37.5029987  93.4175006   6.1545017  38.4599987  93.4175006   6.1545017
  37.2629987  94.3445006   6.1545017  37.0619987  93.0045006   9.1125017
  38.0189987  93.0045006   9.1125017  36.8219987  93.9315006   9.1125017
  35.5419987  88.7375006  13.7505017  36.4989987  88.7375006  13.7505017
  35.3019987  89.6645006  13.7505017  36.8449987  87.0565006 159.7455017
  37.8019987  87.0565006 159.7455017  36.6049987  87.9835006 159.7455017
  37.2199987  85.1265006   1.0705017  38.1769987  85.1265006   1.0705017
  36.9799987  86.0535006   1.0705017  36.9759987  87.8445006   6.0565017
  37.9329987  87.8445006   6.0565017  36.7359987  88.7715006   6.0565017
  35.5099987  90.7715006   8.3265017  36.4669987  90.7715006   8.3265017
  35.2699987  91.6985006   8.3265017  37.5189987  84.9625006 158.0105017
  38.4759987  84.9625006 158.0105017  37.2789987  85.8895006 158.0105017
  35.8849987  82.2005006 156.5325017  36.8419987  82.2005006 156.5325017
  35.6449987  83.1275006 156.5325017  35.0329987  83.6125006   1.6345017
  35.9899987  83.6125006   1.6345017  34.7929987  84.5395006   1.6345017
  20.0419987  85.7275006   5.6765017  20.9989987  85.7275006   5.6765017
  19.8019987  86.6545006   5.6765017  35.8819987  85.5745006  11.3015017
  36.8389987  85.5745006  11.3015017  35.6419987  86.5015006  11.3015017
  37.4009987  83.5285006  11.9805017  38.3579987  83.5285006  11.9805017
  37.1609987  84.4555006  11.9805017  35.1249987  79.6565006 155.6665017
  36.0819987  79.6565006 155.6665017  34.8849987  80.5835006 155.6665017
  34.6909987  81.1995006 160.6125017  35.6479987  81.1995006 160.6125017
  34.4509987  82.1265006 160.6125017  35.3389987  81.7425006   5.5455017
  36.2959987  81.7425006   5.5455017  35.0989987  82.6695006   5.5455017
  35.4259987  82.4815006   8.4205017  36.3829987  82.4815006   8.4205017
  35.1859987  83.4085006   8.4205017  19.6489987  80.9935006  11.8355017
  20.6059987  80.9935006  11.8355017  19.4089987  81.9205006  11.8355017
  37.6199987  76.4965006  13.6325017  38.5769987  76.4965006  13.6325017
  37.3799987  77.4235006  13.6325017  35.3409987  78.5035006   0.1655017
  36.2979987  78.5035006   0.1655017  35.1009987  79.4305006   0.1655017
  20.8569987  79.2685006   4.7015017  21.8139987  79.2685006   4.7015017
  20.6169987  80.1955006   4.7015017  19.1389987  82.2795006   5.7435017
  20.0959987  82.2795006   5.7435017  18.8989987  83.2065006   5.7435017
  37.1959987  78.6595006  11.9895017  38.1529987  78.6595006  11.9895017
  36.9559987  79.5865006  11.9895017  37.1879987  78.5345006 157.2315017
  38.1449987  78.5345006 157.2315017  36.9479987  79.4615006 157.2315017
  19.5089987  78.5525006 160.3625017  20.4659987  78.5525006 160.3625017
  19.2689987  79.4795006 160.3625017  34.1699987  93.5235006   1.8655017
  35.1269987  93.5235006   1.8655017  33.9299987  94.4505006   1.8655017
  19.4609987  77.2215006   8.1225017  20.4179987  77.2215006   8.1225017
  19.2209987  78.1485006   8.1225017  21.6819987  90.4075006  12.2795017
  22.6389987  90.4075006  12.2795017  21.4419987  91.3345006  12.2795017
  24.5929987  91.4025006   8.5565017  25.5499987  91.4025006   8.5565017
  24.3529987  92.3295006   8.5565017  28.9059987  92.8175006  11.4635017
  29.8629987  92.8175006  11.4635017  28.6659987  93.7445006  11.4635017
  31.1239987  94.0865006  10.9045017  32.0809987  94.0865006  10.9045017
  30.8839987  95.0135006  10.9045017  36.2049987  76.7135006   9.8655017
  37.1619987  76.7135006   9.8655017  35.9649987  77.6405006   9.8655017
  22.0189987  94.6495006   8.5625017  22.9759987  94.6495006   8.5625017
  21.7789987  95.5765006   8.5625017  24.4889987  94.2305006   7.6265017
  25.4459987  94.2305006   7.6265017  24.2489987  95.1575006   7.6265017
  29.2099987  94.1515006   6.7965017  30.1669987  94.1515006   6.7965017
  28.9699987  95.0785006   6.7965017  31.4059987  92.8865006   7.6055017
  32.3629987  92.8865006   7.6055017  31.1659987  93.8135006   7.6055017
  34.5309987  94.6725006   7.8695017  35.4879987  94.6725006   7.8695017
  34.2909987  95.5995006   7.8695017  21.4529987  93.2975006   5.4935017
  22.4099987  93.2975006   5.4935017  21.2129987  94.2245006   5.4935017
  23.5489987  92.0135006   4.1465017  24.5059987  92.0135006   4.1465017
  23.3089987  92.9405006   4.1465017  26.1149987  92.4885006   5.0125017
  27.0719987  92.4885006   5.0125017  25.8749987  93.4155006   5.0125017
  29.6109987  78.1415006   4.1655017  30.5679987  78.1415006   4.1655017
  29.3709987  79.0685006   4.1655017  34.7359987  76.2155006   4.2455017
  35.6929987  76.2155006   4.2455017  34.4959987  77.1425006   4.2455017
  36.4319987  77.4235006   2.5225017  37.3889987  77.4235006   2.5225017
  36.1919987  78.3505006   2.5225017  21.9699987  76.7735006   1.9995017
  22.9269987  76.7735006   1.9995017  21.7299987  77.7005006   1.9995017
  20.7569987  76.5295006 158.2895017  21.7139987  76.5295006 158.2895017
  20.5169987  77.4565006 158.2895017  26.4709987  76.6925006   1.7895017
  27.4279987  76.6925006   1.7895017  26.2309987  77.6195006   1.7895017
  32.1369987  76.7215006   3.4185017  33.0939987  76.7215006   3.4185017
  31.8969987  77.6485006   3.4185017  33.4269987  76.7525006 159.6985017
  34.3839987  76.7525006 159.6985017  33.1869987  77.6795006 159.6985017
  20.6719987  92.4795006 159.2745017  21.6289987  92.4795006 159.2745017
  20.4319987  93.4065006 159.2745017  22.5909987  78.4715006 156.7745017
  23.5479987  78.4715006 156.7745017  22.3509987  79.3985006 156.7745017
  27.6189987  78.7245006 159.1895017  28.5759987  78.7245006 159.1895017
  27.3789987  79.6515006 159.1895017  29.5309987  93.7625006 157.6365017
  30.4879987  93.7625006 157.6365017  29.2909987  94.6895006 157.6365017
  35.7379987  93.0235006 160.5665017  36.6949987  93.0235006 160.5665017
  35.4979987  93.9505006 160.5665017  21.8679987  77.3065006  11.4625017
  22.8249987  77.3065006  11.4625017  21.6279987  78.2335006  11.4625017
  23.8659987  76.6795006  13.0845017  24.8229987  76.6795006  13.0845017
  23.6259987  77.6065006  13.0845017  22.4669987  93.4505006 156.2385017
  23.4239987  93.4505006 156.2385017  22.2269987  94.3775006 156.2385017
  32.2869987  75.9745006  13.2225017  33.2439987  75.9745006  13.2225017
  32.0469987  76.9015006  13.2225017  35.5049987  92.0325006  11.9165017
  36.4619987  92.0325006  11.9165017  35.2649987  92.9595006  11.9165017
  49.9129987  85.9055006   1.8845017  50.8699987  85.9055006   1.8845017
  49.6729987  86.8325006   1.8845017  48.7839987  85.1725006   5.3685017
  49.7409987  85.1725006   5.3685017  48.5439987  86.0995006   5.3685017
  41.1409987  84.8295006   6.9205017  42.0979987  84.8295006   6.9205017
  40.9009987  85.7565006   6.9205017  52.4789987  88.1055006   3.6545017
  53.4359987  88.1055006   3.6545017  52.2389987  89.0325006   3.6545017
  42.0679987  89.2765006   5.4455017  43.0249987  89.2765006   5.4455017
  41.8279987  90.2035006   5.4455017  38.7109987  82.8555006   0.9025017
  39.6679987  82.8555006   0.9025017  38.4709987  83.7825006   0.9025017
  39.4069987  85.0695006   3.0375017  40.3639987  85.0695006   3.0375017
  39.1669987  85.9965006   3.0375017  49.5069987  93.1615006   3.8495017
  50.4639987  93.1615006   3.8495017  49.2669987  94.0885006   3.8495017
  47.1599987  87.5795006   5.8115017  48.1169987  87.5795006   5.8115017
  46.9199987  88.5065006   5.8115017  55.7819987  79.2125006   6.5795017
  56.7389987  79.2125006   6.5795017  55.5419987  80.1395006   6.5795017
  50.3249987  82.0325006   6.1365017  51.2819987  82.0325006   6.1365017
  50.0849987  82.9595006   6.1365017  43.4499987  80.1205006   3.3715017
  44.4069987  80.1205006   3.3715017  43.2099987  81.0475006   3.3715017
  51.1799987  80.2085006   1.7405017  52.1369987  80.2085006   1.7405017
  50.9399987  81.1355006   1.7405017  40.0689987  82.5265006   4.1095017
  41.0259987  82.5265006   4.1095017  39.8289987  83.4535006   4.1095017
  45.2329987  84.0835006   3.3955017  46.1899987  84.0835006   3.3955017
  44.9929987  85.0105006   3.3955017  56.2229987  80.6405006   8.8445017
  57.1799987  80.6405006   8.8445017  55.9829987  81.5675006   8.8445017
  42.3479987  79.0235006   7.4145017  43.3049987  79.0235006   7.4145017
  42.1079987  79.9505006   7.4145017  49.6499987  88.5075006   0.9585017
  50.6069987  88.5075006   0.9585017  49.4099987  89.4345006   0.9585017
  44.8659987  86.6655006   7.6695017  45.8229987  86.6655006   7.6695017
  44.6259987  87.5925006   7.6695017  52.9739987  79.5435006   3.7325017
  53.9309987  79.5435006   3.7325017  52.7339987  80.4705006   3.7325017
  41.8939987  80.8835006   5.4205017  42.8509987  80.8835006   5.4205017
  41.6539987  81.8105006   5.4205017  43.3029987  88.6555006   8.4795017
  44.2599987  88.6555006   8.4795017  43.0629987  89.5825006   8.4795017
  39.3759987  88.3145006 159.8125017  40.3329987  88.3145006 159.8125017
  39.1359987  89.2415006 159.8125017  53.0039987  89.9485006   6.0145017
  53.9609987  89.9485006   6.0145017  52.7639987  90.8755006   6.0145017
  53.3179987  78.2365006   7.4045017  54.2749987  78.2365006   7.4045017
  53.0779987  79.1635006   7.4045017  46.3039987  76.3415006   4.8775017
  47.2609987  76.3415006   4.8775017  46.0639987  77.2685006   4.8775017
  51.2639987  91.7205006   2.6165017  52.2209987  91.7205006   2.6165017
  51.0239987  92.6475006   2.6165017  52.4689987  89.6635006   1.1145017
  53.4259987  89.6635006   1.1145017  52.2289987  90.5905006   1.1145017
  54.0959987  88.2405006   9.6205017  55.0529987  88.2405006   9.6205017
  53.8559987  89.1675006   9.6205017  48.5869987  85.1495006 159.9355017
  49.5439987  85.1495006 159.9355017  48.3469987  86.0765006 159.9355017
  48.6479987  83.6835006 156.9445017  49.6049987  83.6835006 156.9445017
  48.4079987  84.6105006 156.9445017  55.9689987  84.5545006   7.6725017
  56.9259987  84.5545006   7.6725017  55.7289987  85.4815006   7.6725017
  52.0249987  85.3645006   0.3065017  52.9819987  85.3645006   0.3065017
  51.7849987  86.2915006   0.3065017  51.9499987  83.5235006   9.4165017
  52.9069987  83.5235006   9.4165017  51.7099987  84.4505006   9.4165017
  43.6409987  86.0205006   2.2205017  44.5979987  86.0205006   2.2205017
  43.4009987  86.9475006   2.2205017  44.9599987  89.4065006   4.9065017
  45.9169987  89.4065006   4.9065017  44.7199987  90.3335006   4.9065017
  43.9799987  84.7615006   5.8715017  44.9369987  84.7615006   5.8715017
  43.7399987  85.6885006   5.8715017  50.3649987  90.3135006   6.5845017
  51.3219987  90.3135006   6.5845017  50.1249987  91.2405006   6.5845017
  44.9179987  89.1845006  10.5755017  45.8749987  89.1845006  10.5755017
  44.6779987  90.1115006  10.5755017  50.8859987  84.5445006 158.5285017
  51.8429987  84.5445006 158.5285017  50.6459987  85.4715006 158.5285017
  41.8569987  85.3535006   9.7535017  42.8139987  85.3535006   9.7535017
  41.6169987  86.2805006   9.7535017  48.6109987  91.2785006   1.4465017
  49.5679987  91.2785006   1.4465017  48.3709987  92.2055006   1.4465017
  43.1609987  91.2355006  11.3295017  44.1179987  91.2355006  11.3295017
  42.9209987  92.1625006  11.3295017  54.6149987  76.2815006 158.3965017
  55.5719987  76.2815006 158.3965017  54.3749987  77.2085006 158.3965017
  42.6169987  85.0465006 160.3785017  43.5739987  85.0465006 160.3785017
  42.3769987  85.9735006 160.3785017  55.7199987  90.6665006 156.7925017
  56.6769987  90.6665006 156.7925017  55.4799987  91.5935006 156.7925017
  38.7139987  87.4755006   8.6995017  39.6709987  87.4755006   8.6995017
  38.4739987  88.4025006   8.6995017  38.4629987  90.1975006   5.5225017
  39.4199987  90.1975006   5.5225017  38.2229987  91.1245006   5.5225017
  56.7009987  90.9035006  11.1935017  57.6579987  90.9035006  11.1935017
  56.4609987  91.8305006  11.1935017  47.6579987  90.4475006  10.0575017
  48.6149987  90.4475006  10.0575017  47.4179987  91.3745006  10.0575017
  48.0759987  94.1905006 160.4015017  49.0329987  94.1905006 160.4015017
  47.8359987  95.1175006 160.4015017  41.7319987  93.0565006   1.6625017
  42.6889987  93.0565006   1.6625017  41.4919987  93.9835006   1.6625017
  51.2179987  93.4215006 157.4045017  52.1749987  93.4215006 157.4045017
  50.9779987  94.3485006 157.4045017  50.8539987  93.2745006 160.1055017
  51.8109987  93.2745006 160.1055017  50.6139987  94.2015006 160.1055017
  53.8389987  82.3845006  11.6565017  54.7959987  82.3845006  11.6565017
  53.5989987  83.3115006  11.6565017  40.9799987  88.7835006   9.6665017
  41.9369987  88.7835006   9.6665017  40.7399987  89.7105006   9.6665017
  43.6629987  77.2505006   5.6225017  44.6199987  77.2505006   5.6225017
  43.4229987  78.1775006   5.6225017  48.2949987  76.9345006   8.9985017
  49.2519987  76.9345006   8.9985017  48.0549987  77.8615006   8.9985017
  51.5949987  80.7505006   9.8855017  52.5519987  80.7505006   9.8855017
  51.3549987  81.6775006   9.8855017  52.3469987  85.5765006 156.2895017
  53.3039987  85.5765006 156.2895017  52.1069987  86.5035006 156.2895017
  47.9459987  79.4925006 156.8385017  48.9029987  79.4925006 156.8385017
  47.7059987  80.4195006 156.8385017  43.7479987  82.2125006   6.8445017
  44.7049987  82.2125006   6.8445017  43.5079987  83.1395006   6.8445017
  43.7139987  82.3735006   1.7225017  44.6709987  82.3735006   1.7225017
  43.4739987  83.3005006   1.7225017  49.2379987  82.8435006   0.5145017
  50.1949987  82.8435006   0.5145017  48.9979987  83.7705006   0.5145017
  48.3109987  83.0495006  11.9545017  49.2679987  83.0495006  11.9545017
  48.0709987  83.9765006  11.9545017  50.2649987  82.3235006   3.3445017
  51.2219987  82.3235006   3.3445017  50.0249987  83.2505006   3.3445017
  41.3849987  82.5035006   8.5775017  42.3419987  82.5035006   8.5775017
  41.1449987  83.4305006   8.5775017  44.7799987  79.8825006 155.9555017
  45.7369987  79.8825006 155.9555017  44.5399987  80.8095006 155.9555017
  38.0459987  79.6245006   2.5195017  39.0029987  79.6245006   2.5195017
  37.8059987  80.5515006   2.5195017  39.3209987  80.3365006 158.4555017
  40.2779987  80.3365006 158.4555017  39.0809987  81.2635006 158.4555017
  49.4809987  83.9275006   7.9305017  50.4379987  83.9275006   7.9305017
  49.2409987  84.8545006   7.9305017  46.2749987  79.8835006   2.7455017
  47.2319987  79.8835006   2.7455017  46.0349987  80.8105006   2.7455017
  41.0939987  81.4595006   1.6075017  42.0509987  81.4595006   1.6075017
  40.8539987  82.3865006   1.6075017  44.7399987  81.4835006 159.7765017
  45.6969987  81.4835006 159.7765017  44.4999987  82.4105006 159.7765017
  50.6849987  79.1205006   5.9935017  51.6419987  79.1205006   5.9935017
  50.4449987  80.0475006   5.9935017  43.4319987  82.6735006 157.3695017
  44.3889987  82.6735006 157.3695017  43.1919987  83.6005006 157.3695017
  53.8989987  94.7715006  12.3095017  54.8559987  94.7715006  12.3095017
  53.6589987  95.6985006  12.3095017  41.5679987  87.2345006  11.8815017
  42.5249987  87.2345006  11.8815017  41.3279987  88.1615006  11.8815017
  47.5659987  82.6495006   4.6405017  48.5229987  82.6495006   4.6405017
  47.3259987  83.5765006   4.6405017  42.5739987  78.7915006   1.0765017
  43.5309987  78.7915006   1.0765017  42.3339987  79.7185006   1.0765017
  46.2059987  80.9885006   7.0525017  47.1629987  80.9885006   7.0525017
  45.9659987  81.9155006   7.0525017  46.7959987  87.2155006 159.2865017
  47.7529987  87.2155006 159.2865017  46.5559987  88.1425006 159.2865017
  53.9549987  86.3905006   7.5515017  54.9119987  86.3905006   7.5515017
  53.7149987  87.3175006   7.5515017  50.6309987  80.0275006 157.4685017
  51.5879987  80.0275006 157.4685017  50.3909987  80.9545006 157.4685017
  48.2789987  87.4535006   9.9875017  49.2359987  87.4535006   9.9875017
  48.0389987  88.3805006   9.9875017  51.3599987  81.9285006 159.1125017
  52.3169987  81.9285006 159.1125017  51.1199987  82.8555006 159.1125017
  41.8949987  86.5825006   4.5455017  42.8519987  86.5825006   4.5455017
  41.6549987  87.5095006   4.5455017  48.8979987  88.6785006 158.3175017
  49.8549987  88.6785006 158.3175017  48.6579987  89.6055006 158.3175017
  38.8839987  85.0025006   9.8175017  39.8409987  85.0025006   9.8175017
  38.6439987  85.9295006   9.8175017  45.8999987  84.5575006  12.0065017
  46.8569987  84.5575006  12.0065017  45.6599987  85.4845006  12.0065017
  50.5719987  89.8895006   9.9295017  51.5289987  89.8895006   9.9295017
  50.3319987  90.8165006   9.9295017  56.2669987  82.0805006 158.8655017
  57.2239987  82.0805006 158.8655017  56.0269987  83.0075006 158.8655017
  56.2399987  87.9415006  11.1475017  57.1969987  87.9415006  11.1475017
  55.9999987  88.8685006  11.1475017  54.7109987  90.7005006 159.4165017
  55.6679987  90.7005006 159.4165017  54.4709987  91.6275006 159.4165017
  51.7459987  85.7255006   5.8245017  52.7029987  85.7255006   5.8245017
  51.5059987  86.6525006   5.8245017  44.2669987  90.0475006   1.9315017
  45.2239987  90.0475006   1.9315017  44.0269987  90.9745006   1.9315017
  40.0309987  84.8955006 157.0425017  40.9879987  84.8955006 157.0425017
  39.7909987  85.8225006 157.0425017  45.6929987  87.7135006   1.4565017
  46.6499987  87.7135006   1.4565017  45.4529987  88.6405006   1.4565017
  46.1449987  91.8905006   7.8485017  47.1019987  91.8905006   7.8485017
  45.9049987  92.8175006   7.8485017  44.3659987  92.7155006   0.9945017
  45.3229987  92.7155006   0.9945017  44.1259987  93.6425006   0.9945017
  49.6879987  87.9195006   7.4895017  50.6449987  87.9195006   7.4895017
  49.4479987  88.8465006   7.4895017  51.9999987  88.9785006 157.1175017
  52.9569987  88.9785006 157.1175017  51.7599987  89.9055006 157.1175017
  52.4569987  92.4915006   9.9815017  53.4139987  92.4915006   9.9815017
  52.2169987  93.4185006   9.9815017  56.4389987  93.3425006 157.3745017
  57.3959987  93.3425006 157.3745017  56.1989987  94.2695006 157.3745017
  40.5379987  79.7465006   9.3825017  41.4949987  79.7465006   9.3825017
  40.2979987  80.6735006   9.3825017  52.7809987  87.6215006 159.3475017
  53.7379987  87.6215006 159.3475017  52.5409987  88.5485006 159.3475017
  40.1589987  91.5365006   7.7955017  41.1159987  91.5365006   7.7955017
  39.9189987  92.4635006   7.7955017  46.1029987  90.0415006 155.5915017
  47.0599987  90.0415006 155.5915017  45.8629987  90.9685006 155.5915017
  44.9219987  89.5725006 158.0475017  45.8789987  89.5725006 158.0475017
  44.6819987  90.4995006 158.0475017  41.4399987  86.8075006 158.5405017
  42.3969987  86.8075006 158.5405017  41.1999987  87.7345006 158.5405017
  49.2649987  79.5065006   8.3015017  50.2219987  79.5065006   8.3015017
  49.0249987  80.4335006   8.3015017  50.0249987  79.0905006 159.9385017
  50.9819987  79.0905006 159.9385017  49.7849987  80.0175006 159.9385017
  47.7049987  91.2415006 158.7675017  48.6619987  91.2415006 158.7675017
  47.4649987  92.1685006 158.7675017  47.2439987  80.8455006   0.2195017
  48.2009987  80.8455006   0.2195017  47.0039987  81.7725006   0.2195017
  47.7939987  81.8555006   9.4075017  48.7509987  81.8555006   9.4075017
  47.5539987  82.7825006   9.4075017  48.1039987  77.9035006   1.1265017
  49.0609987  77.9035006   1.1265017  47.8639987  78.8305006   1.1265017
  45.0889987  92.2825006 158.7765017  46.0459987  92.2825006 158.7765017
  44.8489987  93.2095006 158.7765017  43.7589987  78.9995006 158.3635017
  44.7159987  78.9995006 158.3635017  43.5189987  79.9265006 158.3635017
  53.9989987  79.7415006  10.2585017  54.9559987  79.7415006  10.2585017
  53.7589987  80.6685006  10.2585017  52.5889987  83.5165006   4.2865017
  53.5459987  83.5165006   4.2865017  52.3489987  84.4435006   4.2865017
  41.9999987  89.4345006 157.4195017  42.9569987  89.4345006 157.4195017
  41.7599987  90.3615006 157.4195017  40.3399987  82.1055006 156.5495017
  41.2969987  82.1055006 156.5495017  40.0999987  83.0325006 156.5495017
  53.6539987  92.7655006   5.9435017  54.6109987  92.7655006   5.9435017
  53.4139987  93.6925006   5.9435017  41.1639987  76.9095006   4.7205017
  42.1209987  76.9095006   4.7205017  40.9239987  77.8365006   4.7205017
  40.1089987  90.8115006   0.8835017  41.0659987  90.8115006   0.8835017
  39.8689987  91.7385006   0.8835017  39.3219987  93.4645006  12.1775017
  40.2789987  93.4645006  12.1775017  39.0819987  94.3915006  12.1775017
  43.9819987  92.3815006  13.7935017  44.9389987  92.3815006  13.7935017
  43.7419987  93.3085006  13.7935017  48.1069987  91.8965006 155.7255017
  49.0639987  91.8965006 155.7255017  47.8669987  92.8235006 155.7255017
  50.5139987  90.7625006  12.5265017  51.4709987  90.7625006  12.5265017
  50.2739987  91.6895006  12.5265017  52.7389987  91.6925006 156.0015017
  53.6959987  91.6925006 156.0015017  52.4989987  92.6195006 156.0015017
  39.2479987  87.2545006  13.1665017  40.2049987  87.2545006  13.1665017
  39.0079987  88.1815006  13.1665017  43.5779987  87.5885006 155.7575017
  44.5349987  87.5885006 155.7575017  43.3379987  88.5155006 155.7575017
  45.9439987  87.2265006  12.5625017  46.9009987  87.2265006  12.5625017
  45.7039987  88.1535006  12.5625017  48.9969987  88.6815006 155.5185017
  49.9539987  88.6815006 155.5185017  48.7569987  89.6085006 155.5185017
  51.6469987  87.0965006   9.9485017  52.6039987  87.0965006   9.9485017
  51.4069987  88.0235006   9.9485017  40.0839987  84.4325006  12.5315017
  41.0409987  84.4325006  12.5315017  39.8439987  85.3595006  12.5315017
  44.7739987  85.5965006 158.1445017  45.7309987  85.5965006 158.1445017
  44.5339987  86.5235006 158.1445017  44.0489987  83.4215006   9.9165017
  45.0059987  83.4215006   9.9165017  43.8089987  84.3485006   9.9165017
  45.8459987  83.8175006 156.3655017  46.8029987  83.8175006 156.3655017
  45.6059987  84.7445006 156.3655017  49.1059987  85.9665006  13.2325017
  50.0629987  85.9665006  13.2325017  48.8659987  86.8935006  13.2325017
  55.2059987  86.1495006 155.7925017  56.1629987  86.1495006 155.7925017
  54.9659987  87.0765006 155.7925017  44.4449987  80.7945006  10.9885017
  45.4019987  80.7945006  10.9885017  44.2049987  81.7215006  10.9885017
  44.8429987  79.1735006   8.5185017  45.7999987  79.1735006   8.5185017
  44.6029987  80.1005006   8.5185017  46.3929987  84.6425006   8.7625017
  47.3499987  84.6425006   8.7625017  46.1529987  85.5695006   8.7625017
  50.7889987  82.4235006  13.7445017  51.7459987  82.4235006  13.7445017
  50.5489987  83.3505006  13.7445017  52.1189987  85.2085006  11.8775017
  53.0759987  85.2085006  11.8775017  51.8789987  86.1355006  11.8775017
  42.9049987  82.0335006  12.9105017  43.8619987  82.0335006  12.9105017
  42.6649987  82.9605006  12.9105017  45.6309987  76.6085006   8.9295017
  46.5879987  76.6085006   8.9295017  45.3909987  77.5355006   8.9295017
  46.9069987  80.9425006  12.5255017  47.8639987  80.9425006  12.5255017
  46.6669987  81.8695006  12.5255017  49.6189987  80.0795006  11.5975017
  50.5759987  80.0795006  11.5975017  49.3789987  81.0065006  11.5975017
  51.1999987  78.7055006  13.5355017  52.1569987  78.7055006  13.5355017
  50.9599987  79.6325006  13.5355017  41.0039987  79.9545006  12.6295017
  41.9609987  79.9545006  12.6295017  40.7639987  80.8815006  12.6295017
  45.8489987  75.9805006  11.6145017  46.8059987  75.9805006  11.6145017
  45.6089987  76.9075006  11.6145017  46.2099987  77.6115006  13.7055017
  47.1669987  77.6115006  13.7055017  45.9699987  78.5385006  13.7055017
  45.7009987  94.5095006 157.4245017  46.6579987  94.5095006 157.4245017
  45.4609987  95.4365006 157.4245017  39.2569987  89.1105006 156.8985017
  40.2139987  89.1105006 156.8985017  39.0169987  90.0375006 156.8985017
  37.9249987  94.5155006   1.6145017  38.8819987  94.5155006   1.6145017
  37.6849987  95.4425006   1.6145017  38.8679987  92.5975006   3.2095017
  39.8249987  92.5975006   3.2095017  38.6279987  93.5245006   3.2095017
  56.3739987  93.4145006   6.1485017  57.3309987  93.4145006   6.1485017
  56.1339987  94.3415006   6.1485017  55.9499987  93.0125006   9.0925017
  56.9069987  93.0125006   9.0925017  55.7099987  93.9395006   9.0925017
  54.3949987  88.7435006  13.7475017  55.3519987  88.7435006  13.7475017
  54.1549987  89.6705006  13.7475017  55.7009987  87.0585006 159.7445017
  56.6579987  87.0585006 159.7445017  55.4609987  87.9855006 159.7445017
  56.0749987  85.1265006   1.0715017  57.0319987  85.1265006   1.0715017
  55.8349987  86.0535006   1.0715017  55.8319987  87.8425006   6.0535017
  56.7889987  87.8425006   6.0535017  55.5919987  88.7695006   6.0535017
  54.3779987  90.7365006   8.3365017  55.3349987  90.7365006   8.3365017
  54.1379987  91.6635006   8.3365017  56.3719987  84.9665006 158.0105017
  57.3289987  84.9665006 158.0105017  56.1319987  85.8935006 158.0105017
  54.7389987  82.2025006 156.5315017  55.6959987  82.2025006 156.5315017
  54.4989987  83.1295006 156.5315017  53.8889987  83.6105006   1.6345017
  54.8459987  83.6105006   1.6345017  53.6489987  84.5375006   1.6345017
  38.8929987  85.6945006   5.6905017  39.8499987  85.6945006   5.6905017
  38.6529987  86.6215006   5.6905017  54.7379987  85.5735006  11.3215017
  55.6949987  85.5735006  11.3215017  54.4979987  86.5005006  11.3215017
  56.2589987  83.4825006  11.9225017  57.2159987  83.4825006  11.9225017
  56.0189987  84.4095006  11.9225017  53.9809987  79.6575006 155.6645017
  54.9379987  79.6575006 155.6645017  53.7409987  80.5845006 155.6645017
  53.5489987  81.1955006 160.6145017  54.5059987  81.1955006 160.6145017
  53.3089987  82.1225006 160.6145017  54.1959987  81.7335006   5.5415017
  55.1529987  81.7335006   5.5415017  53.9559987  82.6605006   5.5415017
  54.2539987  82.4705006   8.3245017  55.2109987  82.4705006   8.3245017
  54.0139987  83.3975006   8.3245017  38.6379987  80.9555006  11.9995017
  39.5949987  80.9555006  11.9995017  38.3979987  81.8825006  11.9995017
  54.2149987  78.4805006   0.1465017  55.1719987  78.4805006   0.1465017
  53.9749987  79.4075006   0.1465017  39.7099987  79.2725006   4.6805017
  40.6669987  79.2725006   4.6805017  39.4699987  80.1995006   4.6805017
  38.0069987  82.2735006   5.7655017  38.9639987  82.2735006   5.7655017
  37.7669987  83.2005006   5.7655017  56.0499987  78.5165006 157.2425017
  57.0069987  78.5165006 157.2425017  55.8099987  79.4435006 157.2425017
  38.3679987  78.5755006 160.4005017  39.3249987  78.5755006 160.4005017
  38.1279987  79.5025006 160.4005017  53.0929987  93.4985006   1.7445017
  54.0499987  93.4985006   1.7445017  52.8529987  94.4255006   1.7445017
  38.3409987  77.2745006   8.1745017  39.2979987  77.2745006   8.1745017
  38.1009987  78.2015006   8.1745017  40.5389987  90.4065006  12.2795017
  41.4959987  90.4065006  12.2795017  40.2989987  91.3335006  12.2795017
  43.4479987  91.4015006   8.5555017  44.4049987  91.4015006   8.5555017
  43.2079987  92.3285006   8.5555017  47.7689987  92.8275006  11.4695017
  48.7259987  92.8275006  11.4695017  47.5289987  93.7545006  11.4695017
  50.0669987  94.0975006  10.7585017  51.0239987  94.0975006  10.7585017
  49.8269987  95.0245006  10.7585017  55.0739987  76.7095006   9.8565017
  56.0309987  76.7095006   9.8565017  54.8339987  77.6365006   9.8565017
  40.8699987  94.6585006   8.5625017  41.8269987  94.6585006   8.5625017
  40.6299987  95.5855006   8.5625017  43.3449987  94.2305006   7.6265017
  44.3019987  94.2305006   7.6265017  43.1049987  95.1575006   7.6265017
  48.0459987  94.1415006   6.7925017  49.0029987  94.1415006   6.7925017
  47.8059987  95.0685006   6.7925017  50.3529987  92.9695006   7.7935017
  51.3099987  92.9695006   7.7935017  50.1129987  93.8965006   7.7935017
  52.9329987  94.5405006   8.0445017  53.8899987  94.5405006   8.0445017
  52.6929987  95.4675006   8.0445017  40.3119987  93.2985006   5.4935017
  41.2689987  93.2985006   5.4935017  40.0719987  94.2255006   5.4935017
  42.4049987  92.0095006   4.1455017  43.3619987  92.0095006   4.1455017
  42.1649987  92.9365006   4.1455017  44.9949987  92.4915006   5.0165017
  45.9519987  92.4915006   5.0165017  44.7549987  93.4185006   5.0165017
  48.4699987  78.1435006   4.1625017  49.4269987  78.1435006   4.1625017
  48.2299987  79.0705006   4.1625017  53.6019987  76.1995006   4.2475017
  54.5589987  76.1995006   4.2475017  53.3619987  77.1265006   4.2475017
  55.2789987  77.4215006   2.5305017  56.2359987  77.4215006   2.5305017
  55.0389987  78.3485006   2.5305017  40.8079987  76.7615006   1.9995017
  41.7649987  76.7615006   1.9995017  40.5679987  77.6885006   1.9995017
  39.6909987  76.5835006 158.3185017  40.6479987  76.5835006 158.3185017
  39.4509987  77.5105006 158.3185017  45.3229987  76.6895006   1.7915017
  46.2799987  76.6895006   1.7915017  45.0829987  77.6165006   1.7915017
  50.9949987  76.7185006   3.4285017  51.9519987  76.7185006   3.4285017
  50.7549987  77.6455006   3.4285017  52.2919987  76.7485006 159.6535017
  53.2489987  76.7485006 159.6535017  52.0519987  77.6755006 159.6535017
  39.6619987  92.4135006 159.2165017  40.6189987  92.4135006 159.2165017
  39.4219987  93.3405006 159.2165017  41.4579987  78.4955006 156.7555017
  42.4149987  78.4955006 156.7555017  41.2179987  79.4225006 156.7555017
  46.4749987  78.7245006 159.1895017  47.4319987  78.7245006 159.1895017
  46.2349987  79.6515006 159.1895017  48.4039987  93.7515006 157.6455017
  49.3609987  93.7515006 157.6455017  48.1639987  94.6785006 157.6455017
  55.0889987  93.2925006 160.3535017  56.0459987  93.2925006 160.3535017
  54.8489987  94.2195006 160.3535017  40.7119987  77.3335006  11.4765017
  41.6689987  77.3335006  11.4765017  40.4719987  78.2605006  11.4765017
  42.7269987  76.6755006  13.0685017  43.6839987  76.6755006  13.0685017
  42.4869987  77.6025006  13.0685017  41.3319987  93.4215006 156.2295017
  42.2889987  93.4215006 156.2295017  41.0919987  94.3485006 156.2295017
  51.1129987  75.9785006  13.2315017  52.0699987  75.9785006  13.2315017
  50.8729987  76.9055006  13.2315017  54.3369987  92.0245006  11.8935017
  55.2939987  92.0245006  11.8935017  54.0969987  92.9515006  11.8935017
  68.7679987  85.9035006   1.8835017  69.7249987  85.9035006   1.8835017
  68.5279987  86.8305006   1.8835017  67.6399987  85.1795006   5.3635017
  68.5969987  85.1795006   5.3635017  67.3999987  86.1065006   5.3635017
  59.9909987  84.8305006   6.9235017  60.9479987  84.8305006   6.9235017
  59.7509987  85.7575006   6.9235017  71.3419987  88.1155006   3.6435017
  72.2989987  88.1155006   3.6435017  71.1019987  89.0425006   3.6435017
  60.9239987  89.2765006   5.4445017  61.8809987  89.2765006   5.4445017
  60.6839987  90.2035006   5.4445017  57.5669987  82.8555006   0.9025017
  58.5239987  82.8555006   0.9025017  57.3269987  83.7825006   0.9025017
  58.2629987  85.0705006   3.0365017  59.2199987  85.0705006   3.0365017
  58.0229987  85.9975006   3.0365017  68.4509987  93.2615006   3.8825017
  69.4079987  93.2615006   3.8825017  68.2109987  94.1885006   3.8825017
  66.0159987  87.5795006   5.8115017  66.9729987  87.5795006   5.8115017
  65.7759987  88.5065006   5.8115017  74.6629987  79.2005006   6.5975017
  75.6199987  79.2005006   6.5975017  74.4229987  80.1275006   6.5975017
  69.1679987  81.9975006   6.1465017  70.1249987  81.9975006   6.1465017
  68.9279987  82.9245006   6.1465017  62.3529987  80.1155006   3.3555017
  63.3099987  80.1155006   3.3555017  62.1129987  81.0425006   3.3555017
  70.0319987  80.2075006   1.7515017  70.9889987  80.2075006   1.7515017
  69.7919987  81.1345006   1.7515017  58.9209987  82.5275006   4.1125017
  59.8779987  82.5275006   4.1125017  58.6809987  83.4545006   4.1125017
  64.0859987  84.0825006   3.3945017  65.0429987  84.0825006   3.3945017
  63.8459987  85.0095006   3.3945017  75.0849987  80.6545006   8.8435017
  76.0419987  80.6545006   8.8435017  74.8449987  81.5815006   8.8435017
  68.5049987  88.5075006   0.9585017  69.4619987  88.5075006   0.9585017
  68.2649987  89.4345006   0.9585017  63.7229987  86.6695006   7.6655017
  64.6799987  86.6695006   7.6655017  63.4829987  87.5965006   7.6655017
  71.7789987  79.5545006   3.7775017  72.7359987  79.5545006   3.7775017
  71.5389987  80.4815006   3.7775017  60.7189987  80.9575006   5.3465017
  61.6759987  80.9575006   5.3465017  60.4789987  81.8845006   5.3465017
  62.1549987  88.6605006   8.4725017  63.1119987  88.6605006   8.4725017
  61.9149987  89.5875006   8.4725017  58.2519987  88.2845006 159.8175017
  59.2089987  88.2845006 159.8175017  58.0119987  89.2115006 159.8175017
  71.8619987  89.9465006   6.0155017  72.8189987  89.9465006   6.0155017
  71.6219987  90.8735006   6.0155017  70.1149987  91.7315006   2.6185017
  71.0719987  91.7315006   2.6185017  69.8749987  92.6585006   2.6185017
  71.3159987  89.6585006   1.1255017  72.2729987  89.6585006   1.1255017
  71.0759987  90.5855006   1.1255017  72.9499987  88.2335006   9.6345017
  73.9069987  88.2335006   9.6345017  72.7099987  89.1605006   9.6345017
  67.4429987  85.1485006 159.9365017  68.3999987  85.1485006 159.9365017
  67.2029987  86.0755006 159.9365017  67.5039987  83.6835006 156.9455017
  68.4609987  83.6835006 156.9455017  67.2639987  84.6105006 156.9455017
  74.8269987  84.5535006   7.6735017  75.7839987  84.5535006   7.6735017
  74.5869987  85.4805006   7.6735017  70.8799987  85.3635006   0.3055017
  71.8369987  85.3635006   0.3055017  70.6399987  86.2905006   0.3055017
  70.7989987  83.5195006   9.4095017  71.7559987  83.5195006   9.4095017
  70.5589987  84.4465006   9.4095017  62.4969987  86.0205006   2.2205017
  63.4539987  86.0205006   2.2205017  62.2569987  86.9475006   2.2205017
  63.8269987  89.4175006   4.9025017  64.7839987  89.4175006   4.9025017
  63.5869987  90.3445006   4.9025017  62.8239987  84.7935006   5.8565017
  63.7809987  84.7935006   5.8565017  62.5839987  85.7205006   5.8565017
  69.2199987  90.3245006   6.5795017  70.1769987  90.3245006   6.5795017
  68.9799987  91.2515006   6.5795017  63.7729987  89.1835006  10.5755017
  64.7299987  89.1835006  10.5755017  63.5329987  90.1105006  10.5755017
  69.7449987  84.5465006 158.5265017  70.7019987  84.5465006 158.5265017
  69.5049987  85.4735006 158.5265017  60.7069987  85.3575006   9.7515017
  61.6639987  85.3575006   9.7515017  60.4669987  86.2845006   9.7515017
  67.4659987  91.2745006   1.4455017  68.4229987  91.2745006   1.4455017
  67.2259987  92.2015006   1.4455017  62.0139987  91.2315006  11.3295017
  62.9709987  91.2315006  11.3295017  61.7739987  92.1585006  11.3295017
  73.4769987  76.2925006 158.3845017  74.4339987  76.2925006 158.3845017
  73.2369987  77.2195006 158.3845017  61.4729987  85.0465006 160.3785017
  62.4299987  85.0465006 160.3785017  61.2329987  85.9735006 160.3785017
  74.5949987  90.6385006 156.7615017  75.5519987  90.6385006 156.7615017
  74.3549987  91.5655006 156.7615017  57.5629987  87.4645006   8.7025017
  58.5199987  87.4645006   8.7025017  57.3229987  88.3915006   8.7025017
  57.3199987  90.2055006   5.5045017  58.2769987  90.2055006   5.5045017
  57.0799987  91.1325006   5.5045017  75.5609987  90.8905006  11.2075017
  76.5179987  90.8905006  11.2075017  75.3209987  91.8175006  11.2075017
  66.5149987  90.4505006  10.0595017  67.4719987  90.4505006  10.0595017
  66.2749987  91.3775006  10.0595017  66.9479987  94.1965006 160.4045017
  67.9049987  94.1965006 160.4045017  66.7079987  95.1235006 160.4045017
  60.5859987  93.0595006   1.6705017  61.5429987  93.0595006   1.6705017
  60.3459987  93.9865006   1.6705017  70.0129987  93.4015006 157.3875017
  70.9699987  93.4015006 157.3875017  69.7729987  94.3285006 157.3875017
  69.7019987  93.3285006 160.1515017  70.6589987  93.3285006 160.1515017
  69.4619987  94.2555006 160.1515017  72.7049987  82.3785006  11.6705017
  73.6619987  82.3785006  11.6705017  72.4649987  83.3055006  11.6705017
  59.8359987  88.7835006   9.6685017  60.7929987  88.7835006   9.6685017
  59.5959987  89.7105006   9.6685017  62.4999987  77.2465006   5.6165017
  63.4569987  77.2465006   5.6165017  62.2599987  78.1735006   5.6165017
  70.4489987  80.8095006   9.9325017  71.4059987  80.8095006   9.9325017
  70.2089987  81.7365006   9.9325017  71.2039987  85.5755006 156.2815017
  72.1609987  85.5755006 156.2815017  70.9639987  86.5025006 156.2815017
  66.8009987  79.4935006 156.8365017  67.7579987  79.4935006 156.8365017
  66.5609987  80.4205006 156.8365017  62.6039987  82.2245006   6.8015017
  63.5609987  82.2245006   6.8015017  62.3639987  83.1515006   6.8015017
  62.5639987  82.3925006   1.7115017  63.5209987  82.3925006   1.7115017
  62.3239987  83.3195006   1.7115017  68.0929987  82.8395006   0.5255017
  69.0499987  82.8395006   0.5255017  67.8529987  83.7665006   0.5255017
  69.1099987  82.2995006   3.3615017  70.0669987  82.2995006   3.3615017
  68.8699987  83.2265006   3.3615017  60.2389987  82.5245006   8.5775017
  61.1959987  82.5245006   8.5775017  59.9989987  83.4515006   8.5775017
  63.6349987  79.8825006 155.9555017  64.5919987  79.8825006 155.9555017
  63.3949987  80.8095006 155.9555017  56.8909987  79.6095006   2.5145017
  57.8479987  79.6095006   2.5145017  56.6509987  80.5365006   2.5145017
  58.1729987  80.3205006 158.4375017  59.1299987  80.3205006 158.4375017
  57.9329987  81.2475006 158.4375017  68.3579987  83.9255006   7.9425017
  69.3149987  83.9255006   7.9425017  68.1179987  84.8525006   7.9425017
  65.1349987  79.8555006   2.7395017  66.0919987  79.8555006   2.7395017
  64.8949987  80.7825006   2.7395017  59.9519987  81.4645006   1.5965017
  60.9089987  81.4645006   1.5965017  59.7119987  82.3915006   1.5965017
  63.5949987  81.4805006 159.7755017  64.5519987  81.4805006 159.7755017
  63.3549987  82.4075006 159.7755017  62.2869987  82.6735006 157.3705017
  63.2439987  82.6735006 157.3705017  62.0469987  83.6005006 157.3705017
  72.7489987  94.8115006  12.3145017  73.7059987  94.8115006  12.3145017
  72.5089987  95.7385006  12.3145017  60.4149987  87.2625006  11.8715017
  61.3719987  87.2625006  11.8715017  60.1749987  88.1895006  11.8715017
  66.4219987  82.6415006   4.6525017  67.3789987  82.6415006   4.6525017
  66.1819987  83.5685006   4.6525017  61.4569987  78.7875006   1.0855017
  62.4139987  78.7875006   1.0855017  61.2169987  79.7145006   1.0855017
  65.1219987  81.0485006   7.0335017  66.0789987  81.0485006   7.0335017
  64.8819987  81.9755006   7.0335017  65.6479987  87.2165006 159.2865017
  66.6049987  87.2165006 159.2865017  65.4079987  88.1435006 159.2865017
  72.8109987  86.3915006   7.5525017  73.7679987  86.3915006   7.5525017
  72.5709987  87.3185006   7.5525017  69.4879987  80.0295006 157.4625017
  70.4449987  80.0295006 157.4625017  69.2479987  80.9565006 157.4625017
  67.1369987  87.4595006   9.9825017  68.0939987  87.4595006   9.9825017
  66.8969987  88.3865006   9.9825017  70.2139987  81.9285006 159.1125017
  71.1709987  81.9285006 159.1125017  69.9739987  82.8555006 159.1125017
  60.7499987  86.5835006   4.5445017  61.7069987  86.5835006   4.5445017
  60.5099987  87.5105006   4.5445017  67.7539987  88.6785006 158.3185017
  68.7109987  88.6785006 158.3185017  67.5139987  89.6055006 158.3185017
  57.7469987  85.0065006   9.8115017  58.7039987  85.0065006   9.8115017
  57.5069987  85.9335006   9.8115017  64.7849987  84.6135006  11.9795017
  65.7419987  84.6135006  11.9795017  64.5449987  85.5405006  11.9795017
  69.4249987  89.8845006   9.9275017  70.3819987  89.8845006   9.9275017
  69.1849987  90.8115006   9.9275017  75.1199987  82.0835006 158.8675017
  76.0769987  82.0835006 158.8675017  74.8799987  83.0105006 158.8675017
  75.0869987  87.9225006  11.1525017  76.0439987  87.9225006  11.1525017
  74.8469987  88.8495006  11.1525017  73.3829987  90.9115006 159.2785017
  74.3399987  90.9115006 159.2785017  73.1429987  91.8385006 159.2785017
  70.6019987  85.7245006   5.8255017  71.5589987  85.7245006   5.8255017
  70.3619987  86.6515006   5.8255017  63.1259987  90.0495006   1.9295017
  64.0829987  90.0495006   1.9295017  62.8859987  90.9765006   1.9295017
  58.8879987  84.8965006 157.0435017  59.8449987  84.8965006 157.0435017
  58.6479987  85.8235006 157.0435017  64.5489987  87.7135006   1.4565017
  65.5059987  87.7135006   1.4565017  64.3089987  88.6405006   1.4565017
  65.0049987  91.8895006   7.8445017  65.9619987  91.8895006   7.8445017
  64.7649987  92.8165006   7.8445017  63.2219987  92.7155006   0.9935017
  64.1789987  92.7155006   0.9935017  62.9819987  93.6425006   0.9935017
  68.5439987  87.9225006   7.4795017  69.5009987  87.9225006   7.4795017
  68.3039987  88.8495006   7.4795017  70.8389987  88.9565006 157.1115017
  71.7959987  88.9565006 157.1115017  70.5989987  89.8835006 157.1115017
  71.3139987  92.4895006   9.9825017  72.2709987  92.4895006   9.9825017
  71.0739987  93.4165006   9.9825017  75.3139987  93.3335006 157.3535017
  76.2709987  93.3335006 157.3535017  75.0739987  94.2605006 157.3535017
  59.3559987  79.8305006   9.4715017  60.3129987  79.8305006   9.4715017
  59.1159987  80.7575006   9.4715017  71.6349987  87.5995006 159.3465017
  72.5919987  87.5995006 159.3465017  71.3949987  88.5265006 159.3465017
  59.0169987  91.5355006   7.7945017  59.9739987  91.5355006   7.7945017
  58.7769987  92.4625006   7.7945017  64.9589987  90.0415006 155.5915017
  65.9159987  90.0415006 155.5915017  64.7189987  90.9685006 155.5915017
  63.7789987  89.5725006 158.0475017  64.7359987  89.5725006 158.0475017
  63.5389987  90.4995006 158.0475017  60.2919987  86.8185006 158.5375017
  61.2489987  86.8185006 158.5375017  60.0519987  87.7455006 158.5375017
  68.8889987  79.0795006 159.9175017  69.8459987  79.0795006 159.9175017
  68.6489987  80.0065006 159.9175017  66.5649987  91.2435006 158.7665017
  67.5219987  91.2435006 158.7665017  66.3249987  92.1705006 158.7665017
  66.0859987  80.8625006   0.2145017  67.0429987  80.8625006   0.2145017
  65.8459987  81.7895006   0.2145017  66.7409987  81.8935006   9.3435017
  67.6979987  81.8935006   9.3435017  66.5009987  82.8205006   9.3435017
  63.9479987  92.2795006 158.7765017  64.9049987  92.2795006 158.7765017
  63.7079987  93.2065006 158.7765017  62.6119987  78.9945006 158.3665017
  63.5689987  78.9945006 158.3665017  62.3719987  79.9215006 158.3665017
  72.8699987  79.7645006  10.2405017  73.8269987  79.7645006  10.2405017
  72.6299987  80.6915006  10.2405017  71.4389987  83.5235006   4.2815017
  72.3959987  83.5235006   4.2815017  71.1989987  84.4505006   4.2815017
  60.8579987  89.4295006 157.4265017  61.8149987  89.4295006 157.4265017
  60.6179987  90.3565006 157.4265017  59.1959987  82.1095006 156.5395017
  60.1529987  82.1095006 156.5395017  58.9559987  83.0365006 156.5395017
  72.5079987  92.7635006   5.9485017  73.4649987  92.7635006   5.9485017
  72.2679987  93.6905006   5.9485017  60.0009987  76.9045006   4.7165017
  60.9579987  76.9045006   4.7165017  59.7609987  77.8315006   4.7165017
  58.9689987  90.8115006   0.8795017  59.9259987  90.8115006   0.8795017
  58.7289987  91.7385006   0.8795017  58.1799987  93.4665006  12.1765017
  59.1369987  93.4665006  12.1765017  57.9399987  94.3935006  12.1765017
  62.8359987  92.3715006  13.7955017  63.7929987  92.3715006  13.7955017
  62.5959987  93.2985006  13.7955017  66.9649987  91.8965006 155.7255017
  67.9219987  91.8965006 155.7255017  66.7249987  92.8235006 155.7255017
  69.3839987  90.7435006  12.5235017  70.3409987  90.7435006  12.5235017
  69.1439987  91.6705006  12.5235017  71.5359987  91.6545006 155.9245017
  72.4929987  91.6545006 155.9245017  71.2959987  92.5815006 155.9245017
  58.1079987  87.2505006  13.1615017  59.0649987  87.2505006  13.1615017
  57.8679987  88.1775006  13.1615017  62.4339987  87.5885006 155.7575017
  63.3909987  87.5885006 155.7575017  62.1939987  88.5155006 155.7575017
  64.8129987  87.2505006  12.5575017  65.7699987  87.2505006  12.5575017
  64.5729987  88.1775006  12.5575017  67.8509987  88.6815006 155.5185017
  68.8079987  88.6815006 155.5185017  67.6109987  89.6085006 155.5185017
  70.5039987  87.1025006   9.9805017  71.4609987  87.1025006   9.9805017
  70.2639987  88.0295006   9.9805017  58.9539987  84.4685006  12.5505017
  59.9109987  84.4685006  12.5505017  58.7139987  85.3955006  12.5505017
  63.6339987  85.5955006 158.1465017  64.5909987  85.5955006 158.1465017
  63.3939987  86.5225006 158.1465017  62.8869987  83.4325006   9.9225017
  63.8439987  83.4325006   9.9225017  62.6469987  84.3595006   9.9225017
  64.7019987  83.8185006 156.3655017  65.6589987  83.8185006 156.3655017
  64.4619987  84.7455006 156.3655017  67.9639987  85.9725006  13.2375017
  68.9209987  85.9725006  13.2375017  67.7239987  86.8995006  13.2375017
  74.0579987  86.1485006 155.7955017  75.0149987  86.1485006 155.7955017
  73.8179987  87.0755006 155.7955017  65.2599987  84.6255006   8.7465017
  66.2169987  84.6255006   8.7465017  65.0199987  85.5525006   8.7465017
  70.9929987  85.2455006  11.8975017  71.9499987  85.2455006  11.8975017
  70.7529987  86.1725006  11.8975017  64.5479987  94.5155006 157.4255017
  65.5049987  94.5155006 157.4255017  64.3079987  95.4425006 157.4255017
  58.0959987  89.1325006 156.8945017  59.0529987  89.1325006 156.8945017
  57.8559987  90.0595006 156.8945017  56.8649987  94.4955006   1.3365017
  57.8219987  94.4955006   1.3365017  56.6249987  95.4225006   1.3365017
  57.7009987  92.6215006   3.2015017  58.6579987  92.6215006   3.2015017
  57.4609987  93.5485006   3.2015017  75.2169987  93.4345006   6.1505017
  76.1739987  93.4345006   6.1505017  74.9769987  94.3615006   6.1505017
  74.8019987  93.0125006   9.0985017  75.7589987  93.0125006   9.0985017
  74.5619987  93.9395006   9.0985017  73.3479987  88.9995006  13.5705017
  74.3049987  88.9995006  13.5705017  73.1079987  89.9265006  13.5705017
  74.5579987  87.0555006 159.7455017  75.5149987  87.0555006 159.7455017
  74.3179987  87.9825006 159.7455017  74.9309987  85.1265006   1.0705017
  75.8879987  85.1265006   1.0705017  74.6909987  86.0535006   1.0705017
  74.6889987  87.8435006   6.0565017  75.6459987  87.8435006   6.0565017
  74.4489987  88.7705006   6.0565017  73.2269987  90.7255006   8.3365017
  74.1839987  90.7255006   8.3365017  72.9869987  91.6525006   8.3365017
  75.2299987  84.9635006 158.0105017  76.1869987  84.9635006 158.0105017
  74.9899987  85.8905006 158.0105017  73.5959987  82.2005006 156.5325017
  74.5529987  82.2005006 156.5325017  73.3559987  83.1275006 156.5325017
  72.7449987  83.6115006   1.6355017  73.7019987  83.6115006   1.6355017
  72.5049987  84.5385006   1.6355017  57.7499987  85.6935006   5.6885017
  58.7069987  85.6935006   5.6885017  57.5099987  86.6205006   5.6885017
  73.5809987  85.5985006  11.3825017  74.5379987  85.5985006  11.3825017
  73.3409987  86.5255006  11.3825017  75.0939987  83.4885006  11.9785017
  76.0509987  83.4885006  11.9785017  74.8539987  84.4155006  11.9785017
  72.8369987  79.6525006 155.6705017  73.7939987  79.6525006 155.6705017
  72.5969987  80.5795006 155.6705017  72.4149987  81.2095006 160.6095017
  73.3719987  81.2095006 160.6095017  72.1749987  82.1365006 160.6095017
  73.0579987  81.7505006   5.5335017  74.0149987  81.7505006   5.5335017
  72.8179987  82.6775006   5.5335017  73.1109987  82.4665006   8.3235017
  74.0679987  82.4665006   8.3235017  72.8709987  83.3935006   8.3235017
  57.3669987  80.9075006  11.7605017  58.3239987  80.9075006  11.7605017
  57.1269987  81.8345006  11.7605017  75.3639987  76.5015006  13.6735017
  76.3209987  76.5015006  13.6735017  75.1239987  77.4285006  13.6735017
  73.0909987  78.4825006   0.1475017  74.0479987  78.4825006   0.1475017
  72.8509987  79.4095006   0.1475017  58.5589987  79.2925006   4.6745017
  59.5159987  79.2925006   4.6745017  58.3189987  80.2195006   4.6745017
  56.8529987  82.2795006   5.7445017  57.8099987  82.2795006   5.7445017
  56.6129987  83.2065006   5.7445017  74.8999987  78.6055006  12.0205017
  75.8569987  78.6055006  12.0205017  74.6599987  79.5325006  12.0205017
  74.9059987  78.5285006 157.2365017  75.8629987  78.5285006 157.2365017
  74.6659987  79.4555006 157.2365017  57.2189987  78.5515006 160.3625017
  58.1759987  78.5515006 160.3625017  56.9789987  79.4785006 160.3625017
  71.9549987  93.5005006   1.7645017  72.9119987  93.5005006   1.7645017
  71.7149987  94.4275006   1.7645017  57.1839987  77.2405006   8.1605017
  58.1409987  77.2405006   8.1605017  56.9439987  78.1675006   8.1605017
  59.3939987  90.4075006  12.2795017  60.3509987  90.4075006  12.2795017
  59.1539987  91.3345006  12.2795017  62.3019987  91.4005006   8.5495017
  63.2589987  91.4005006   8.5495017  62.0619987  92.3275006   8.5495017
  66.6419987  92.7795006  11.4565017  67.5989987  92.7795006  11.4565017
  66.4019987  93.7065006  11.4565017  68.9399987  94.0895006  10.7495017
  69.8969987  94.0895006  10.7495017  68.6999987  95.0165006  10.7495017
  73.9349987  76.6965006   9.8305017  74.8919987  76.6965006   9.8305017
  73.6949987  77.6235006   9.8305017  59.7309987  94.6505006   8.5625017
  60.6879987  94.6505006   8.5625017  59.4909987  95.5775006   8.5625017
  62.1999987  94.2305006   7.6245017  63.1569987  94.2305006   7.6245017
  61.9599987  95.1575006   7.6245017  66.9109987  94.1375006   6.7765017
  67.8679987  94.1375006   6.7765017  66.6709987  95.0645006   6.7765017
  69.2119987  92.9705006   7.7905017  70.1689987  92.9705006   7.7905017
  68.9719987  93.8975006   7.7905017  71.8329987  94.5555006   8.0565017
  72.7899987  94.5555006   8.0565017  71.5929987  95.4825006   8.0565017
  59.1659987  93.2975006   5.4935017  60.1229987  93.2975006   5.4935017
  58.9259987  94.2245006   5.4935017  61.2609987  92.0095006   4.1455017
  62.2179987  92.0095006   4.1455017  61.0209987  92.9365006   4.1455017
  63.8499987  92.4915006   5.0165017  64.8069987  92.4915006   5.0165017
  63.6099987  93.4185006   5.0165017  72.4549987  76.2245006   4.2505017
  73.4119987  76.2245006   4.2505017  72.2149987  77.1515006   4.2505017
  74.1399987  77.4315006   2.5185017  75.0969987  77.4315006   2.5185017
  73.8999987  78.3585006   2.5185017  59.6749987  76.7835006   1.9635017
  60.6319987  76.7835006   1.9635017  59.4349987  77.7105006   1.9635017
  58.4709987  76.5295006 158.2885017  59.4279987  76.5295006 158.2885017
  58.2309987  77.4565006 158.2885017  64.2219987  76.6685006   1.8005017
  65.1789987  76.6685006   1.8005017  63.9819987  77.5955006   1.8005017
  71.1519987  76.7575006 159.6545017  72.1089987  76.7575006 159.6545017
  70.9119987  77.6845006 159.6545017  58.3589987  92.4795006 159.2845017
  59.3159987  92.4795006 159.2845017  58.1189987  93.4065006 159.2845017
  60.3029987  78.4715006 156.7745017  61.2599987  78.4715006 156.7745017
  60.0629987  79.3985006 156.7745017  65.3319987  78.7225006 159.1975017
  66.2889987  78.7225006 159.1975017  65.0919987  79.6495006 159.1975017
  67.2449987  93.7615006 157.6375017  68.2019987  93.7615006 157.6375017
  67.0049987  94.6885006 157.6375017  73.9579987  93.2875006 160.3395017
  74.9149987  93.2875006 160.3395017  73.7179987  94.2145006 160.3395017
  60.1829987  93.4395006 156.2445017  61.1399987  93.4395006 156.2445017
  59.9429987  94.3665006 156.2445017  73.1839987  92.0135006  11.9065017
  74.1409987  92.0135006  11.9065017  72.9439987  92.9405006  11.9065017
  87.6239987  85.9055006   1.8845017  88.5809987  85.9055006   1.8845017
  87.3839987  86.8325006   1.8845017  86.4959987  85.1735006   5.3705017
  87.4529987  85.1735006   5.3705017  86.2559987  86.1005006   5.3705017
  78.8519987  84.8265006   6.9225017  79.8089987  84.8265006   6.9225017
  78.6119987  85.7535006   6.9225017  90.1949987  88.1115006   3.6475017
  91.1519987  88.1115006   3.6475017  89.9549987  89.0385006   3.6475017
  79.7739987  89.2645006   5.4705017  80.7309987  89.2645006   5.4705017
  79.5339987  90.1915006   5.4705017  76.4229987  82.8545006   0.9035017
  77.3799987  82.8545006   0.9035017  76.1829987  83.7815006   0.9035017
  77.1189987  85.0705006   3.0365017  78.0759987  85.0705006   3.0365017
  76.8789987  85.9975006   3.0365017  87.3089987  93.2615006   3.8805017
  88.2659987  93.2615006   3.8805017  87.0689987  94.1885006   3.8805017
  84.8679987  87.5825006   5.8175017  85.8249987  87.5825006   5.8175017
  84.6279987  88.5095006   5.8175017  93.4919987  79.2125006   6.5795017
  94.4489987  79.2125006   6.5795017  93.2519987  80.1395006   6.5795017
  88.0369987  82.0325006   6.1375017  88.9939987  82.0325006   6.1375017
  87.7969987  82.9595006   6.1375017  81.1609987  80.1175006   3.3695017
  82.1179987  80.1175006   3.3695017  80.9209987  81.0445006   3.3695017
  88.8919987  80.2075006   1.7405017  89.8489987  80.2075006   1.7405017
  88.6519987  81.1345006   1.7405017  77.7829987  82.5255006   4.1075017
  78.7399987  82.5255006   4.1075017  77.5429987  83.4525006   4.1075017
  82.9459987  84.0835006   3.3955017  83.9029987  84.0835006   3.3955017
  82.7059987  85.0105006   3.3955017  93.9259987  80.6455006   8.8395017
  94.8829987  80.6455006   8.8395017  93.6859987  81.5725006   8.8395017
  80.0459987  79.0175006   7.4145017  81.0029987  79.0175006   7.4145017
  79.8059987  79.9445006   7.4145017  87.3619987  88.5035006   0.9595017
  88.3189987  88.5035006   0.9595017  87.1219987  89.4305006   0.9595017
  82.5659987  86.6695006   7.6365017  83.5229987  86.6695006   7.6365017
  82.3259987  87.5965006   7.6365017  90.6859987  79.5435006   3.7325017
  91.6429987  79.5435006   3.7325017  90.4459987  80.4705006   3.7325017
  79.6089987  80.8875006   5.4225017  80.5659987  80.8875006   5.4225017
  79.3689987  81.8145006   5.4225017  81.0139987  88.6555006   8.4775017
  81.9709987  88.6555006   8.4775017  80.7739987  89.5825006   8.4775017
  77.1019987  88.2915006 159.8145017  78.0589987  88.2915006 159.8145017
  76.8619987  89.2185006 159.8145017  90.7189987  89.9465006   6.0145017
  91.6759987  89.9465006   6.0145017  90.4789987  90.8735006   6.0145017
  91.0319987  78.2355006   7.4135017  91.9889987  78.2355006   7.4135017
  90.7919987  79.1625006   7.4135017  84.0139987  76.3475006   4.8715017
  84.9709987  76.3475006   4.8715017  83.7739987  77.2745006   4.8715017
  88.9719987  91.7315006   2.6195017  89.9289987  91.7315006   2.6195017
  88.7319987  92.6585006   2.6195017  90.1719987  89.6585006   1.1255017
  91.1289987  89.6585006   1.1255017  89.9319987  90.5855006   1.1255017
  91.8109987  88.2425006   9.6235017  92.7679987  88.2425006   9.6235017
  91.5709987  89.1695006   9.6235017  86.2989987  85.1485006 159.9365017
  87.2559987  85.1485006 159.9365017  86.0589987  86.0755006 159.9365017
  86.3609987  83.6865006 156.9455017  87.3179987  83.6865006 156.9455017
  86.1209987  84.6135006 156.9455017  93.6829987  84.5535006   7.6735017
  94.6399987  84.5535006   7.6735017  93.4429987  85.4805006   7.6735017
  89.7359987  85.3635006   0.3065017  90.6929987  85.3635006   0.3065017
  89.4959987  86.2905006   0.3065017  89.6649987  83.5245006   9.4155017
  90.6219987  83.5245006   9.4155017  89.4249987  84.4515006   9.4155017
  81.3529987  86.0205006   2.2205017  82.3099987  86.0205006   2.2205017
  81.1129987  86.9475006   2.2205017  82.6859987  89.4175006   4.9045017
  83.6429987  89.4175006   4.9045017  82.4459987  90.3445006   4.9045017
  81.6919987  84.7615006   5.8685017  82.6489987  84.7615006   5.8685017
  81.4519987  85.6885006   5.8685017  88.0839987  90.3255006   6.5825017
  89.0409987  90.3255006   6.5825017  87.8439987  91.2525006   6.5825017
  82.6769987  89.2665006  10.5015017  83.6339987  89.2665006  10.5015017
  82.4369987  90.1935006  10.5015017  88.5999987  84.5445006 158.5255017
  89.5569987  84.5445006 158.5255017  88.3599987  85.4715006 158.5255017
  79.5659987  85.3545006   9.7525017  80.5229987  85.3545006   9.7525017
  79.3259987  86.2815006   9.7525017  86.3349987  91.2715006   1.4435017
  87.2919987  91.2715006   1.4435017  86.0949987  92.1985006   1.4435017
  80.8809987  91.2575006  11.3215017  81.8379987  91.2575006  11.3215017
  80.6409987  92.1845006  11.3215017  92.3269987  76.2815006 158.3955017
  93.2839987  76.2815006 158.3955017  92.0869987  77.2085006 158.3955017
  80.3289987  85.0455006 160.3775017  81.2859987  85.0455006 160.3775017
  80.0889987  85.9725006 160.3775017  93.4509987  90.6385006 156.7615017
  94.4079987  90.6385006 156.7615017  93.2109987  91.5655006 156.7615017
  76.4269987  87.4585006   8.6895017  77.3839987  87.4585006   8.6895017
  76.1869987  88.3855006   8.6895017  76.1769987  90.2035006   5.5065017
  77.1339987  90.2035006   5.5065017  75.9369987  91.1305006   5.5065017
  94.4079987  90.9045006  11.1945017  95.3649987  90.9045006  11.1945017
  94.1679987  91.8315006  11.1945017  85.3399987  90.4965006  10.0025017
  86.2969987  90.4965006  10.0025017  85.0999987  91.4235006  10.0025017
  85.8579987  94.1935006 160.4055017  86.8149987  94.1935006 160.4055017
  85.6179987  95.1205006 160.4055017  79.4089987  93.0785006   1.6835017
  80.3659987  93.0785006   1.6835017  79.1689987  94.0055006   1.6835017
  88.8689987  93.4025006 157.3895017  89.8259987  93.4025006 157.3895017
  88.6289987  94.3295006 157.3895017  88.5599987  93.3265006 160.1575017
  89.5169987  93.3265006 160.1575017  88.3199987  94.2535006 160.1575017
  91.5639987  82.3695006  11.6685017  92.5209987  82.3695006  11.6685017
  91.3239987  83.2965006  11.6685017  78.6879987  88.7835006   9.6695017
  79.6449987  88.7835006   9.6695017  78.4479987  89.7105006   9.6695017
  81.3619987  77.2435006   5.6335017  82.3189987  77.2435006   5.6335017
  81.1219987  78.1705006   5.6335017  86.0079987  76.9345006   8.9985017
  86.9649987  76.9345006   8.9985017  85.7679987  77.8615006   8.9985017
  89.3099987  80.7485006   9.8835017  90.2669987  80.7485006   9.8835017
  89.0699987  81.6755006   9.8835017  90.0549987  85.5835006 156.2765017
  91.0119987  85.5835006 156.2765017  89.8149987  86.5105006 156.2765017
  85.6649987  79.5405006 156.8405017  86.6219987  79.5405006 156.8405017
  85.4249987  80.4675006 156.8405017  81.4569987  82.2095006   6.8345017
  82.4139987  82.2095006   6.8345017  81.2169987  83.1365006   6.8345017
  81.4269987  82.3735006   1.7205017  82.3839987  82.3735006   1.7205017
  81.1869987  83.3005006   1.7205017  86.9499987  82.8435006   0.5155017
  87.9069987  82.8435006   0.5155017  86.7099987  83.7705006   0.5155017
  86.0459987  83.0205006  11.9305017  87.0029987  83.0205006  11.9305017
  85.8059987  83.9475006  11.9305017  87.9769987  82.3235006   3.3455017
  88.9339987  82.3235006   3.3455017  87.7369987  83.2505006   3.3455017
  79.0979987  82.4965006   8.5675017  80.0549987  82.4965006   8.5675017
  78.8579987  83.4235006   8.5675017  82.4989987  79.8305006 155.9675017
  83.4559987  79.8305006 155.9675017  82.2589987  80.7575006 155.9675017
  75.7609987  79.6245006   2.5155017  76.7179987  79.6245006   2.5155017
  75.5209987  80.5515006   2.5155017  77.0269987  80.3225006 158.4385017
  77.9839987  80.3225006 158.4385017  76.7869987  81.2495006 158.4385017
  87.2019987  83.9265006   7.9365017  88.1589987  83.9265006   7.9365017
  86.9619987  84.8535006   7.9365017  83.9899987  79.8845006   2.7455017
  84.9469987  79.8845006   2.7455017  83.7499987  80.8115006   2.7455017
  78.8079987  81.4565006   1.6065017  79.7649987  81.4565006   1.6065017
  78.5679987  82.3835006   1.6065017  82.4619987  81.4585006 159.7525017
  83.4189987  81.4585006 159.7525017  82.2219987  82.3855006 159.7525017
  88.3969987  79.1205006   5.9945017  89.3539987  79.1205006   5.9945017
  88.1569987  80.0475006   5.9945017  81.1579987  82.6415006 157.3725017
  82.1149987  82.6415006 157.3725017  80.9179987  83.5685006 157.3725017
  91.6539987  94.7495006  12.2905017  92.6109987  94.7495006  12.2905017
  91.4139987  95.6765006  12.2905017  79.2869987  87.2465006  11.8855017
  80.2439987  87.2465006  11.8855017  79.0469987  88.1735006  11.8855017
  85.2789987  82.6495006   4.6405017  86.2359987  82.6495006   4.6405017
  85.0389987  83.5765006   4.6405017  80.2889987  78.7955006   1.0645017
  81.2459987  78.7955006   1.0645017  80.0489987  79.7225006   1.0645017
  83.9169987  80.9855006   7.0435017  84.8739987  80.9855006   7.0435017
  83.6769987  81.9125006   7.0435017  84.5039987  87.2155006 159.2885017
  85.4609987  87.2155006 159.2885017  84.2639987  88.1425006 159.2885017
  91.6669987  86.3905006   7.5515017  92.6239987  86.3905006   7.5515017
  91.4269987  87.3175006   7.5515017  88.3299987  80.0205006 157.4825017
  89.2869987  80.0205006 157.4825017  88.0899987  80.9475006 157.4825017
  85.9989987  87.4975006   9.8665017  86.9559987  87.4975006   9.8665017
  85.7589987  88.4245006   9.8665017  89.0739987  81.9275006 159.1105017
  90.0309987  81.9275006 159.1105017  88.8339987  82.8545006 159.1105017
  79.6059987  86.5825006   4.5435017  80.5629987  86.5825006   4.5435017
  79.3659987  87.5095006   4.5435017  86.6099987  88.6775006 158.3185017
  87.5669987  88.6775006 158.3185017  86.3699987  89.6045006 158.3185017
  76.5949987  85.0085006   9.8155017  77.5519987  85.0085006   9.8155017
  76.3549987  85.9355006   9.8155017  83.4719987  84.2575006  12.0485017
  84.4289987  84.2575006  12.0485017  83.2319987  85.1845006  12.0485017
  88.2699987  89.9195006   9.8765017  89.2269987  89.9195006   9.8765017
  88.0299987  90.8465006   9.8765017  93.9789987  82.0805006 158.8665017
  94.9359987  82.0805006 158.8665017  93.7389987  83.0075006 158.8665017
  93.9529987  87.9415006  11.1465017  94.9099987  87.9415006  11.1465017
  93.7129987  88.8685006  11.1465017  92.2449987  90.9165006 159.2835017
  93.2019987  90.9165006 159.2835017  92.0049987  91.8435006 159.2835017
  89.4589987  85.7255006   5.8245017  90.4159987  85.7255006   5.8245017
  89.2189987  86.6525006   5.8245017  81.9839987  89.9555006   1.9155017
  82.9409987  89.9555006   1.9155017  81.7439987  90.8825006   1.9155017
  77.7429987  84.8955006 157.0435017  78.6999987  84.8955006 157.0435017
  77.5029987  85.8225006 157.0435017  83.4099987  87.7175006   1.4625017
  84.3669987  87.7175006   1.4625017  83.1699987  88.6445006   1.4625017
  83.8509987  91.9315006   7.9045017  84.8079987  91.9315006   7.9045017
  83.6109987  92.8585006   7.9045017  82.0569987  92.4735006   1.6005017
  83.0139987  92.4735006   1.6005017  81.8169987  93.4005006   1.6005017
  87.4079987  87.9265006   7.4685017  88.3649987  87.9265006   7.4685017
  87.1679987  88.8535006   7.4685017  89.6959987  88.9565006 157.1115017
  90.6529987  88.9565006 157.1115017  89.4559987  89.8835006 157.1115017
  90.1669987  92.4905006   9.9785017  91.1239987  92.4905006   9.9785017
  89.9269987  93.4175006   9.9785017  94.1709987  93.3335006 157.3545017
  95.1279987  93.3335006 157.3545017  93.9309987  94.2605006 157.3545017
  78.2529987  79.7415006   9.3635017  79.2099987  79.7415006   9.3635017
  78.0129987  80.6685006   9.3635017  90.4909987  87.5995006 159.3465017
  91.4479987  87.5995006 159.3465017  90.2509987  88.5265006 159.3465017
  77.8749987  91.5315006   7.7945017  78.8319987  91.5315006   7.7945017
  77.6349987  92.4585006   7.7945017  83.8139987  90.0405006 155.5905017
  84.7709987  90.0405006 155.5905017  83.5739987  90.9675006 155.5905017
  82.6349987  89.5525006 158.0425017  83.5919987  89.5525006 158.0425017
  82.3949987  90.4795006 158.0425017  79.1469987  86.8195006 158.5375017
  80.1039987  86.8195006 158.5375017  78.9069987  87.7465006 158.5375017
  86.9779987  79.5065006   8.3015017  87.9349987  79.5065006   8.3015017
  86.7379987  80.4335006   8.3015017  87.7159987  79.0995006 159.9355017
  88.6729987  79.0995006 159.9355017  87.4759987  80.0265006 159.9355017
  85.4349987  91.2345006 158.7635017  86.3919987  91.2345006 158.7635017
  85.1949987  92.1615006 158.7635017  84.9599987  80.8705006   0.2295017
  85.9169987  80.8705006   0.2295017  84.7199987  81.7975006   0.2295017
  85.5119987  81.8505006   9.4045017  86.4689987  81.8505006   9.4045017
  85.2719987  82.7775006   9.4045017  85.8049987  77.9035006   1.0975017
  86.7619987  77.9035006   1.0975017  85.5649987  78.8305006   1.0975017
  82.8859987  92.1445006 158.6645017  83.8429987  92.1445006 158.6645017
  82.6459987  93.0715006 158.6645017  81.4989987  78.9995006 158.3415017
  82.4559987  78.9995006 158.3415017  81.2589987  79.9265006 158.3415017
  91.6999987  79.7265006  10.2545017  92.6569987  79.7265006  10.2545017
  91.4599987  80.6535006  10.2545017  90.2999987  83.5165006   4.2865017
  91.2569987  83.5165006   4.2865017  90.0599987  84.4435006   4.2865017
  79.7169987  89.4465006 157.4325017  80.6739987  89.4465006 157.4325017
  79.4769987  90.3735006 157.4325017  78.0519987  82.1065006 156.5485017
  79.0089987  82.1065006 156.5485017  77.8119987  83.0335006 156.5485017
  91.3629987  92.7825006   5.9525017  92.3199987  92.7825006   5.9525017
  91.1229987  93.7095006   5.9525017  78.8659987  76.8935006   4.7315017
  79.8229987  76.8935006   4.7315017  78.6259987  77.8205006   4.7315017
  77.8069987  90.7995006   0.8685017  78.7639987  90.7995006   0.8685017
  77.5669987  91.7265006   0.8685017  77.0409987  93.4815006  12.1725017
  77.9979987  93.4815006  12.1725017  76.8009987  94.4085006  12.1725017
  81.7169987  92.3975006  13.7765017  82.6739987  92.3975006  13.7765017
  81.4769987  93.3245006  13.7765017  85.8199987  91.8965006 155.7245017
  86.7769987  91.8965006 155.7245017  85.5799987  92.8235006 155.7245017
  88.4319987  90.2755006  12.3765017  89.3889987  90.2755006  12.3765017
  88.1919987  91.2025006  12.3765017  90.3919987  91.6545006 155.9245017
  91.3489987  91.6545006 155.9245017  90.1519987  92.5815006 155.9245017
  76.9249987  87.2375006  13.1855017  77.8819987  87.2375006  13.1855017
  76.6849987  88.1645006  13.1855017  81.2879987  87.5885006 155.7595017
  82.2449987  87.5885006 155.7595017  81.0479987  88.5155006 155.7595017
  82.8489987  87.3555006  12.3605017  83.8059987  87.3555006  12.3605017
  82.6089987  88.2825006  12.3605017  86.7069987  88.6815006 155.5185017
  87.6639987  88.6815006 155.5185017  86.4669987  89.6085006 155.5185017
  89.3689987  87.0945006   9.9245017  90.3259987  87.0945006   9.9245017
  89.1289987  88.0215006   9.9245017  77.8239987  84.4595006  12.5495017
  78.7809987  84.4595006  12.5495017  77.5839987  85.3865006  12.5495017
  82.4859987  85.5965006 158.1435017  83.4429987  85.5965006 158.1435017
  82.2459987  86.5235006 158.1435017  81.7289987  83.4065006   9.8935017
  82.6859987  83.4065006   9.8935017  81.4889987  84.3335006   9.8935017
  83.5569987  83.8195006 156.3655017  84.5139987  83.8195006 156.3655017
  83.3169987  84.7465006 156.3655017  87.5659987  85.7445006  13.9295017
  88.5229987  85.7445006  13.9295017  87.3259987  86.6715006  13.9295017
  92.9139987  86.1485006 155.7955017  93.8709987  86.1485006 155.7955017
  92.6739987  87.0755006 155.7955017  82.1509987  80.7925006  10.9755017
  83.1079987  80.7925006  10.9755017  81.9109987  81.7195006  10.9755017
  82.5549987  79.1735006   8.5175017  83.5119987  79.1735006   8.5175017
  82.3149987  80.1005006   8.5175017  84.0909987  84.6275006   8.7455017
  85.0479987  84.6275006   8.7455017  83.8509987  85.5545006   8.7455017
  88.5079987  82.4025006  13.7405017  89.4649987  82.4025006  13.7405017
  88.2679987  83.3295006  13.7405017  89.8389987  85.1995006  11.8675017
  90.7959987  85.1995006  11.8675017  89.5989987  86.1265006  11.8675017
  80.6089987  82.0235006  12.9085017  81.5659987  82.0235006  12.9085017
  80.3689987  82.9505006  12.9085017  83.3509987  76.6135006   8.9205017
  84.3079987  76.6135006   8.9205017  83.1109987  77.5405006   8.9205017
  84.6279987  80.9045006  12.5205017  85.5849987  80.9045006  12.5205017
  84.3879987  81.8315006  12.5205017  87.3389987  80.0715006  11.5965017
  88.2959987  80.0715006  11.5965017  87.0989987  80.9985006  11.5965017
  88.9349987  78.7075006  13.5405017  89.8919987  78.7075006  13.5405017
  88.6949987  79.6345006  13.5405017  78.7159987  79.9685006  12.6195017
  79.6729987  79.9685006  12.6195017  78.4759987  80.8955006  12.6195017
  83.5599987  75.9795006  11.6145017  84.5169987  75.9795006  11.6145017
  83.3199987  76.9065006  11.6145017  83.9269987  77.6145006  13.7055017
  84.8839987  77.6145006  13.7055017  83.6869987  78.5415006  13.7055017
  83.4409987  94.4815006 157.3415017  84.3979987  94.4815006 157.3415017
  83.2009987  95.4085006 157.3415017  76.9679987  89.1165006 156.8965017
  77.9249987  89.1165006 156.8965017  76.7279987  90.0435006 156.8965017
  75.7219987  94.4995006   1.3425017  76.6789987  94.4995006   1.3425017
  75.4819987  95.4265006   1.3425017  76.5519987  92.6125006   3.1875017
  77.5089987  92.6125006   3.1875017  76.3119987  93.5395006   3.1875017
  94.0679987  93.4615006   6.1485017  95.0249987  93.4615006   6.1485017
  93.8279987  94.3885006   6.1485017  93.6769987  93.0175006   9.0745017
  94.6339987  93.0175006   9.0745017  93.4369987  93.9445006   9.0745017
  92.1279987  88.7325006  13.7635017  93.0849987  88.7325006  13.7635017
  91.8879987  89.6595006  13.7635017  93.4139987  87.0555006 159.7455017
  94.3709987  87.0555006 159.7455017  93.1739987  87.9825006 159.7455017
  93.7889987  85.1255006   1.0715017  94.7459987  85.1255006   1.0715017
  93.5489987  86.0525006   1.0715017  93.5429987  87.8405006   6.0515017
  94.4999987  87.8405006   6.0515017  93.3029987  88.7675006   6.0515017
  92.0849987  90.7445006   8.3385017  93.0419987  90.7445006   8.3385017
  91.8449987  91.6715006   8.3385017  94.0859987  84.9625006 158.0105017
  95.0429987  84.9625006 158.0105017  93.8459987  85.8895006 158.0105017
  92.4529987  82.2005006 156.5335017  93.4099987  82.2005006 156.5335017
  92.2129987  83.1275006 156.5335017  91.6009987  83.6115006   1.6345017
  92.5579987  83.6115006   1.6345017  91.3609987  84.5385006   1.6345017
  76.6059987  85.6935006   5.6895017  77.5629987  85.6935006   5.6895017
  76.3659987  86.6205006   5.6895017  92.4519987  85.5835006  11.3115017
  93.4089987  85.5835006  11.3115017  92.2119987  86.5105006  11.3115017
  93.9619987  83.4725006  11.9785017  94.9189987  83.4725006  11.9785017
  93.7219987  84.3995006  11.9785017  91.6929987  79.6565006 155.6645017
  92.6499987  79.6565006 155.6645017  91.4529987  80.5835006 155.6645017
  91.2609987  81.1935006 160.6145017  92.2179987  81.1935006 160.6145017
  91.0209987  82.1205006 160.6145017  91.9049987  81.7405006   5.5385017
  92.8619987  81.7405006   5.5385017  91.6649987  82.6675006   5.5385017
  91.9739987  82.4665006   8.3265017  92.9309987  82.4665006   8.3265017
  91.7339987  83.3935006   8.3265017  76.2169987  80.9785006  11.8305017
  77.1739987  80.9785006  11.8305017  75.9769987  81.9055006  11.8305017
  94.2369987  76.5075006  13.6745017  95.1939987  76.5075006  13.6745017
  93.9969987  77.4345006  13.6745017  91.9349987  78.4775006   0.1465017
  92.8919987  78.4775006   0.1465017  91.6949987  79.4045006   0.1465017
  77.4339987  79.2835006   4.6835017  78.3909987  79.2835006   4.6835017
  77.1939987  80.2105006   4.6835017  75.7119987  82.2745006   5.7485017
  76.6689987  82.2745006   5.7485017  75.4719987  83.2015006   5.7485017
  93.7669987  78.6145006  12.0265017  94.7239987  78.6145006  12.0265017
  93.5269987  79.5415006  12.0265017  93.7589987  78.5155006 157.2415017
  94.7159987  78.5155006 157.2415017  93.5189987  79.4425006 157.2415017
  76.0789987  78.5485006 160.3605017  77.0359987  78.5485006 160.3605017
  75.8389987  79.4755006 160.3605017  90.8119987  93.4955006   1.7625017
  91.7689987  93.4955006   1.7625017  90.5719987  94.4225006   1.7625017
  76.0399987  77.2345006   8.1225017  76.9969987  77.2345006   8.1225017
  75.7999987  78.1615006   8.1225017  78.2399987  90.4215006  12.2765017
  79.1969987  90.4215006  12.2765017  77.9999987  91.3485006  12.2765017
  81.1519987  91.4095006   8.5595017  82.1089987  91.4095006   8.5595017
  80.9119987  92.3365006   8.5595017  85.4889987  92.7565006  11.5165017
  86.4459987  92.7565006  11.5165017  85.2489987  93.6835006  11.5165017
  87.7769987  94.2575006  10.5285017  88.7339987  94.2575006  10.5285017
  87.5369987  95.1845006  10.5285017  92.7799987  76.7105006   9.8625017
  93.7369987  76.7105006   9.8625017  92.5399987  77.6375006   9.8625017
  78.5859987  94.6815006   8.5735017  79.5429987  94.6815006   8.5735017
  78.3459987  95.6085006   8.5735017  81.0589987  94.2515006   7.6335017
  82.0159987  94.2515006   7.6335017  80.8189987  95.1785006   7.6335017
  85.6939987  94.1345006   6.8665017  86.6509987  94.1345006   6.8665017
  85.4539987  95.0615006   6.8665017  88.0509987  92.9845006   7.8105017
  89.0079987  92.9845006   7.8105017  87.8109987  93.9115006   7.8105017
  90.6739987  94.5455006   8.0335017  91.6309987  94.5455006   8.0335017
  90.4339987  95.4725006   8.0335017  78.0099987  93.2995006   5.5025017
  78.9669987  93.2995006   5.5025017  77.7699987  94.2265006   5.5025017
  80.0889987  92.0055006   4.1875017  81.0459987  92.0055006   4.1875017
  79.8489987  92.9325006   4.1875017  82.7109987  92.4915006   5.0395017
  83.6679987  92.4915006   5.0395017  82.4709987  93.4185006   5.0395017
  86.1789987  78.1405006   4.1615017  87.1359987  78.1405006   4.1615017
  85.9389987  79.0675006   4.1615017  91.3139987  76.1975006   4.2495017
  92.2709987  76.1975006   4.2495017  91.0739987  77.1245006   4.2495017
  92.9909987  77.4215006   2.5305017  93.9479987  77.4215006   2.5305017
  92.7509987  78.3485006   2.5305017  78.5359987  76.7695006   2.0015017
  79.4929987  76.7695006   2.0015017  78.2959987  77.6965006   2.0015017
  77.3529987  76.5465006 158.3005017  78.3099987  76.5465006 158.3005017
  77.1129987  77.4735006 158.3005017  83.0459987  76.6965006   1.7705017
  84.0029987  76.6965006   1.7705017  82.8059987  77.6235006   1.7705017
  88.6989987  76.7195006   3.4255017  89.6559987  76.7195006   3.4255017
  88.4589987  77.6465006   3.4255017  90.0099987  76.7455006 159.6555017
  90.9669987  76.7455006 159.6555017  89.7699987  77.6725006 159.6555017
  77.2199987  92.4705006 159.2795017  78.1769987  92.4705006 159.2795017
  76.9799987  93.3975006 159.2795017  79.1659987  78.4715006 156.7715017
  80.1229987  78.4715006 156.7715017  78.9259987  79.3985006 156.7715017
  84.1779987  78.8265006 159.4495017  85.1349987  78.8265006 159.4495017
  83.9379987  79.7535006 159.4495017  86.1029987  93.7505006 157.6525017
  87.0599987  93.7505006 157.6525017  85.8629987  94.6775006 157.6525017
  92.8179987  93.2885006 160.3395017  93.7749987  93.2885006 160.3395017
  92.5779987  94.2155006 160.3395017  78.4379987  77.3065006  11.4615017
  79.3949987  77.3065006  11.4615017  78.1979987  78.2335006  11.4615017
  80.4429987  76.6765006  13.0715017  81.3999987  76.6765006  13.0715017
  80.2029987  77.6035006  13.0715017  79.0189987  93.4395006 156.2345017
  79.9759987  93.4395006 156.2345017  78.7789987  94.3665006 156.2345017
  88.8419987  75.9875006  13.2425017  89.7989987  75.9875006  13.2425017
  88.6019987  76.9145006  13.2425017  92.0669987  92.0285006  11.8715017
  93.0239987  92.0285006  11.8715017  91.8269987  92.9555006  11.8715017
 106.4699987  85.8755006   1.8535017 107.4269987  85.8755006   1.8535017
 106.2299987  86.8025006   1.8535017 105.2789987  85.1885006   5.3785017
 106.2359987  85.1885006   5.3785017 105.0389987  86.1155006   5.3785017
  97.7079987  84.8265006   6.9225017  98.6649987  84.8265006   6.9225017
  97.4679987  85.7535006   6.9225017  98.6519987  89.2925006   5.4035017
  99.6089987  89.2925006   5.4035017  98.4119987  90.2195006   5.4035017
  95.2819987  82.8565006   0.9015017  96.2389987  82.8565006   0.9015017
  95.0419987  83.7835006   0.9015017  95.9759987  85.0705006   3.0375017
  96.9329987  85.0705006   3.0375017  95.7359987  85.9975006   3.0375017
 106.1609987  93.2115006   3.8535017 107.1179987  93.2115006   3.8535017
 105.9209987  94.1385006   3.8535017 103.7019987  87.5915006   5.7805017
 104.6589987  87.5915006   5.7805017 103.4619987  88.5185006   5.7805017
 106.2229987  81.7935006   6.0965017 107.1799987  81.7935006   6.0965017
 105.9829987  82.7205006   6.0965017 100.0169987  80.1185006   3.3705017
 100.9739987  80.1185006   3.3705017  99.7769987  81.0455006   3.3705017
 107.7189987  80.7005006   1.3395017 108.6759987  80.7005006   1.3395017
 107.4789987  81.6275006   1.3395017  96.6389987  82.5265006   4.1085017
  97.5959987  82.5265006   4.1085017  96.3989987  83.4535006   4.1085017
 101.7909987  84.0875006   3.3915017 102.7479987  84.0875006   3.3915017
 101.5509987  85.0145006   3.3915017  98.9029987  79.0175006   7.4145017
  99.8599987  79.0175006   7.4145017  98.6629987  79.9445006   7.4145017
 106.1999987  88.5075006   0.9765017 107.1569987  88.5075006   0.9765017
 105.9599987  89.4345006   0.9765017 101.4349987  86.6635006   7.6705017
 102.3919987  86.6635006   7.6705017 101.1949987  87.5905006   7.6705017
  98.4629987  80.8855006   5.4215017  99.4199987  80.8855006   5.4215017
  98.2229987  81.8125006   5.4215017  99.8689987  88.6545006   8.4805017
 100.8259987  88.6545006   8.4805017  99.6289987  89.5815006   8.4805017
  95.9549987  88.2935006 159.8175017  96.9119987  88.2935006 159.8175017
  95.7149987  89.2205006 159.8175017 102.8779987  76.3485006   4.8805017
 103.8349987  76.3485006   4.8805017 102.6379987  77.2755006   4.8805017
 107.4899987  91.5555006   2.2075017 108.4469987  91.5555006   2.2075017
 107.2499987  92.4825006   2.2075017 105.1289987  85.1425006 159.9155017
 106.0859987  85.1425006 159.9155017 104.8889987  86.0695006 159.9155017
 105.1939987  83.6745006 156.9385017 106.1509987  83.6745006 156.9385017
 104.9539987  84.6015006 156.9385017 100.2189987  86.0345006   2.2205017
 101.1759987  86.0345006   2.2205017  99.9789987  86.9615006   2.2205017
 101.5509987  89.4015006   4.8935017 102.5079987  89.4015006   4.8935017
 101.3109987  90.3285006   4.8935017 100.5479987  84.7615006   5.8715017
 101.5049987  84.7615006   5.8715017 100.3079987  85.6885006   5.8715017
 106.5369987  90.3465006   6.6235017 107.4939987  90.3465006   6.6235017
 106.2969987  91.2735006   6.6235017 101.4859987  89.1855006  10.5735017
 102.4429987  89.1855006  10.5735017 101.2459987  90.1125006  10.5735017
 107.4589987  84.5305006 158.5425017 108.4159987  84.5305006 158.5425017
 107.2189987  85.4575006 158.5425017  98.4209987  85.3525006   9.7525017
  99.3779987  85.3525006   9.7525017  98.1809987  86.2795006   9.7525017
 105.0249987  91.2605006   1.4855017 105.9819987  91.2605006   1.4855017
 104.7849987  92.1875006   1.4855017  99.7259987  91.2365006  11.3295017
 100.6829987  91.2365006  11.3295017  99.4859987  92.1635006  11.3295017
  99.1839987  85.0445006 160.3795017 100.1409987  85.0445006 160.3795017
  98.9439987  85.9715006 160.3795017  95.2749987  87.4645006   8.7025017
  96.2319987  87.4645006   8.7025017  95.0349987  88.3915006   8.7025017
  95.0349987  90.1965006   5.5085017  95.9919987  90.1965006   5.5085017
  94.7949987  91.1235006   5.5085017 104.2409987  90.4475006  10.0785017
 105.1979987  90.4475006  10.0785017 104.0009987  91.3745006  10.0785017
 104.6419987  94.1915006 160.4125017 105.5989987  94.1915006 160.4125017
 104.4019987  95.1185006 160.4125017  98.3199987  93.0425006   1.6625017
  99.2769987  93.0425006   1.6625017  98.0799987  93.9695006   1.6625017
 107.7399987  93.3825006 157.3685017 108.6969987  93.3825006 157.3685017
 107.4999987  94.3095006 157.3685017 107.2459987  93.1605006 160.0075017
 108.2029987  93.1605006 160.0075017 107.0059987  94.0875006 160.0075017
  97.5479987  88.7835006   9.6685017  98.5049987  88.7835006   9.6685017
  97.3079987  89.7105006   9.6685017 100.2189987  77.2435006   5.6345017
 101.1759987  77.2435006   5.6345017  99.9789987  78.1705006   5.6345017
 104.8999987  76.9195006   9.0105017 105.8569987  76.9195006   9.0105017
 104.6599987  77.8465006   9.0105017 104.5259987  79.4905006 156.8595017
 105.4829987  79.4905006 156.8595017 104.2859987  80.4175006 156.8595017
 100.3059987  82.2105006   6.8425017 101.2629987  82.2105006   6.8425017
 100.0659987  83.1375006   6.8425017 100.2819987  82.3735006   1.7225017
 101.2389987  82.3735006   1.7225017 100.0419987  83.3005006   1.7225017
 105.7879987  82.8485006   0.5135017 106.7449987  82.8485006   0.5135017
 105.5479987  83.7755006   0.5135017 104.8979987  83.0755006  11.9875017
 105.8549987  83.0755006  11.9875017 104.6579987  84.0025006  11.9875017
 106.7849987  82.3055006   3.3385017 107.7419987  82.3055006   3.3385017
 106.5449987  83.2325006   3.3385017  97.9659987  82.4975006   8.5745017
  98.9229987  82.4975006   8.5745017  97.7259987  83.4245006   8.5745017
 101.3479987  79.8825006 155.9555017 102.3049987  79.8825006 155.9555017
 101.1079987  80.8095006 155.9555017  94.6089987  79.6095006   2.5195017
  95.5659987  79.6095006   2.5195017  94.3689987  80.5365006   2.5195017
  95.8829987  80.3225006 158.4375017  96.8399987  80.3225006 158.4375017
  95.6429987  81.2495006 158.4375017 106.0439987  83.9245006   7.9495017
 107.0009987  83.9245006   7.9495017 105.8039987  84.8515006   7.9495017
 102.8459987  79.8765006   2.7415017 103.8029987  79.8765006   2.7415017
 102.6059987  80.8035006   2.7415017  97.6619987  81.4585006   1.6085017
  98.6189987  81.4585006   1.6085017  97.4219987  82.3855006   1.6085017
 101.3079987  81.4845006 159.7775017 102.2649987  81.4845006 159.7775017
 101.0679987  82.4115006 159.7775017 107.2399987  79.0745006   6.0455017
 108.1969987  79.0745006   6.0455017 106.9999987  80.0015006   6.0455017
 100.0029987  82.6725006 157.3705017 100.9599987  82.6725006 157.3705017
  99.7629987  83.5995006 157.3705017  98.1369987  87.2375006  11.8805017
  99.0939987  87.2375006  11.8805017  97.8969987  88.1645006  11.8805017
 104.0949987  82.6435006   4.5965017 105.0519987  82.6435006   4.5965017
 103.8549987  83.5705006   4.5965017  99.1449987  78.7965006   1.0745017
 100.1019987  78.7965006   1.0745017  98.9049987  79.7235006   1.0745017
 102.7579987  80.9875006   7.0535017 103.7149987  80.9875006   7.0535017
 102.5179987  81.9145006   7.0535017 103.3669987  87.2125006 159.2775017
 104.3239987  87.2125006 159.2775017 103.1269987  88.1395006 159.2775017
 107.1549987  80.0495006 157.4755017 108.1119987  80.0495006 157.4755017
 106.9149987  80.9765006 157.4755017 104.8399987  87.4345006   9.9805017
 105.7969987  87.4345006   9.9805017 104.5999987  88.3615006   9.9805017
   0.1189987  82.0345006 159.1755017   1.0759987  82.0345006 159.1755017
  -0.1210013  82.9615006 159.1755017  98.4739987  86.5955006   4.5465017
  99.4309987  86.5955006   4.5465017  98.2339987  87.5225006   4.5465017
 105.4529987  88.6705006 158.3095017 106.4099987  88.6705006 158.3095017
 105.2129987  89.5975006 158.3095017  95.4549987  85.0055006   9.8155017
  96.4119987  85.0055006   9.8155017  95.2149987  85.9325006   9.8155017
 102.4729987  84.5555006  12.0065017 103.4299987  84.5555006  12.0065017
 102.2329987  85.4825006  12.0065017 107.1539987  89.9305006   9.9155017
 108.1109987  89.9305006   9.9155017 106.9139987  90.8575006   9.9155017
 100.7069987  89.8555006   1.4285017 101.6639987  89.8555006   1.4285017
 100.4669987  90.7825006   1.4285017  96.5989987  84.8955006 157.0435017
  97.5559987  84.8955006 157.0435017  96.3589987  85.8225006 157.0435017
 102.2929987  87.7115006   1.5135017 103.2499987  87.7115006   1.5135017
 102.0529987  88.6385006   1.5135017 102.7079987  91.8845006   7.8225017
 103.6649987  91.8845006   7.8225017 102.4679987  92.8115006   7.8225017
 100.9399987  92.6925006   1.0895017 101.8969987  92.6925006   1.0895017
 100.6999987  93.6195006   1.0895017 106.2729987  87.8985006   7.5035017
 107.2299987  87.8985006   7.5035017 106.0329987  88.8255006   7.5035017
  97.1119987  79.7375006   9.3625017  98.0689987  79.7375006   9.3625017
  96.8719987  80.6645006   9.3625017  96.7419987  91.5475006   7.7805017
  97.6989987  91.5475006   7.7805017  96.5019987  92.4745006   7.7805017
 102.6629987  90.0485006 155.5825017 103.6199987  90.0485006 155.5825017
 102.4229987  90.9755006 155.5825017 101.4909987  89.5735006 158.0515017
 102.4479987  89.5735006 158.0515017 101.2509987  90.5005006 158.0515017
  98.0019987  86.8175006 158.5375017  98.9589987  86.8175006 158.5375017
  97.7619987  87.7445006 158.5375017 105.8509987  79.4935006   8.3125017
 106.8079987  79.4935006   8.3125017 105.6109987  80.4205006   8.3125017
 106.3259987  79.3145006 159.9165017 107.2829987  79.3145006 159.9165017
 106.0859987  80.2415006 159.9165017 104.2829987  91.2475006 158.7945017
 105.2399987  91.2475006 158.7945017 104.0429987  92.1745006 158.7945017
 103.7909987  80.8675006   0.2165017 104.7479987  80.8675006   0.2165017
 103.5509987  81.7945006   0.2165017 104.3359987  81.8145006   9.4205017
 105.2929987  81.8145006   9.4205017 104.0959987  82.7415006   9.4205017
 104.6989987  77.9025006   1.1295017 105.6559987  77.9025006   1.1295017
 104.4589987  78.8295006   1.1295017 101.6399987  92.2725006 158.7955017
 102.5969987  92.2725006 158.7955017 101.3999987  93.1995006 158.7955017
 100.3269987  78.9935006 158.3665017 101.2839987  78.9935006 158.3665017
 100.0869987  79.9205006 158.3665017  98.5639987  89.4345006 157.4175017
  99.5209987  89.4345006 157.4175017  98.3239987  90.3615006 157.4175017
  96.9079987  82.1055006 156.5495017  97.8649987  82.1055006 156.5495017
  96.6679987  83.0325006 156.5495017  97.7239987  76.8965006   4.7315017
  98.6809987  76.8965006   4.7315017  97.4839987  77.8235006   4.7315017
  96.6959987  90.8285006   0.8955017  97.6529987  90.8285006   0.8955017
  96.4559987  91.7555006   0.8955017  95.8959987  93.4645006  12.1795017
  96.8529987  93.4645006  12.1795017  95.6559987  94.3915006  12.1795017
 100.5539987  92.3855006  13.7905017 101.5109987  92.3855006  13.7905017
 100.3139987  93.3125006  13.7905017 104.7069987  91.8825006 155.7205017
 105.6639987  91.8825006 155.7205017 104.4669987  92.8095006 155.7205017
 107.1339987  90.7665006  12.5235017 108.0909987  90.7665006  12.5235017
 106.8939987  91.6935006  12.5235017  95.8159987  87.2475006  13.1635017
  96.7729987  87.2475006  13.1635017  95.5759987  88.1745006  13.1635017
 100.1419987  87.5875006 155.7565017 101.0989987  87.5875006 155.7565017
  99.9019987  88.5145006 155.7565017 102.4999987  87.2265006  12.5675017
 103.4569987  87.2265006  12.5675017 102.2599987  88.1535006  12.5675017
 105.5969987  88.6635006 155.5265017 106.5539987  88.6635006 155.5265017
 105.3569987  89.5905006 155.5265017  96.7059987  84.4655006  12.5515017
  97.6629987  84.4655006  12.5515017  96.4659987  85.3925006  12.5515017
 101.3409987  85.5895006 158.1325017 102.2979987  85.5895006 158.1325017
 101.1009987  86.5165006 158.1325017 100.6179987  83.4225006   9.9165017
 101.5749987  83.4225006   9.9165017 100.3779987  84.3495006   9.9165017
 102.4129987  83.8145006 156.3665017 103.3699987  83.8145006 156.3665017
 102.1729987  84.7415006 156.3665017 105.6769987  85.9635006  13.2635017
 106.6339987  85.9635006  13.2635017 105.4369987  86.8905006  13.2635017
 101.0099987  80.7965006  10.9855017 101.9669987  80.7965006  10.9855017
 100.7699987  81.7235006  10.9855017 101.4079987  79.1705006   8.5185017
 102.3649987  79.1705006   8.5185017 101.1679987  80.0975006   8.5185017
 102.9789987  84.6425006   8.7655017 103.9359987  84.6425006   8.7655017
 102.7389987  85.5695006   8.7655017 107.3909987  82.4405006  13.8435017
 108.3479987  82.4405006  13.8435017 107.1509987  83.3675006  13.8435017
  99.4639987  82.0385006  12.9035017 100.4209987  82.0385006  12.9035017
  99.2239987  82.9655006  12.9035017 102.2159987  76.6185006   8.9235017
 103.1729987  76.6185006   8.9235017 101.9759987  77.5455006   8.9235017
 103.4749987  80.9485006  12.5235017 104.4319987  80.9485006  12.5235017
 103.2349987  81.8755006  12.5235017 106.1369987  80.0495006  11.5785017
 107.0939987  80.0495006  11.5785017 105.8969987  80.9765006  11.5785017
 107.7729987  78.7475006  13.5185017 108.7299987  78.7475006  13.5185017
 107.5329987  79.6745006  13.5185017  97.5659987  79.9645006  12.6325017
  98.5229987  79.9645006  12.6325017  97.3259987  80.8915006  12.6325017
 102.4129987  75.9805006  11.6155017 103.3699987  75.9805006  11.6155017
 102.1729987  76.9075006  11.6155017 102.7809987  77.6115006  13.7005017
 103.7379987  77.6115006  13.7005017 102.5409987  78.5385006  13.7005017
 102.2609987  94.5105006 157.4145017 103.2179987  94.5105006 157.4145017
 102.0209987  95.4375006 157.4145017  95.8219987  89.1165006 156.8955017
  96.7789987  89.1165006 156.8955017  95.5819987  90.0435006 156.8955017
  94.5739987  94.5035006   1.3575017  95.5309987  94.5035006   1.3575017
  94.3339987  95.4305006   1.3575017  95.3969987  92.6325006   3.2085017
  96.3539987  92.6325006   3.2085017  95.1569987  93.5595006   3.2085017
  95.4629987  85.6935006   5.6885017  96.4199987  85.6935006   5.6885017
  95.2229987  86.6205006   5.6885017  95.0749987  80.9935006  11.8355017
  96.0319987  80.9935006  11.8355017  94.8349987  81.9205006  11.8355017
  96.2809987  79.2835006   4.6955017  97.2379987  79.2835006   4.6955017
  96.0409987  80.2105006   4.6955017  94.5679987  82.2765006   5.7465017
  95.5249987  82.2765006   5.7465017  94.3279987  83.2035006   5.7465017
  94.9319987  78.5515006 160.3625017  95.8889987  78.5515006 160.3625017
  94.6919987  79.4785006 160.3625017  94.8859987  77.2215006   8.1235017
  95.8429987  77.2215006   8.1235017  94.6459987  78.1485006   8.1235017
  97.1069987  90.4075006  12.2795017  98.0639987  90.4075006  12.2795017
  96.8669987  91.3345006  12.2795017 100.0129987  91.3945006   8.5265017
 100.9699987  91.3945006   8.5265017  99.7729987  92.3215006   8.5265017
 104.3349987  92.8345006  11.4935017 105.2919987  92.8345006  11.4935017
 104.0949987  93.7615006  11.4935017 106.6879987  94.1375006  10.7205017
 107.6449987  94.1375006  10.7205017 106.4479987  95.0645006  10.7205017
  97.4399987  94.6505006   8.5575017  98.3969987  94.6505006   8.5575017
  97.1999987  95.5775006   8.5575017  99.9059987  94.2125006   7.6015017
 100.8629987  94.2125006   7.6015017  99.6659987  95.1395006   7.6015017
 104.5779987  94.1395006   6.7935017 105.5349987  94.1395006   6.7935017
 104.3379987  95.0665006   6.7935017 106.9369987  93.0115006   7.8115017
 107.8939987  93.0115006   7.8115017 106.6969987  93.9385006   7.8115017
  96.8869987  93.3185006   5.5005017  97.8439987  93.3185006   5.5005017
  96.6469987  94.2455006   5.5005017  99.0299987  91.9745006   4.0905017
  99.9869987  91.9745006   4.0905017  98.7899987  92.9015006   4.0905017
 101.5399987  92.5345006   5.1055017 102.4969987  92.5345006   5.1055017
 101.2999987  93.4615006   5.1055017 105.0119987  78.1325006   4.1415017
 105.9689987  78.1325006   4.1415017 104.7719987  79.0595006   4.1415017
  97.3939987  76.7735006   1.9995017  98.3509987  76.7735006   1.9995017
  97.1539987  77.7005006   1.9995017  96.1829987  76.5305006 158.2885017
  97.1399987  76.5305006 158.2885017  95.9429987  77.4575006 158.2885017
 101.8999987  76.6825006   1.7885017 102.8569987  76.6825006   1.7885017
 101.6599987  77.6095006   1.7885017 107.4669987  76.6385006   3.5905017
 108.4239987  76.6385006   3.5905017 107.2269987  77.5655006   3.5905017
  96.0879987  92.4825006 159.2715017  97.0449987  92.4825006 159.2715017
  95.8479987  93.4095006 159.2715017  98.0149987  78.4715006 156.7745017
  98.9719987  78.4715006 156.7745017  97.7749987  79.3985006 156.7745017
 103.0459987  78.7215006 159.1905017 104.0029987  78.7215006 159.1905017
 102.8059987  79.6485006 159.1905017 104.9319987  93.7675006 157.6185017
 105.8889987  93.7675006 157.6185017 104.6919987  94.6945006 157.6185017
  97.2919987  77.3055006  11.4635017  98.2489987  77.3055006  11.4635017
  97.0519987  78.2325006  11.4635017  99.2959987  76.6795006  13.0755017
 100.2529987  76.6795006  13.0755017  99.0559987  77.6065006  13.0755017
  97.9129987  93.4725006 156.2325017  98.8699987  93.4725006 156.2325017
  97.6729987  94.3995006 156.2325017  -0.0900013  76.0435006  13.2675017
   0.8669987  76.0435006  13.2675017  -0.3300013  76.9705006  13.2675017
  12.1689987 104.7815006   1.9105017  13.1259987 104.7815006   1.9105017
  11.9289987 105.7085006   1.9105017  11.0619987 104.0335006   5.3715017
  12.0189987 104.0335006   5.3715017  10.8219987 104.9605006   5.3715017
   3.4619987 103.6475006   6.8935017   4.4189987 103.6475006   6.8935017
   3.2219987 104.5745006   6.8935017  14.6339987 106.7955006   3.5725017
  15.5909987 106.7955006   3.5725017  14.3939987 107.7225006   3.5725017
   4.4569987 107.5815006   5.8485017   5.4139987 107.5815006   5.8485017
   4.2169987 108.5085006   5.8485017   1.0369987 101.7955006   0.9025017
   1.9939987 101.7955006   0.9025017   0.7969987 102.7225006   0.9025017
   1.6749987 103.8905006   3.0435017   2.6319987 103.8905006   3.0435017
   1.4349987 104.8175006   3.0435017   9.4309987 106.4085006   5.8445017
  10.3879987 106.4085006   5.8445017   9.1909987 107.3355006   5.8445017
  18.0679987  98.0685006   6.5795017  19.0249987  98.0685006   6.5795017
  17.8279987  98.9955006   6.5795017  12.6129987 100.8885006   6.1365017
  13.5699987 100.8885006   6.1365017  12.3729987 101.8155006   6.1365017
   5.7349987  98.9685006   3.3585017   6.6919987  98.9685006   3.3585017
   5.4949987  99.8955006   3.3585017  13.4729987  99.0655006   1.7375017
  14.4299987  99.0655006   1.7375017  13.2329987  99.9925006   1.7375017
   2.5029987 101.4115006   4.0195017   3.4599987 101.4115006   4.0195017
   2.2629987 102.3385006   4.0195017   7.5179987 102.9505006   3.3925017
   8.4749987 102.9505006   3.3925017   7.2779987 103.8775006   3.3925017
  18.5039987  99.5005006   8.8395017  19.4609987  99.5005006   8.8395017
  18.2639987 100.4275006   8.8395017   4.6249987  97.8815006   7.4265017
   5.5819987  97.8815006   7.4265017   4.3849987  98.8085006   7.4265017
  11.9669987 107.3815006   0.9625017  12.9239987 107.3815006   0.9625017
  11.7269987 108.3085006   0.9625017   7.1499987 105.5345006   7.6725017
   8.1069987 105.5345006   7.6725017   6.9099987 106.4615006   7.6725017
  15.2619987  98.4005006   3.7325017  16.2189987  98.4005006   3.7325017
  15.0219987  99.3275006   3.7325017   4.2039987  99.7155006   5.4385017
   5.1609987  99.7155006   5.4385017   3.9639987 100.6425006   5.4385017
   5.5789987 107.5355006   8.3885017   6.5359987 107.5355006   8.3885017
   5.3389987 108.4625006   8.3885017   1.6549987 107.0645006 159.8465017
   2.6119987 107.0645006 159.8465017   1.4149987 107.9915006 159.8465017
  15.6099987  97.0925006   7.4125017  16.5669987  97.0925006   7.4125017
  15.3699987  98.0195006   7.4125017   8.5889987  95.2025006   4.8715017
   9.5459987  95.2025006   4.8715017   8.3489987  96.1295006   4.8715017
  16.2839987 106.9585006   9.6065017  17.2409987 106.9585006   9.6065017
  16.0439987 107.8855006   9.6065017  10.8779987 103.9975006 159.9345017
  11.8349987 103.9975006 159.9345017  10.6379987 104.9245006 159.9345017
  10.9359987 102.5405006 156.9455017  11.8929987 102.5405006 156.9455017
  10.6959987 103.4675006 156.9455017  18.2559987 103.4185006   7.6765017
  19.2129987 103.4185006   7.6765017  18.0159987 104.3455006   7.6765017
  14.2819987 104.1885006   0.3055017  15.2389987 104.1885006   0.3055017
  14.0419987 105.1155006   0.3055017  14.2409987 102.3775006   9.4115017
  15.1979987 102.3775006   9.4115017  14.0009987 103.3045006   9.4115017
   5.9299987 104.8695006   2.2185017   6.8869987 104.8695006   2.2185017
   5.6899987 105.7965006   2.2185017   6.2709987 103.6395006   5.8755017
   7.2279987 103.6395006   5.8755017   6.0309987 104.5665006   5.8755017
   6.5949987   0.0155006  10.6705017   7.5519987   0.0155006  10.6705017
   6.3549987   0.9425006  10.6705017  13.1959987 103.3845006 158.5115017
  14.1529987 103.3845006 158.5115017  12.9559987 104.3115006 158.5115017
   4.1329987 104.2155006   9.7825017   5.0899987 104.2155006   9.7825017
   3.8929987 105.1425006   9.7825017  16.9029987  95.1335006 158.3975017
  17.8599987  95.1335006 158.3975017  16.6629987  96.0605006 158.3975017
   4.9349987 103.9245006 160.3735017   5.8919987 103.9245006 160.3735017
   4.6949987 104.8515006 160.3735017   1.0509987 106.3095006   8.6855017
   2.0079987 106.3095006   8.6855017   0.8109987 107.2365006   8.6855017
  16.1299987 101.2335006  11.6735017  17.0869987 101.2335006  11.6735017
  15.8899987 102.1605006  11.6735017   3.2629987 107.6025006   9.6675017
   4.2199987 107.6025006   9.6675017   3.0229987 108.5295006   9.6675017
   5.9359987  96.1095006   5.6225017   6.8929987  96.1095006   5.6225017
   5.6959987  97.0365006   5.6225017  10.5819987  95.7905006   8.9985017
  11.5389987  95.7905006   8.9985017  10.3419987  96.7175006   8.9985017
  13.8849987  99.6085006   9.8865017  14.8419987  99.6085006   9.8865017
  13.6449987 100.5355006   9.8865017  14.6849987 104.3485006 156.2715017
  15.6419987 104.3485006 156.2715017  14.4449987 105.2755006 156.2715017
  10.2349987  98.3495006 156.8395017  11.1919987  98.3495006 156.8395017
   9.9949987  99.2765006 156.8395017   6.0439987 101.0765006   6.8435017
   7.0009987 101.0765006   6.8435017   5.8039987 102.0035006   6.8435017
   5.9829987 101.2285006   1.7275017   6.9399987 101.2285006   1.7275017
   5.7429987 102.1555006   1.7275017  11.5149987 101.6985006   0.5095017
  12.4719987 101.6985006   0.5095017  11.2749987 102.6255006   0.5095017
  10.5959987 101.9125006  11.9565017  11.5529987 101.9125006  11.9565017
  10.3559987 102.8395006  11.9565017  12.5529987 101.1775006   3.3445017
  13.5099987 101.1775006   3.3445017  12.3129987 102.1045006   3.3445017
   3.7029987 101.3465006   8.5835017   4.6599987 101.3465006   8.5835017
   3.4629987 102.2735006   8.5835017   7.0789987  98.7355006 155.9485017
   8.0359987  98.7355006 155.9485017   6.8389987  99.6625006 155.9485017
   0.4099987  97.7905006   2.8665017   1.3669987  97.7905006   2.8665017
   0.1699987  98.7175006   2.8665017   1.7989987  99.1835006 158.5435017
   2.7559987  99.1835006 158.5435017   1.5589987 100.1105006 158.5435017
  11.7689987 102.7755006   7.9315017  12.7259987 102.7755006   7.9315017
  11.5289987 103.7025006   7.9315017   8.5609987  98.7405006   2.7465017
   9.5179987  98.7405006   2.7465017   8.3209987  99.6675006   2.7465017
   3.3929987 100.2945006   1.5935017   4.3499987 100.2945006   1.5935017
   3.1529987 101.2215006   1.5935017   7.0229987 100.3415006 159.7765017
   7.9799987 100.3415006 159.7765017   6.7829987 101.2685006 159.7765017
  12.9729987  97.9765006   5.9935017  13.9299987  97.9765006   5.9935017
  12.7329987  98.9035006   5.9935017   5.7079987 101.5355006 157.3635017
   6.6649987 101.5355006 157.3635017   5.4679987 102.4625006 157.3635017
   3.8509987 106.1645006  11.8845017   4.8079987 106.1645006  11.8845017
   3.6109987 107.0915006  11.8845017   9.8569987 101.5065006   4.6405017
  10.8139987 101.5065006   4.6405017   9.6169987 102.4335006   4.6405017
   4.8559987  97.6585006   1.0575017   5.8129987  97.6585006   1.0575017
   4.6159987  98.5855006   1.0575017   8.4939987  99.8455006   7.0525017
   9.4509987  99.8455006   7.0525017   8.2539987 100.7725006   7.0525017
   9.0989987 106.0905006 159.2875017  10.0559987 106.0905006 159.2875017
   8.8589987 107.0175006 159.2875017  16.2409987 105.2615006   7.5295017
  17.1979987 105.2615006   7.5295017  16.0009987 106.1885006   7.5295017
  12.9159987  98.8805006 157.4675017  13.8729987  98.8805006 157.4675017
  12.6759987  99.8075006 157.4675017  10.5499987 106.2765006   9.9805017
  11.5069987 106.2765006   9.9805017  10.3099987 107.2035006   9.9805017
  13.6569987 100.7795006 159.0955017  14.6139987 100.7795006 159.0955017
  13.4169987 101.7065006 159.0955017   4.1599987 105.4165006   4.4865017
   5.1169987 105.4165006   4.4865017   3.9199987 106.3435006   4.4865017
  11.1909987 107.5305006 158.3555017  12.1479987 107.5305006 158.3555017
  10.9509987 108.4575006 158.3555017   1.1669987 103.8525006   9.8185017
   2.1239987 103.8525006   9.8185017   0.9269987 104.7795006   9.8185017
   8.1849987 103.4075006  12.0125017   9.1419987 103.4075006  12.0125017
   7.9449987 104.3345006  12.0125017  18.5659987 100.9425006 158.8655017
  19.5229987 100.9425006 158.8655017  18.3259987 101.8695006 158.8655017
  18.5499987 106.7715006  11.1505017  19.5069987 106.7715006  11.1505017
  18.3099987 107.6985006  11.1505017  14.0339987 104.5745006   5.8365017
  14.9909987 104.5745006   5.8365017  13.7939987 105.5015006   5.8365017
   2.2849987 103.7365006 157.0705017   3.2419987 103.7365006 157.0705017
   2.0449987 104.6635006 157.0705017   8.0129987 106.5085006   1.4555017
   8.9699987 106.5085006   1.4555017   7.7729987 107.4355006   1.4555017
  11.9769987 106.8065006   7.5095017  12.9339987 106.8065006   7.5095017
  11.7369987 107.7335006   7.5095017  14.2449987 107.7465006 157.1415017
  15.2019987 107.7465006 157.1415017  14.0049987 108.6735006 157.1415017
   2.8019987  98.6005006   9.3615017   3.7589987  98.6005006   9.3615017
   2.5619987  99.5275006   9.3615017  15.0709987 106.3975006 159.3395017
  16.0279987 106.3975006 159.3395017  14.8309987 107.3245006 159.3395017
   3.6749987 105.6785006 158.5095017   4.6319987 105.6785006 158.5095017
   3.4349987 106.6055006 158.5095017  11.5529987  98.3635006   8.3025017
  12.5099987  98.3635006   8.3025017  11.3129987  99.2905006   8.3025017
  12.3159987  97.9475006 159.9385017  13.2729987  97.9475006 159.9385017
  12.0759987  98.8745006 159.9385017   9.5319987  99.7015006   0.2195017
  10.4889987  99.7015006   0.2195017   9.2919987 100.6285006   0.2195017
  10.0819987 100.7115006   9.4075017  11.0389987 100.7115006   9.4075017
   9.8419987 101.6385006   9.4075017  10.3909987  96.7595006   1.1255017
  11.3479987  96.7595006   1.1255017  10.1509987  97.6865006   1.1255017
   6.0499987  97.8525006 158.3655017   7.0069987  97.8525006 158.3655017
   5.8099987  98.7795006 158.3655017  16.2769987  98.5885006  10.2565017
  17.2339987  98.5885006  10.2565017  16.0369987  99.5155006  10.2565017
  14.8759987 102.3715006   4.2885017  15.8329987 102.3715006   4.2885017
  14.6359987 103.2985006   4.2885017   2.5789987 100.9725006 156.5965017
   3.5359987 100.9725006 156.5965017   2.3389987 101.8995006 156.5965017
   3.4529987  95.7595006   4.7195017   4.4099987  95.7595006   4.7195017
   3.2129987  96.6865006   4.7195017   1.5449987 106.0775006  13.1145017
   2.5019987 106.0775006  13.1145017   1.3049987 107.0045006  13.1145017
   5.8449987 106.4275006 155.7465017   6.8019987 106.4275006 155.7465017
   5.6049987 107.3545006 155.7465017   8.2249987 106.0405006  12.5605017
   9.1819987 106.0405006  12.5605017   7.9849987 106.9675006  12.5605017
  11.1599987 107.4885006 155.5365017  12.1169987 107.4885006 155.5365017
  10.9199987 108.4155006 155.5365017  13.8909987 105.9655006   9.9755017
  14.8479987 105.9655006   9.9755017  13.6509987 106.8925006   9.9755017
   2.3669987 103.3055006  12.5405017   3.3239987 103.3055006  12.5405017
   2.1269987 104.2325006  12.5405017   7.0609987 104.4575006 158.1285017
   8.0179987 104.4575006 158.1285017   6.8209987 105.3845006 158.1285017
   6.3369987 102.2785006   9.9175017   7.2939987 102.2785006   9.9175017
   6.0969987 103.2055006   9.9175017   8.1339987 102.6445006 156.3645017
   9.0909987 102.6445006 156.3645017   7.8939987 103.5715006 156.3645017
  11.3879987 104.8095006  13.1965017  12.3449987 104.8095006  13.1965017
  11.1479987 105.7365006  13.1965017  17.5059987 104.9935006 155.7845017
  18.4629987 104.9935006 155.7845017  17.2659987 105.9205006 155.7845017
   6.7339987  99.6525006  10.9855017   7.6909987  99.6525006  10.9855017
   6.4939987 100.5795006  10.9855017   7.1309987  98.0305006   8.5175017
   8.0879987  98.0305006   8.5175017   6.8909987  98.9575006   8.5175017
   8.6889987 103.5105006   8.7665017   9.6459987 103.5105006   8.7665017
   8.4489987 104.4375006   8.7665017  13.0799987 101.2775006  13.7395017
  14.0369987 101.2775006  13.7395017  12.8399987 102.2045006  13.7395017
  14.4199987 104.0625006  11.8715017  15.3769987 104.0625006  11.8715017
  14.1799987 104.9895006  11.8715017   5.1759987 100.8925006  12.8995017
   6.1329987 100.8925006  12.8995017   4.9359987 101.8195006  12.8995017
   7.9139987  95.4745006   8.9295017   8.8709987  95.4745006   8.9295017
   7.6739987  96.4015006   8.9295017   9.1979987  99.7985006  12.5215017
  10.1549987  99.7985006  12.5215017   8.9579987 100.7255006  12.5215017
  11.9139987  98.9335006  11.5995017  12.8709987  98.9335006  11.5995017
  11.6739987  99.8605006  11.5995017  13.5099987  97.5635006  13.5395017
  14.4669987  97.5635006  13.5395017  13.2699987  98.4905006  13.5395017
   3.3269987  98.8265006  12.6405017   4.2839987  98.8265006  12.6405017
   3.0869987  99.7535006  12.6405017   8.1359987  94.8365006  11.6155017
   9.0929987  94.8365006  11.6155017   7.8959987  95.7635006  11.6155017
   8.5029987  96.4695006  13.7045017   9.4599987  96.4695006  13.7045017
   8.2629987  97.3965006  13.7045017   1.5809987 107.8935006 156.6705017
   2.5379987 107.8935006 156.6705017   1.3409987 108.8205006 156.6705017
  16.5939987 107.5675006  13.7245017  17.5509987 107.5675006  13.7245017
  16.3539987 108.4945006  13.7245017  17.9879987 105.8505006 159.7405017
  18.9449987 105.8505006 159.7405017  17.7479987 106.7775006 159.7405017
  18.3719987 103.9685006   1.0835017  19.3289987 103.9685006   1.0835017
  18.1319987 104.8955006   1.0835017  18.1079987 106.7145006   6.0315017
  19.0649987 106.7145006   6.0315017  17.8679987 107.6415006   6.0315017
  18.6419987 103.7825006 157.9915017  19.5989987 103.7825006 157.9915017
  18.4019987 104.7095006 157.9915017  17.0049987 100.8775006 156.7055017
  17.9619987 100.8775006 156.7055017  16.7649987 101.8045006 156.7055017
  16.1859987 102.4595006   1.6405017  17.1429987 102.4595006   1.6405017
  15.9459987 103.3865006   1.6405017   1.1569987 104.4635006   5.6705017
   2.1139987 104.4635006   5.6705017   0.9169987 105.3905006   5.6705017
  17.0289987 104.4535006  11.2935017  17.9859987 104.4535006  11.2935017
  16.7889987 105.3805006  11.2935017  18.5369987 102.3355006  11.9805017
  19.4939987 102.3355006  11.9805017  18.2969987 103.2625006  11.9805017
  16.2659987  98.5325006 155.6715017  17.2229987  98.5325006 155.6715017
  16.0259987  99.4595006 155.6715017  15.8319987 100.0495006 160.6135017
  16.7889987 100.0495006 160.6135017  15.5919987 100.9765006 160.6135017
  16.4809987 100.5965006   5.5385017  17.4379987 100.5965006   5.5385017
  16.2409987 101.5235006   5.5385017  16.5459987 101.3165006   8.3235017
  17.5029987 101.3165006   8.3235017  16.3059987 102.2435006   8.3235017
   0.8859987  99.8115006  11.7795017   1.8429987  99.8115006  11.7795017
   0.6459987 100.7385006  11.7795017  18.8129987  95.3645006  13.6745017
  19.7699987  95.3645006  13.6745017  18.5729987  96.2915006  13.6745017
  16.5109987  97.3325006   0.1475017  17.4679987  97.3325006   0.1475017
  16.2709987  98.2595006   0.1475017   2.0689987  98.1815006   4.6975017
   3.0259987  98.1815006   4.6975017   1.8289987  99.1085006   4.6975017
   0.7989987 101.1735006   5.8445017   1.7559987 101.1735006   5.8445017
   0.5589987 102.1005006   5.8445017  18.3429987  97.4705006  12.0265017
  19.2999987  97.4705006  12.0265017  18.1029987  98.3975006  12.0265017
  18.3339987  97.3835006 157.2345017  19.2909987  97.3835006 157.2345017
  18.0939987  98.3105006 157.2345017   0.8919987  97.3465006 160.3755017
   1.8489987  97.3465006 160.3755017   0.6519987  98.2735006 160.3755017
 108.3279987  96.0575006   8.1475017 109.2849987  96.0575006   8.1475017
 108.0879987  96.9845006   8.1475017  17.3559987  95.5665006   9.8625017
  18.3129987  95.5665006   9.8625017  17.1159987  96.4935006   9.8625017
  10.7539987  96.9975006   4.1615017  11.7109987  96.9975006   4.1615017
  10.5139987  97.9245006   4.1615017  15.8889987  95.0585006   4.2445017
  16.8459987  95.0585006   4.2445017  15.6489987  95.9855006   4.2445017
  17.5679987  96.2775006   2.5285017  18.5249987  96.2775006   2.5285017
  17.3279987  97.2045006   2.5285017   3.1299987  95.6255006   1.9575017
   4.0869987  95.6255006   1.9575017   2.8899987  96.5525006   1.9575017
   1.9429987  95.3805006 158.3415017   2.8999987  95.3805006 158.3415017
   1.7029987  96.3075006 158.3415017   7.6149987  95.5485006   1.7895017
   8.5719987  95.5485006   1.7895017   7.3749987  96.4755006   1.7895017
  13.2829987  95.5735006   3.4285017  14.2399987  95.5735006   3.4285017
  13.0429987  96.5005006   3.4285017  14.5799987  95.6035006 159.6535017
  15.5369987  95.6035006 159.6535017  14.3399987  96.5305006 159.6535017
   3.7349987  97.3365006 156.7765017   4.6919987  97.3365006 156.7765017
   3.4949987  98.2635006 156.7765017   8.7609987  97.5825006 159.1905017
   9.7179987  97.5825006 159.1905017   8.5209987  98.5095006 159.1905017
   2.9949987  96.1635006  11.4585017   3.9519987  96.1635006  11.4585017
   2.7549987  97.0905006  11.4585017   5.0119987  95.5425006  13.0745017
   5.9689987  95.5425006  13.0745017   4.7719987  96.4695006  13.0745017
  13.4179987  94.8415006  13.2395017  14.3749987  94.8415006  13.2395017
  13.1779987  95.7685006  13.2395017  31.0249987 104.7815006   1.9115017
  31.9819987 104.7815006   1.9115017  30.7849987 105.7085006   1.9115017
  29.9429987 104.0275006   5.3755017  30.8999987 104.0275006   5.3755017
  29.7029987 104.9545006   5.3755017  22.2879987 103.6735006   6.9155017
  23.2449987 103.6735006   6.9155017  22.0479987 104.6005006   6.9155017
  33.5139987 106.7825006   3.5785017  34.4709987 106.7825006   3.5785017
  33.2739987 107.7095006   3.5785017  23.3259987 107.5905006   5.8445017
  24.2829987 107.5905006   5.8445017  23.0859987 108.5175006   5.8445017
  19.8499987 101.7025006   0.9045017  20.8069987 101.7025006   0.9045017
  19.6099987 102.6295006   0.9045017  20.5499987 103.9405006   3.0435017
  21.5069987 103.9405006   3.0435017  20.3099987 104.8675006   3.0435017
  28.2929987 106.4075006   5.8465017  29.2499987 106.4075006   5.8465017
  28.0529987 107.3345006   5.8465017  36.9099987  98.0815006   6.5735017
  37.8669987  98.0815006   6.5735017  36.6699987  99.0085006   6.5735017
  31.5109987 100.9005006   6.1325017  32.4679987 100.9005006   6.1325017
  31.2709987 101.8275006   6.1325017  24.5929987  98.9745006   3.3705017
  25.5499987  98.9745006   3.3705017  24.3529987  99.9015006   3.3705017
  32.3229987  99.0655006   1.7405017  33.2799987  99.0655006   1.7405017
  32.0829987  99.9925006   1.7405017  21.2139987 101.3825006   4.1085017
  22.1709987 101.3825006   4.1085017  20.9739987 102.3095006   4.1085017
  26.3759987 102.9515006   3.3945017  27.3329987 102.9515006   3.3945017
  26.1359987 103.8785006   3.3945017  37.3809987  99.5305006   8.8335017
  38.3379987  99.5305006   8.8335017  37.1409987 100.4575006   8.8335017
  23.4779987  97.8735006   7.4145017  24.4349987  97.8735006   7.4145017
  23.2379987  98.8005006   7.4145017  30.8249987 107.3775006   0.9685017
  31.7819987 107.3775006   0.9685017  30.5849987 108.3045006   0.9685017
  26.0049987 105.5355006   7.6715017  26.9619987 105.5355006   7.6715017
  25.7649987 106.4625006   7.6715017  34.1049987  98.4025006   3.7345017
  35.0619987  98.4025006   3.7345017  33.8649987  99.3295006   3.7345017
  23.0409987  99.7425006   5.4225017  23.9979987  99.7425006   5.4225017
  22.8009987 100.6695006   5.4225017  24.4369987 107.5405006   8.3995017
  25.3939987 107.5405006   8.3995017  24.1969987 108.4675006   8.3995017
  20.4989987 107.0685006 159.8855017  21.4559987 107.0685006 159.8855017
  20.2589987 107.9955006 159.8855017  34.4349987  97.1525006   7.4205017
  35.3919987  97.1525006   7.4205017  34.1949987  98.0795006   7.4205017
  27.4469987  95.2035006   4.8755017  28.4039987  95.2035006   4.8755017
  27.2069987  96.1305006   4.8755017  35.1819987 106.9865006   9.6895017
  36.1389987 106.9865006   9.6895017  34.9419987 107.9135006   9.6895017
  29.7319987 103.9995006 159.9365017  30.6889987 103.9995006 159.9365017
  29.4919987 104.9265006 159.9365017  29.7919987 102.5405006 156.9455017
  30.7489987 102.5405006 156.9455017  29.5519987 103.4675006 156.9455017
  37.3889987 103.2725006   7.8445017  38.3459987 103.2725006   7.8445017
  37.1489987 104.1995006   7.8445017  33.1409987 104.1895006   0.2995017
  34.0979987 104.1895006   0.2995017  32.9009987 105.1165006   0.2995017
  33.1319987 102.4025006   9.3765017  34.0889987 102.4025006   9.3765017
  32.8919987 103.3295006   9.3765017  24.7749987 104.8655006   2.2175017
  25.7319987 104.8655006   2.2175017  24.5349987 105.7925006   2.2175017
  25.1129987 103.6445006   5.8725017  26.0699987 103.6445006   5.8725017
  24.8729987 104.5715006   5.8725017  25.4579987   0.0135006  10.6705017
  26.4149987   0.0135006  10.6705017  25.2179987   0.9405006  10.6705017
  32.0359987 103.3985006 158.5185017  32.9929987 103.3985006 158.5185017
  31.7959987 104.3255006 158.5185017  22.9979987 104.2205006   9.7745017
  23.9549987 104.2205006   9.7745017  22.7579987 105.1475006   9.7745017
  35.3649987  95.2615006 157.9675017  36.3219987  95.2615006 157.9675017
  35.1249987  96.1885006 157.9675017  23.7659987 103.9115006 160.3815017
  24.7229987 103.9115006 160.3815017  23.5259987 104.8385006 160.3815017
  19.8079987 106.3095006   8.7035017  20.7649987 106.3095006   8.7035017
  19.5679987 107.2365006   8.7035017  34.9949987 101.2345006  11.6675017
  35.9519987 101.2345006  11.6675017  34.7549987 102.1615006  11.6675017
  22.1249987 107.5705006   9.6445017  23.0819987 107.5705006   9.6445017
  21.8849987 108.4975006   9.6445017  24.7939987  96.0995006   5.6345017
  25.7509987  96.0995006   5.6345017  24.5539987  97.0265006   5.6345017
  29.4599987  95.7495006   8.9935017  30.4169987  95.7495006   8.9935017
  29.2199987  96.6765006   8.9935017  32.7329987  99.5885006   9.8835017
  33.6899987  99.5885006   9.8835017  32.4929987 100.5155006   9.8835017
  33.4879987 104.4145006 156.2705017  34.4449987 104.4145006 156.2705017
  33.2479987 105.3415006 156.2705017  29.0909987  98.3495006 156.8385017
  30.0479987  98.3495006 156.8385017  28.8509987  99.2765006 156.8385017
  24.8939987 101.0755006   6.8415017  25.8509987 101.0755006   6.8415017
  24.6539987 102.0025006   6.8415017  24.8589987 101.2295006   1.7225017
  25.8159987 101.2295006   1.7225017  24.6189987 102.1565006   1.7225017
  30.3719987 101.6985006   0.5085017  31.3289987 101.6985006   0.5085017
  30.1319987 102.6255006   0.5085017  29.4519987 101.9115006  11.9565017
  30.4089987 101.9115006  11.9565017  29.2119987 102.8385006  11.9565017
  31.4249987 101.1835006   3.3485017  32.3819987 101.1835006   3.3485017
  31.1849987 102.1105006   3.3485017  22.5399987 101.3535006   8.5755017
  23.4969987 101.3535006   8.5755017  22.2999987 102.2805006   8.5755017
  25.9229987  98.7385006 155.9555017  26.8799987  98.7385006 155.9555017
  25.6829987  99.6655006 155.9555017  19.1849987  98.4645006   2.5195017
  20.1419987  98.4645006   2.5195017  18.9449987  99.3915006   2.5195017
  20.4499987  99.1725006 158.4215017  21.4069987  99.1725006 158.4215017
  20.2099987 100.0995006 158.4215017  30.6529987 102.7755006   7.9375017
  31.6099987 102.7755006   7.9375017  30.4129987 103.7025006   7.9375017
  27.4199987  98.7405006   2.7455017  28.3769987  98.7405006   2.7455017
  27.1799987  99.6675006   2.7455017  22.2379987 100.3145006   1.6075017
  23.1949987 100.3145006   1.6075017  21.9979987 101.2415006   1.6075017
  25.8839987 100.3395006 159.7765017  26.8409987 100.3395006 159.7765017
  25.6439987 101.2665006 159.7765017  31.8269987  97.9415006   6.0085017
  32.7839987  97.9415006   6.0085017  31.5869987  98.8685006   6.0085017
  24.5749987 101.5305006 157.3715017  25.5319987 101.5305006 157.3715017
  24.3349987 102.4575006 157.3715017  22.7209987 106.1825006  11.8715017
  23.6779987 106.1825006  11.8715017  22.4809987 107.1095006  11.8715017
  28.7119987 101.5065006   4.6415017  29.6689987 101.5065006   4.6415017
  28.4719987 102.4335006   4.6415017  23.7209987  97.6525006   1.0745017
  24.6779987  97.6525006   1.0745017  23.4809987  98.5795006   1.0745017
  27.3499987  99.8485006   7.0515017  28.3069987  99.8485006   7.0515017
  27.1099987 100.7755006   7.0515017  27.9549987 106.0905006 159.2875017
  28.9119987 106.0905006 159.2875017  27.7149987 107.0175006 159.2875017
  34.8649987 105.6305006   7.6105017  35.8219987 105.6305006   7.6105017
  34.6249987 106.5575006   7.6105017  31.7739987  98.8835006 157.4695017
  32.7309987  98.8835006 157.4695017  31.5339987  99.8105006 157.4695017
  29.3849987 106.2775006   9.9815017  30.3419987 106.2775006   9.9815017
  29.1449987 107.2045006   9.9815017  32.5089987 100.7775006 159.1095017
  33.4659987 100.7775006 159.1095017  32.2689987 101.7045006 159.1095017
  23.0109987 105.4115006   4.4845017  23.9679987 105.4115006   4.4845017
  22.7709987 106.3385006   4.4845017  30.0489987 107.5275006 158.3535017
  31.0059987 107.5275006 158.3535017  29.8089987 108.4545006 158.3535017
  20.0389987 103.8525006   9.8205017  20.9959987 103.8525006   9.8205017
  19.7989987 104.7795006   9.8205017  27.0409987 103.4075006  12.0125017
  27.9979987 103.4075006  12.0125017  26.8009987 104.3345006  12.0125017
  37.3559987 100.9605006 158.8805017  38.3129987 100.9605006 158.8805017
  37.1159987 101.8875006 158.8805017  37.4079987 106.7565006  11.1525017
  38.3649987 106.7565006  11.1525017  37.1679987 107.6835006  11.1525017
  32.9149987 104.5485006   5.8565017  33.8719987 104.5485006   5.8565017
  32.6749987 105.4755006   5.8565017  21.1599987 103.7355006 157.0385017
  22.1169987 103.7355006 157.0385017  20.9199987 104.6625006 157.0385017
  26.8679987 106.5075006   1.4565017  27.8249987 106.5075006   1.4565017
  26.6279987 107.4345006   1.4565017  30.8459987 106.8065006   7.5085017
  31.8029987 106.8065006   7.5085017  30.6059987 107.7335006   7.5085017
  33.1009987 107.7465006 157.1415017  34.0579987 107.7465006 157.1415017
  32.8609987 108.6735006 157.1415017  21.6829987  98.5975006   9.3635017
  22.6399987  98.5975006   9.3635017  21.4429987  99.5245006   9.3635017
  33.9299987 106.3965006 159.3405017  34.8869987 106.3965006 159.3405017
  33.6899987 107.3235006 159.3405017  22.5799987 105.6825006 158.5395017
  23.5369987 105.6825006 158.5395017  22.3399987 106.6095006 158.5395017
  30.4279987  98.3485006   8.2915017  31.3849987  98.3485006   8.2915017
  30.1879987  99.2755006   8.2915017  31.1699987  97.9485006 159.9385017
  32.1269987  97.9485006 159.9385017  30.9299987  98.8755006 159.9385017
  28.3879987  99.7015006   0.2195017  29.3449987  99.7015006   0.2195017
  28.1479987 100.6285006   0.2195017  28.9419987 100.7095006   9.4045017
  29.8989987 100.7095006   9.4045017  28.7019987 101.6365006   9.4045017
  29.2429987  96.7615006   1.1245017  30.1999987  96.7615006   1.1245017
  29.0029987  97.6885006   1.1245017  24.9019987  97.8505006 158.3665017
  25.8589987  97.8505006 158.3665017  24.6619987  98.7775006 158.3665017
  35.1129987  98.5635006  10.2555017  36.0699987  98.5635006  10.2555017
  34.8729987  99.4905006  10.2555017  33.7369987 102.3905006   4.3295017
  34.6939987 102.3905006   4.3295017  33.4969987 103.3175006   4.3295017
  21.4819987 100.9685006 156.5435017  22.4389987 100.9685006 156.5435017
  21.2419987 101.8955006 156.5435017  22.2989987  95.7525006   4.7305017
  23.2559987  95.7525006   4.7305017  22.0589987  96.6795006   4.7305017
  20.4299987 106.0755006  13.0995017  21.3869987 106.0755006  13.0995017
  20.1899987 107.0025006  13.0995017  24.7049987 106.4225006 155.7465017
  25.6619987 106.4225006 155.7465017  24.4649987 107.3495006 155.7465017
  27.0809987 106.0405006  12.5615017  28.0379987 106.0405006  12.5615017
  26.8409987 106.9675006  12.5615017  30.0149987 107.4905006 155.5365017
  30.9719987 107.4905006 155.5365017  29.7749987 108.4175006 155.5365017
  32.7569987 105.9635006   9.9565017  33.7139987 105.9635006   9.9565017
  32.5169987 106.8905006   9.9565017  21.2719987 103.3445006  12.5505017
  22.2289987 103.3445006  12.5505017  21.0319987 104.2715006  12.5505017
  25.9169987 104.4575006 158.1295017  26.8739987 104.4575006 158.1295017
  25.6769987 105.3845006 158.1295017  25.1929987 102.2775006   9.9165017
  26.1499987 102.2775006   9.9165017  24.9529987 103.2045006   9.9165017
  26.9909987 102.6445006 156.3645017  27.9479987 102.6445006 156.3645017
  26.7509987 103.5715006 156.3645017  30.2439987 104.8095006  13.1945017
  31.2009987 104.8095006  13.1945017  30.0039987 105.7365006  13.1945017
  36.3549987 104.9895006 155.7975017  37.3119987 104.9895006 155.7975017
  36.1149987 105.9165006 155.7975017  25.5899987  99.6525006  10.9845017
  26.5469987  99.6525006  10.9845017  25.3499987 100.5795006  10.9845017
  25.9869987  98.0295006   8.5175017  26.9439987  98.0295006   8.5175017
  25.7469987  98.9565006   8.5175017  27.5449987 103.5105006   8.7655017
  28.5019987 103.5105006   8.7655017  27.3049987 104.4375006   8.7655017
  31.9359987 101.2775006  13.7385017  32.8929987 101.2775006  13.7385017
  31.6959987 102.2045006  13.7385017  33.2759987 104.0525006  11.8635017
  34.2329987 104.0525006  11.8635017  33.0359987 104.9795006  11.8635017
  24.0409987 100.8845006  12.9035017  24.9979987 100.8845006  12.9035017
  23.8009987 101.8115006  12.9035017  26.7859987  95.4705006   8.9245017
  27.7429987  95.4705006   8.9245017  26.5459987  96.3975006   8.9245017
  28.0529987  99.7985006  12.5245017  29.0099987  99.7985006  12.5245017
  27.8129987 100.7255006  12.5245017  30.7679987  98.9145006  11.5865017
  31.7249987  98.9145006  11.5865017  30.5279987  99.8415006  11.5865017
  32.3629987  97.5545006  13.5285017  33.3199987  97.5545006  13.5285017
  32.1229987  98.4815006  13.5285017  22.1409987  98.8205006  12.6315017
  23.0979987  98.8205006  12.6315017  21.9009987  99.7475006  12.6315017
  26.9869987  94.8395006  11.6165017  27.9439987  94.8395006  11.6165017
  26.7469987  95.7665006  11.6165017  27.3589987  96.4715006  13.7045017
  28.3159987  96.4715006  13.7045017  27.1189987  97.3985006  13.7045017
  20.4759987 107.7945006 156.7455017  21.4329987 107.7945006 156.7455017
  20.2359987 108.7215006 156.7455017  35.4509987 107.5675006  13.7245017
  36.4079987 107.5675006  13.7245017  35.2109987 108.4945006  13.7245017
  36.8469987 105.8595006 159.7525017  37.8039987 105.8595006 159.7525017
  36.6069987 106.7865006 159.7525017  37.2169987 103.9755006   1.0805017
  38.1739987 103.9755006   1.0805017  36.9769987 104.9025006   1.0805017
  36.9589987 106.6715006   6.0265017  37.9159987 106.6715006   6.0265017
  36.7189987 107.5985006   6.0265017  37.5049987 103.7995006 158.0225017
  38.4619987 103.7995006 158.0225017  37.2649987 104.7265006 158.0225017
  35.8419987 101.0685006 156.5355017  36.7989987 101.0685006 156.5355017
  35.6019987 101.9955006 156.5355017  35.0509987 102.4565006   1.6485017
  36.0079987 102.4565006   1.6485017  34.8109987 103.3835006   1.6485017
  20.0309987 104.5355006   5.6795017  20.9879987 104.5355006   5.6795017
  19.7909987 105.4625006   5.6795017  35.8859987 104.4465006  11.2575017
  36.8429987 104.4465006  11.2575017  35.6459987 105.3735006  11.2575017
  37.3889987 102.3455006  11.9535017  38.3459987 102.3455006  11.9535017
  37.1489987 103.2725006  11.9535017  35.1269987  98.5225006 155.6735017
  36.0839987  98.5225006 155.6735017  34.8869987  99.4495006 155.6735017
  34.6929987 100.0505006 160.6145017  35.6499987 100.0505006 160.6145017
  34.4529987 100.9775006 160.6145017  35.3359987 100.6615006   5.5425017
  36.2929987 100.6615006   5.5425017  35.0959987 101.5885006   5.5425017
  35.3779987 101.3185006   8.2625017  36.3349987 101.3185006   8.2625017
  35.1379987 102.2455006   8.2625017  19.6509987  99.8485006  11.8365017
  20.6079987  99.8485006  11.8365017  19.4109987 100.7755006  11.8365017
  37.6689987  95.3635006  13.6745017  38.6259987  95.3635006  13.6745017
  37.4289987  96.2905006  13.6745017  35.3359987  97.3495006   0.1575017
  36.2929987  97.3495006   0.1575017  35.0959987  98.2765006   0.1575017
  20.8559987  98.1395006   4.6965017  21.8129987  98.1395006   4.6965017
  20.6159987  99.0665006   4.6965017  19.1439987 101.1285006   5.7445017
  20.1009987 101.1285006   5.7445017  18.9039987 102.0555006   5.7445017
  37.2039987  97.4765006  12.0345017  38.1609987  97.4765006  12.0345017
  36.9639987  98.4035006  12.0345017  37.1779987  97.3965006 157.2405017
  38.1349987  97.3965006 157.2405017  36.9379987  98.3235006 157.2405017
  19.5089987  97.4065006 160.3645017  20.4659987  97.4065006 160.3645017
  19.2689987  98.3335006 160.3645017  19.4619987  96.0755006   8.1225017
  20.4189987  96.0755006   8.1225017  19.2219987  97.0025006   8.1225017
  36.1829987  95.5445006   9.8985017  37.1399987  95.5445006   9.8985017
  35.9429987  96.4715006   9.8985017  29.6099987  96.9985006   4.1605017
  30.5669987  96.9985006   4.1605017  29.3699987  97.9255006   4.1605017
  34.7389987  95.0685006   4.2685017  35.6959987  95.0685006   4.2685017
  34.4989987  95.9955006   4.2685017  36.4069987  96.3105006   2.5465017
  37.3639987  96.3105006   2.5465017  36.1669987  97.2375006   2.5465017
  21.9689987  95.6335006   1.9935017  22.9259987  95.6335006   1.9935017
  21.7289987  96.5605006   1.9935017  20.7569987  95.3855006 158.2895017
  21.7139987  95.3855006 158.2895017  20.5169987  96.3125006 158.2895017
  26.4709987  95.5485006   1.7895017  27.4279987  95.5485006   1.7895017
  26.2309987  96.4755006   1.7895017  32.1399987  95.5705006   3.4455017
  33.0969987  95.5705006   3.4455017  31.8999987  96.4975006   3.4455017
  33.4169987  95.6185006 159.7045017  34.3739987  95.6185006 159.7045017
  33.1769987  96.5455006 159.7045017  22.5909987  97.3265006 156.7755017
  23.5479987  97.3265006 156.7755017  22.3509987  98.2535006 156.7755017
  27.6189987  97.5805006 159.1895017  28.5759987  97.5805006 159.1895017
  27.3789987  98.5075006 159.1895017  21.8679987  96.1615006  11.4635017
  22.8249987  96.1615006  11.4635017  21.6279987  97.0885006  11.4635017
  23.8729987  95.5355006  13.0765017  24.8299987  95.5355006  13.0765017
  23.6329987  96.4625006  13.0765017  32.2829987  94.8225006  13.2145017
  33.2399987  94.8225006  13.2145017  32.0429987  95.7495006  13.2145017
  49.8909987 104.7945006   1.9215017  50.8479987 104.7945006   1.9215017
  49.6509987 105.7215006   1.9215017  48.7959987 104.0395006   5.3745017
  49.7529987 104.0395006   5.3745017  48.5559987 104.9665006   5.3745017
  41.1209987 103.6785006   6.9235017  42.0779987 103.6785006   6.9235017
  40.8809987 104.6055006   6.9235017  52.3979987 106.7805006   3.5875017
  53.3549987 106.7805006   3.5875017  52.1579987 107.7075006   3.5875017
  42.1809987 107.5915006   5.8445017  43.1379987 107.5915006   5.8445017
  41.9409987 108.5185006   5.8445017  38.6939987 101.7095006   0.9265017
  39.6509987 101.7095006   0.9265017  38.4539987 102.6365006   0.9265017
  39.3939987 103.9435006   3.0595017  40.3509987 103.9435006   3.0595017
  39.1539987 104.8705006   3.0595017  47.1389987 106.4065006   5.8405017
  48.0959987 106.4065006   5.8405017  46.8989987 107.3335006   5.8405017
  55.7869987  98.0665006   6.5835017  56.7439987  98.0665006   6.5835017
  55.5469987  98.9935006   6.5835017  50.3219987 100.8805006   6.1425017
  51.2789987 100.8805006   6.1425017  50.0819987 101.8075006   6.1425017
  43.4449987  98.9735006   3.3675017  44.4019987  98.9735006   3.3675017
  43.2049987  99.9005006   3.3675017  51.3999987  99.8255006   1.7805017
  52.3569987  99.8255006   1.7805017  51.1599987 100.7525006   1.7805017
  40.0519987 101.3905006   4.1225017  41.0089987 101.3905006   4.1225017
  39.8119987 102.3175006   4.1225017  45.2309987 102.9515006   3.3955017
  46.1879987 102.9515006   3.3955017  44.9909987 103.8785006   3.3955017
  56.2149987  99.5005006   8.8395017  57.1719987  99.5005006   8.8395017
  55.9749987 100.4275006   8.8395017  42.3349987  97.8735006   7.4145017
  43.2919987  97.8735006   7.4145017  42.0949987  98.8005006   7.4145017
  49.6789987 107.3825006   0.9635017  50.6359987 107.3825006   0.9635017
  49.4389987 108.3095006   0.9635017  44.8609987 105.5235006   7.6675017
  45.8179987 105.5235006   7.6675017  44.6209987 106.4505006   7.6675017
  53.0459987  98.4575006   3.7815017  54.0029987  98.4575006   3.7815017
  52.8059987  99.3845006   3.7815017  41.8959987  99.7435006   5.4205017
  42.8529987  99.7435006   5.4205017  41.6559987 100.6705006   5.4205017
  43.2889987 107.5255006   8.3925017  44.2459987 107.5255006   8.3925017
  43.0489987 108.4525006   8.3925017  39.3579987 107.0625006 159.8815017
  40.3149987 107.0625006 159.8815017  39.1179987 107.9895006 159.8815017
  53.3319987  97.1005006   7.4335017  54.2889987  97.1005006   7.4335017
  53.0919987  98.0275006   7.4335017  46.2919987  95.1985006   4.8835017
  47.2489987  95.1985006   4.8835017  46.0519987  96.1255006   4.8835017
  53.9679987 106.9675006   9.5865017  54.9249987 106.9675006   9.5865017
  53.7279987 107.8945006   9.5865017  48.5819987 104.0135006 159.9355017
  49.5389987 104.0135006 159.9355017  48.3419987 104.9405006 159.9355017
  48.6519987 102.5405006 156.9485017  49.6089987 102.5405006 156.9485017
  48.4119987 103.4675006 156.9485017  55.9659987 103.4155006   7.6705017
  56.9229987 103.4155006   7.6705017  55.7259987 104.3425006   7.6705017
  51.9999987 104.1945006   0.3025017  52.9569987 104.1945006   0.3025017
  51.7599987 105.1215006   0.3025017  51.9539987 102.3725006   9.4155017
  52.9109987 102.3725006   9.4155017  51.7139987 103.2995006   9.4155017
  43.6289987 104.8635006   2.2165017  44.5859987 104.8635006   2.2165017
  43.3889987 105.7905006   2.2165017  43.9669987 103.6445006   5.8715017
  44.9239987 103.6445006   5.8715017  43.7269987 104.5715006   5.8715017
  44.3119987   0.0215006  10.6695017  45.2689987   0.0215006  10.6695017
  44.0719987   0.9485006  10.6695017  50.8899987 103.3995006 158.5155017
  51.8469987 103.3995006 158.5155017  50.6499987 104.3265006 158.5155017
  41.8549987 104.2215006   9.7745017  42.8119987 104.2215006   9.7745017
  41.6149987 105.1485006   9.7745017  54.5959987  95.1075006 158.3535017
  55.5529987  95.1075006 158.3535017  54.3559987  96.0345006 158.3535017
  42.6269987 103.9185006 160.3835017  43.5839987 103.9185006 160.3835017
  42.3869987 104.8455006 160.3835017  38.6389987 106.3055006   8.7075017
  39.5959987 106.3055006   8.7075017  38.3989987 107.2325006   8.7075017
  53.8419987 101.2335006  11.6745017  54.7989987 101.2335006  11.6745017
  53.6019987 102.1605006  11.6745017  40.9849987 107.5845006   9.6495017
  41.9419987 107.5845006   9.6495017  40.7449987 108.5115006   9.6495017
  43.6499987  96.0995006   5.6345017  44.6069987  96.0995006   5.6345017
  43.4099987  97.0265006   5.6345017  48.2919987  95.7945006   9.0075017
  49.2489987  95.7945006   9.0075017  48.0519987  96.7215006   9.0075017
  51.5969987  99.6065006   9.8825017  52.5539987  99.6065006   9.8825017
  51.3569987 100.5335006   9.8825017  52.3409987 104.4205006 156.2665017
  53.2979987 104.4205006 156.2665017  52.1009987 105.3475006 156.2665017
  47.9469987  98.3485006 156.8405017  48.9039987  98.3485006 156.8405017
  47.7069987  99.2755006 156.8405017  43.7499987 101.0745006   6.8415017
  44.7069987 101.0745006   6.8415017  43.5099987 102.0015006   6.8415017
  43.7249987 101.2305006   1.7285017  44.6819987 101.2305006   1.7285017
  43.4849987 102.1575006   1.7285017  49.2139987 101.7065006   0.5085017
  50.1709987 101.7065006   0.5085017  48.9739987 102.6335006   0.5085017
  48.3079987 101.9115006  11.9575017  49.2649987 101.9115006  11.9575017
  48.0679987 102.8385006  11.9575017  50.1679987 101.2215006   3.4185017
  51.1249987 101.2215006   3.4185017  49.9279987 102.1485006   3.4185017
  41.3989987 101.3525006   8.5745017  42.3559987 101.3525006   8.5745017
  41.1589987 102.2795006   8.5745017  44.7849987  98.7385006 155.9565017
  45.7419987  98.7385006 155.9565017  44.5449987  99.6655006 155.9565017
  38.0419987  98.4795006   2.5255017  38.9989987  98.4795006   2.5255017
  37.8019987  99.4065006   2.5255017  39.3329987  99.3685006 158.9545017
  40.2899987  99.3685006 158.9545017  39.0929987 100.2955006 158.9545017
  49.4809987 102.7755006   7.9315017  50.4379987 102.7755006   7.9315017
  49.2409987 103.7025006   7.9315017  46.2679987  98.7395006   2.7485017
  47.2249987  98.7395006   2.7485017  46.0279987  99.6665006   2.7485017
  41.0939987 100.3185006   1.5925017  42.0509987 100.3185006   1.5925017
  40.8539987 101.2455006   1.5925017  44.7379987 100.3435006 159.7785017
  45.6949987 100.3435006 159.7785017  44.4979987 101.2705006 159.7785017
  50.6919987  97.9755006   6.0035017  51.6489987  97.9755006   6.0035017
  50.4519987  98.9025006   6.0035017  43.4399987 101.5285006 157.3785017
  44.3969987 101.5285006 157.3785017  43.1999987 102.4555006 157.3785017
  41.5779987 106.1815006  11.8725017  42.5349987 106.1815006  11.8725017
  41.3379987 107.1085006  11.8725017  47.5639987 101.4995006   4.6365017
  48.5209987 101.4995006   4.6365017  47.3239987 102.4265006   4.6365017
  42.5819987  97.6415006   1.0835017  43.5389987  97.6415006   1.0835017
  42.3419987  98.5685006   1.0835017  46.2049987  99.8455006   7.0525017
  47.1619987  99.8455006   7.0525017  45.9649987 100.7725006   7.0525017
  46.8099987 106.0915006 159.2865017  47.7669987 106.0915006 159.2865017
  46.5699987 107.0185006 159.2865017  53.9439987 105.2455006   7.5655017
  54.9009987 105.2455006   7.5655017  53.7039987 106.1725006   7.5655017
  50.6349987  98.8935006 157.4435017  51.5919987  98.8935006 157.4435017
  50.3949987  99.8205006 157.4435017  48.2609987 106.2765006   9.9795017
  49.2179987 106.2765006   9.9795017  48.0209987 107.2035006   9.9795017
  51.3629987 100.7825006 159.0885017  52.3199987 100.7825006 159.0885017
  51.1229987 101.7095006 159.0885017  41.8769987 105.4165006   4.4805017
  42.8339987 105.4165006   4.4805017  41.6369987 106.3435006   4.4805017
  48.9059987 107.5265006 158.3545017  49.8629987 107.5265006 158.3545017
  48.6659987 108.4535006 158.3545017  38.9069987 103.8745006   9.8585017
  39.8639987 103.8745006   9.8585017  38.6669987 104.8015006   9.8585017
  45.8969987 103.4075006  12.0125017  46.8539987 103.4075006  12.0125017
  45.6569987 104.3345006  12.0125017  56.2669987 100.9375006 158.8655017
  57.2239987 100.9375006 158.8655017  56.0269987 101.8645006 158.8655017
  56.2569987 106.7685006  11.1445017  57.2139987 106.7685006  11.1445017
  56.0169987 107.6955006  11.1445017  51.7629987 104.6035006   5.8145017
  52.7199987 104.6035006   5.8145017  51.5229987 105.5305006   5.8145017
  40.0119987 103.9255006 157.0625017  40.9689987 103.9255006 157.0625017
  39.7719987 104.8525006 157.0625017  45.7239987 106.5085006   1.4565017
  46.6809987 106.5085006   1.4565017  45.4839987 107.4355006   1.4565017
  49.7299987 106.8195006   7.5085017  50.6869987 106.8195006   7.5085017
  49.4899987 107.7465006   7.5085017  51.9569987 107.7465006 157.1415017
  52.9139987 107.7465006 157.1415017  51.7169987 108.6735006 157.1415017
  40.5459987  98.5845006   9.3685017  41.5029987  98.5845006   9.3685017
  40.3059987  99.5115006   9.3685017  52.7859987 106.3945006 159.3385017
  53.7429987 106.3945006 159.3385017  52.5459987 107.3215006 159.3385017
  41.4489987 105.6865006 158.5595017  42.4059987 105.6865006 158.5595017
  41.2089987 106.6135006 158.5595017  49.2639987  98.3645006   8.3035017
  50.2209987  98.3645006   8.3035017  49.0239987  99.2915006   8.3035017
  49.9659987  98.0045006 159.8715017  50.9229987  98.0045006 159.8715017
  49.7259987  98.9315006 159.8715017  47.2169987  99.7345006   0.2125017
  48.1739987  99.7345006   0.2125017  46.9769987 100.6615006   0.2125017
  47.7939987 100.7115006   9.4075017  48.7509987 100.7115006   9.4075017
  47.5539987 101.6385006   9.4075017  48.0299987  96.7675006   1.0715017
  48.9869987  96.7675006   1.0715017  47.7899987  97.6945006   1.0715017
  43.7799987  97.8565006 158.3715017  44.7369987  97.8565006 158.3715017
  43.5399987  98.7835006 158.3715017  53.9889987  98.5915006  10.2575017
  54.9459987  98.5915006  10.2575017  53.7489987  99.5185006  10.2575017
  52.5759987 102.3905006   4.3165017  53.5329987 102.3905006   4.3165017
  52.3359987 103.3175006   4.3165017  40.3049987 101.6835006 156.1655017
  41.2619987 101.6835006 156.1655017  40.0649987 102.6105006 156.1655017
  41.1559987  95.7535006   4.7325017  42.1129987  95.7535006   4.7325017
  40.9159987  96.6805006   4.7325017  39.2849987 106.0745006  13.0975017
  40.2419987 106.0745006  13.0975017  39.0449987 107.0015006  13.0975017
  43.5739987 106.4395006 155.7505017  44.5309987 106.4395006 155.7505017
  43.3339987 107.3665006 155.7505017  45.9379987 106.0395006  12.5605017
  46.8949987 106.0395006  12.5605017  45.6979987 106.9665006  12.5605017
  48.8709987 107.4905006 155.5385017  49.8279987 107.4905006 155.5385017
  48.6309987 108.4175006 155.5385017  51.6039987 105.9675006   9.9355017
  52.5609987 105.9675006   9.9355017  51.3639987 106.8945006   9.9355017
  40.1259987 103.3475006  12.5485017  41.0829987 103.3475006  12.5485017
  39.8859987 104.2745006  12.5485017  44.7629987 104.4615006 158.1235017
  45.7199987 104.4615006 158.1235017  44.5229987 105.3885006 158.1235017
  44.0499987 102.2755006   9.9165017  45.0069987 102.2755006   9.9165017
  43.8099987 103.2025006   9.9165017  45.8369987 102.6475006 156.3645017
  46.7939987 102.6475006 156.3645017  45.5969987 103.5745006 156.3645017
  49.0999987 104.8085006  13.1945017  50.0569987 104.8085006  13.1945017
  48.8599987 105.7355006  13.1945017  55.2149987 104.9935006 155.7955017
  56.1719987 104.9935006 155.7955017  54.9749987 105.9205006 155.7955017
  44.4399987  99.6525006  10.9855017  45.3969987  99.6525006  10.9855017
  44.1999987 100.5795006  10.9855017  44.8429987  98.0295006   8.5185017
  45.7999987  98.0295006   8.5185017  44.6029987  98.9565006   8.5185017
  46.4009987 103.5105006   8.7665017  47.3579987 103.5105006   8.7665017
  46.1609987 104.4375006   8.7665017  50.7919987 101.2775006  13.7395017
  51.7489987 101.2775006  13.7395017  50.5519987 102.2045006  13.7395017
  52.1319987 104.0635006  11.8695017  53.0889987 104.0635006  11.8695017
  51.8919987 104.9905006  11.8695017  42.8969987 100.8845006  12.9035017
  43.8539987 100.8845006  12.9035017  42.6569987 101.8115006  12.9035017
  45.6379987  95.4675006   8.9245017  46.5949987  95.4675006   8.9245017
  45.3979987  96.3945006   8.9245017  46.9089987  99.7975006  12.5225017
  47.8659987  99.7975006  12.5225017  46.6689987 100.7245006  12.5225017
  49.6259987  98.9335006  11.5995017  50.5829987  98.9335006  11.5995017
  49.3859987  99.8605006  11.5995017  51.2219987  97.5635006  13.5395017
  52.1789987  97.5635006  13.5395017  50.9819987  98.4905006  13.5395017
  40.9969987  98.8205006  12.6315017  41.9539987  98.8205006  12.6315017
  40.7569987  99.7475006  12.6315017  45.8479987  94.8365006  11.6155017
  46.8049987  94.8365006  11.6155017  45.6079987  95.7635006  11.6155017
  46.2149987  96.4705006  13.7045017  47.1719987  96.4705006  13.7045017
  45.9749987  97.3975006  13.7045017  39.3299987 107.7815006 156.7475017
  40.2869987 107.7815006 156.7475017  39.0899987 108.7085006 156.7475017
  54.3049987 107.5675006  13.7245017  55.2619987 107.5675006  13.7245017
  54.0649987 108.4945006  13.7245017  55.6949987 105.8665006 159.7605017
  56.6519987 105.8665006 159.7605017  55.4549987 106.7935006 159.7605017
  56.0809987 103.9585006   1.0745017  57.0379987 103.9585006   1.0745017
  55.8409987 104.8855006   1.0745017  55.9389987 106.7135006   6.0795017
  56.8959987 106.7135006   6.0795017  55.6989987 107.6405006   6.0795017
  56.3749987 103.7905006 158.0115017  57.3319987 103.7905006 158.0115017
  56.1349987 104.7175006 158.0115017  54.7389987 101.0555006 156.5335017
  55.6959987 101.0555006 156.5335017  54.4989987 101.9825006 156.5335017
  53.9049987 102.4485006   1.6385017  54.8619987 102.4485006   1.6385017
  53.6649987 103.3755006   1.6385017  38.8669987 104.5065006   5.6855017
  39.8239987 104.5065006   5.6855017  38.6269987 105.4335006   5.6855017
  54.7399987 104.4525006  11.2935017  55.6969987 104.4525006  11.2935017
  54.4999987 105.3795006  11.2935017  56.2489987 102.3355006  11.9805017
  57.2059987 102.3355006  11.9805017  56.0089987 103.2625006  11.9805017
  53.9659987  98.5395006 155.6815017  54.9229987  98.5395006 155.6815017
  53.7259987  99.4665006 155.6815017  53.5639987 100.0515006 160.5895017
  54.5209987 100.0515006 160.5895017  53.3239987 100.9785006 160.5895017
  54.2029987 100.6075006   5.5495017  55.1599987 100.6075006   5.5495017
  53.9629987 101.5345006   5.5495017  54.2539987 101.3105006   8.3265017
  55.2109987 101.3105006   8.3265017  54.0139987 102.2375006   8.3265017
  38.5029987  99.8545006  11.8295017  39.4599987  99.8545006  11.8295017
  38.2629987 100.7815006  11.8295017  56.5249987  95.3645006  13.6745017
  57.4819987  95.3645006  13.6745017  56.2849987  96.2915006  13.6745017
  54.2669987  97.3055006   0.1085017  55.2239987  97.3055006   0.1085017
  54.0269987  98.2325006   0.1085017  39.7119987  98.1415006   4.6995017
  40.6689987  98.1415006   4.6995017  39.4719987  99.0685006   4.6995017
  37.9649987 101.1705006   5.7255017  38.9219987 101.1705006   5.7255017
  37.7249987 102.0975006   5.7255017  56.0549987  97.4705006  12.0265017
  57.0119987  97.4705006  12.0265017  55.8149987  98.3975006  12.0265017
  56.0449987  97.3505006 157.2725017  57.0019987  97.3505006 157.2725017
  55.8049987  98.2775006 157.2725017  38.3509987  97.4545006 160.4365017
  39.3079987  97.4545006 160.4365017  38.1109987  98.3815006 160.4365017
  38.3219987  96.0885006   8.1195017  39.2789987  96.0885006   8.1195017
  38.0819987  97.0155006   8.1195017  55.0689987  95.5655006   9.8635017
  56.0259987  95.5655006   9.8635017  54.8289987  96.4925006   9.8635017
  48.4499987  97.0025006   4.1715017  49.4069987  97.0025006   4.1715017
  48.2099987  97.9295006   4.1715017  53.6369987  95.0605006   4.2585017
  54.5939987  95.0605006   4.2585017  53.3969987  95.9875006   4.2585017
  55.2959987  96.2705006   2.5525017  56.2529987  96.2705006   2.5525017
  55.0559987  97.1975006   2.5525017  40.8189987  95.6185006   2.0335017
  41.7759987  95.6185006   2.0335017  40.5789987  96.5455006   2.0335017
  39.9129987  95.5185006 158.2795017  40.8699987  95.5185006 158.2795017
  39.6729987  96.4455006 158.2795017  45.3239987  95.5415006   1.7935017
  46.2809987  95.5415006   1.7935017  45.0839987  96.4685006   1.7935017
  51.0739987  95.1685006   3.7575017  52.0309987  95.1685006   3.7575017
  50.8339987  96.0955006   3.7575017  52.2919987  95.5575006 159.5865017
  53.2489987  95.5575006 159.5865017  52.0519987  96.4845006 159.5865017
  41.6479987  96.8835006 156.9835017  42.6049987  96.8835006 156.9835017
  41.4079987  97.8105006 156.9835017  46.4719987  97.5865006 159.1905017
  47.4289987  97.5865006 159.1905017  46.2319987  98.5135006 159.1905017
  40.7229987  96.1615006  11.4625017  41.6799987  96.1615006  11.4625017
  40.4829987  97.0885006  11.4625017  42.7289987  95.5355006  13.0765017
  43.6859987  95.5355006  13.0765017  42.4889987  96.4625006  13.0765017
  51.1309987  94.8415006  13.2395017  52.0879987  94.8415006  13.2395017
  50.8909987  95.7685006  13.2395017  68.7369987 104.7805006   1.9105017
  69.6939987 104.7805006   1.9105017  68.4969987 105.7075006   1.9105017
  67.6299987 104.0295006   5.3695017  68.5869987 104.0295006   5.3695017
  67.3899987 104.9565006   5.3695017  59.9979987 103.6735006   6.9155017
  60.9549987 103.6735006   6.9155017  59.7579987 104.6005006   6.9155017
  71.2049987 106.7955006   3.5685017  72.1619987 106.7955006   3.5685017
  70.9649987 107.7225006   3.5685017  61.0369987 107.5925006   5.8435017
  61.9939987 107.5925006   5.8435017  60.7969987 108.5195006   5.8435017
  57.5589987 101.7015006   0.9045017  58.5159987 101.7015006   0.9045017
  57.3189987 102.6285006   0.9045017  58.2629987 103.9405006   3.0435017
  59.2199987 103.9405006   3.0435017  58.0229987 104.8675006   3.0435017
  65.9899987 106.4105006   5.8305017  66.9469987 106.4105006   5.8305017
  65.7499987 107.3375006   5.8305017  74.6579987  98.0825006   6.5635017
  75.6149987  98.0825006   6.5635017  74.4179987  99.0095006   6.5635017
  69.1829987 100.8895006   6.1365017  70.1399987 100.8895006   6.1365017
  68.9429987 101.8165006   6.1365017  62.3049987  98.9735006   3.3705017
  63.2619987  98.9735006   3.3705017  62.0649987  99.9005006   3.3705017
  70.0349987  99.0645006   1.7405017  70.9919987  99.0645006   1.7405017
  69.7949987  99.9915006   1.7405017  58.9259987 101.3825006   4.1085017
  59.8829987 101.3825006   4.1085017  58.6859987 102.3095006   4.1085017
  64.0879987 102.9515006   3.3945017  65.0449987 102.9515006   3.3945017
  63.8479987 103.8785006   3.3945017  75.2049987 100.1145006   9.0235017
  76.1619987 100.1145006   9.0235017  74.9649987 101.0415006   9.0235017
  61.1889987  97.8725006   7.4135017  62.1459987  97.8725006   7.4135017
  60.9489987  98.7995006   7.4135017  68.5349987 107.3815006   0.9625017
  69.4919987 107.3815006   0.9625017  68.2949987 108.3085006   0.9625017
  63.7169987 105.5365006   7.6725017  64.6739987 105.5365006   7.6725017
  63.4769987 106.4635006   7.6725017  71.8239987  98.3995006   3.7245017
  72.7809987  98.3995006   3.7245017  71.5839987  99.3265006   3.7245017
  60.7519987  99.7445006   5.4215017  61.7089987  99.7445006   5.4215017
  60.5119987 100.6715006   5.4215017  62.1499987 107.5485006   8.4025017
  63.1069987 107.5485006   8.4025017  61.9099987 108.4755006   8.4025017
  58.2109987 107.0705006 159.8855017  59.1679987 107.0705006 159.8855017
  57.9709987 107.9975006 159.8855017  72.2119987  97.1325006   7.4685017
  73.1689987  97.1325006   7.4685017  71.9719987  98.0595006   7.4685017
  65.1579987  95.2045006   4.8715017  66.1149987  95.2045006   4.8715017
  64.9179987  96.1315006   4.8715017  73.0449987 107.1245006   9.5455017
  74.0019987 107.1245006   9.5455017  72.8049987 108.0515006   9.5455017
  67.4439987 103.9985006 159.9365017  68.4009987 103.9985006 159.9365017
  67.2039987 104.9255006 159.9365017  67.5039987 102.5405006 156.9455017
  68.4609987 102.5405006 156.9455017  67.2639987 103.4675006 156.9455017
  74.8109987 103.3985006   7.6845017  75.7679987 103.3985006   7.6845017
  74.5709987 104.3255006   7.6845017  70.8519987 104.1865006   0.3045017
  71.8089987 104.1865006   0.3045017  70.6119987 105.1135006   0.3045017
  70.7299987 102.2825006   9.4165017  71.6869987 102.2825006   9.4165017
  70.4899987 103.2095006   9.4165017  62.4869987 104.8645006   2.2175017
  63.4439987 104.8645006   2.2175017  62.2469987 105.7915006   2.2175017
  62.8249987 103.6485006   5.8735017  63.7819987 103.6485006   5.8735017
  62.5849987 104.5755006   5.8735017  63.1619987   0.0185006  10.6705017
  64.1189987   0.0185006  10.6705017  62.9219987   0.9455006  10.6705017
  69.7479987 103.3985006 158.5185017  70.7049987 103.3985006 158.5185017
  69.5079987 104.3255006 158.5185017  60.7109987 104.2205006   9.7745017
  61.6679987 104.2205006   9.7745017  60.4709987 105.1475006   9.7745017
  73.4709987  95.1375006 158.3955017  74.4279987  95.1375006 158.3955017
  73.2309987  96.0645006 158.3955017  61.4779987 103.9125006 160.3825017
  62.4349987 103.9125006 160.3825017  61.2379987 104.8395006 160.3825017
  57.4909987 106.3095006   8.7025017  58.4479987 106.3095006   8.7025017
  57.2509987 107.2365006   8.7025017  72.7059987 101.2175006  11.6775017
  73.6629987 101.2175006  11.6775017  72.4659987 102.1445006  11.6775017
  59.8359987 107.5685006   9.6435017  60.7929987 107.5685006   9.6435017
  59.5959987 108.4955006   9.6435017  62.5059987  96.0995006   5.6335017
  63.4629987  96.0995006   5.6335017  62.2659987  97.0265006   5.6335017
  67.1649987  95.7305006   8.9405017  68.1219987  95.7305006   8.9405017
  66.9249987  96.6575006   8.9405017  70.4939987  99.6045006   9.8975017
  71.4509987  99.6045006   9.8975017  70.2539987 100.5315006   9.8975017
  71.2009987 104.4125006 156.2705017  72.1579987 104.4125006 156.2705017
  70.9609987 105.3395006 156.2705017  66.8029987  98.3495006 156.8385017
  67.7599987  98.3495006 156.8385017  66.5629987  99.2765006 156.8385017
  62.6059987 101.0755006   6.8415017  63.5629987 101.0755006   6.8415017
  62.3659987 102.0025006   6.8415017  62.5709987 101.2295006   1.7225017
  63.5279987 101.2295006   1.7225017  62.3309987 102.1565006   1.7225017
  68.0829987 101.6985006   0.5095017  69.0399987 101.6985006   0.5095017
  67.8429987 102.6255006   0.5095017  67.1599987 101.9335006  11.9695017
  68.1169987 101.9335006  11.9695017  66.9199987 102.8605006  11.9695017
  69.1219987 101.1795006   3.3445017  70.0789987 101.1795006   3.3445017
  68.8819987 102.1065006   3.3445017  60.2509987 101.3545006   8.5745017
  61.2079987 101.3545006   8.5745017  60.0109987 102.2815006   8.5745017
  63.6309987  98.7325006 155.9515017  64.5879987  98.7325006 155.9515017
  63.3909987  99.6595006 155.9515017  56.8979987  98.4655006   2.5185017
  57.8549987  98.4655006   2.5185017  56.6579987  99.3925006   2.5185017
  58.1719987  99.1765006 158.4365017  59.1289987  99.1765006 158.4365017
  57.9319987 100.1035006 158.4365017  68.3029987 102.7735006   7.9115017
  69.2599987 102.7735006   7.9115017  68.0629987 103.7005006   7.9115017
  65.1309987  98.7395006   2.7455017  66.0879987  98.7395006   2.7455017
  64.8909987  99.6665006   2.7455017  59.9499987 100.3155006   1.6075017
  60.9069987 100.3155006   1.6075017  59.7099987 101.2425006   1.6075017
  63.5959987 100.3405006 159.7775017  64.5529987 100.3405006 159.7775017
  63.3559987 101.2675006 159.7775017  69.5439987  97.9775006   6.0005017
  70.5009987  97.9775006   6.0005017  69.3039987  98.9045006   6.0005017
  62.2879987 101.5295006 157.3715017  63.2449987 101.5295006 157.3715017
  62.0479987 102.4565006 157.3715017  60.4329987 106.1835006  11.8715017
  61.3899987 106.1835006  11.8715017  60.1929987 107.1105006  11.8715017
  66.4179987 101.5015006   4.6365017  67.3749987 101.5015006   4.6365017
  66.1779987 102.4285006   4.6365017  61.4329987  97.6525006   1.0745017
  62.3899987  97.6525006   1.0745017  61.1929987  98.5795006   1.0745017
  65.0649987  99.8575006   7.0365017  66.0219987  99.8575006   7.0365017
  64.8249987 100.7845006   7.0365017  65.6669987 106.0905006 159.2875017
  66.6239987 106.0905006 159.2875017  65.4269987 107.0175006 159.2875017
  72.8439987 105.2495006   7.4385017  73.8009987 105.2495006   7.4385017
  72.6039987 106.1765006   7.4385017  69.4869987  98.8835006 157.4695017
  70.4439987  98.8835006 157.4695017  69.2469987  99.8105006 157.4695017
  67.0859987 106.2705006   9.9795017  68.0429987 106.2705006   9.9795017
  66.8459987 107.1975006   9.9795017  70.2159987 100.7845006 159.1125017
  71.1729987 100.7845006 159.1125017  69.9759987 101.7115006 159.1125017
  60.7229987 105.4115006   4.4845017  61.6799987 105.4115006   4.4845017
  60.4829987 106.3385006   4.4845017  67.7609987 107.5275006 158.3535017
  68.7179987 107.5275006 158.3535017  67.5209987 108.4545006 158.3535017
  57.7509987 103.8535006   9.8195017  58.7079987 103.8535006   9.8195017
  57.5109987 104.7805006   9.8195017  64.7479987 103.4115006  12.0105017
  65.7049987 103.4115006  12.0105017  64.5079987 104.3385006  12.0105017
  75.1199987 100.9385006 158.8675017  76.0769987 100.9385006 158.8675017
  74.8799987 101.8655006 158.8675017  75.1429987 106.8105006  11.1485017
  76.0999987 106.8105006  11.1485017  74.9029987 107.7375006  11.1485017
  70.5979987 104.5875006   5.7975017  71.5549987 104.5875006   5.7975017
  70.3579987 105.5145006   5.7975017  58.8879987 103.7325006 157.0515017
  59.8449987 103.7325006 157.0515017  58.6479987 104.6595006 157.0515017
  64.5799987 106.5085006   1.4555017  65.5369987 106.5085006   1.4555017
  64.3399987 107.4355006   1.4555017  68.4049987 106.7375006   7.4025017
  69.3619987 106.7375006   7.4025017  68.1649987 107.6645006   7.4025017
  70.8129987 107.7465006 157.1415017  71.7699987 107.7465006 157.1415017
  70.5729987 108.6735006 157.1415017  59.3989987  98.5945006   9.3625017
  60.3559987  98.5945006   9.3625017  59.1589987  99.5215006   9.3625017
  71.6409987 106.3975006 159.3405017  72.5979987 106.3975006 159.3405017
  71.4009987 107.3245006 159.3405017  60.2929987 105.6835006 158.5395017
  61.2499987 105.6835006 158.5395017  60.0529987 106.6105006 158.5395017
  68.1289987  98.3505006   8.2905017  69.0859987  98.3505006   8.2905017
  67.8889987  99.2775006   8.2905017  68.8829987  97.9475006 159.9385017
  69.8399987  97.9475006 159.9385017  68.6429987  98.8745006 159.9385017
  66.0999987  99.7015006   0.2195017  67.0569987  99.7015006   0.2195017
  65.8599987 100.6285006   0.2195017  66.6609987 100.7325006   9.3815017
  67.6179987 100.7325006   9.3815017  66.4209987 101.6595006   9.3815017
  66.9609987  96.7585006   1.1255017  67.9179987  96.7585006   1.1255017
  66.7209987  97.6855006   1.1255017  62.6189987  97.8525006 158.3815017
  63.5759987  97.8525006 158.3815017  62.3789987  98.7795006 158.3815017
  72.8809987  98.5825006  10.2225017  73.8379987  98.5825006  10.2225017
  72.6409987  99.5095006  10.2225017  71.4479987 102.3675006   4.2895017
  72.4049987 102.3675006   4.2895017  71.2079987 103.2945006   4.2895017
  59.1949987 100.9635006 156.5565017  60.1519987 100.9635006 156.5565017
  58.9549987 101.8905006 156.5565017  60.0089987  95.7525006   4.7295017
  60.9659987  95.7525006   4.7295017  59.7689987  96.6795006   4.7295017
  58.1419987 106.0755006  13.0995017  59.0989987 106.0755006  13.0995017
  57.9019987 107.0025006  13.0995017  62.4169987 106.4225006 155.7465017
  63.3739987 106.4225006 155.7465017  62.1769987 107.3495006 155.7465017
  64.8009987 106.0375006  12.5595017  65.7579987 106.0375006  12.5595017
  64.5609987 106.9645006  12.5595017  67.7269987 107.4905006 155.5365017
  68.6839987 107.4905006 155.5365017  67.4869987 108.4175006 155.5365017
  70.0999987 106.7635006   9.4025017  71.0569987 106.7635006   9.4025017
  69.8599987 107.6905006   9.4025017  58.9839987 103.3445006  12.5495017
  59.9409987 103.3445006  12.5495017  58.7439987 104.2715006  12.5495017
  63.6289987 104.4575006 158.1285017  64.5859987 104.4575006 158.1285017
  63.3889987 105.3845006 158.1285017  62.9059987 102.2755006   9.9155017
  63.8629987 102.2755006   9.9155017  62.6659987 103.2025006   9.9155017
  64.7029987 102.6445006 156.3645017  65.6599987 102.6445006 156.3645017
  64.4629987 103.5715006 156.3645017  67.9619987 104.8135006  13.1975017
  68.9189987 104.8135006  13.1975017  67.7219987 105.7405006  13.1975017
  74.0719987 104.9925006 155.7955017  75.0289987 104.9925006 155.7955017
  73.8319987 105.9195006 155.7955017  63.2649987  99.6635006  10.9775017
  64.2219987  99.6635006  10.9775017  63.0249987 100.5905006  10.9775017
  63.6909987  98.0375006   8.5115017  64.6479987  98.0375006   8.5115017
  63.4509987  98.9645006   8.5115017  65.2569987 103.5095006   8.7655017
  66.2139987 103.5095006   8.7655017  65.0169987 104.4365006   8.7655017
  69.6519987 101.2645006  13.7935017  70.6089987 101.2645006  13.7935017
  69.4119987 102.1915006  13.7935017  70.7049987 103.7455006  12.3075017
  71.6619987 103.7455006  12.3075017  70.4649987 104.6725006  12.3075017
  61.7559987 100.8835006  12.8995017  62.7129987 100.8835006  12.8995017
  61.5159987 101.8105006  12.8995017  64.4949987  95.4655006   8.9035017
  65.4519987  95.4655006   8.9035017  64.2549987  96.3925006   8.9035017
  65.7209987  99.8965006  12.5435017  66.6779987  99.8965006  12.5435017
  65.4809987 100.8235006  12.5435017  68.5189987  99.0255006  11.6365017
  69.4759987  99.0255006  11.6365017  68.2789987  99.9525006  11.6365017
  70.1809987  97.5615006  13.5855017  71.1379987  97.5615006  13.5855017
  69.9409987  98.4885006  13.5855017  59.8529987  98.8195006  12.6315017
  60.8099987  98.8195006  12.6315017  59.6129987  99.7465006  12.6315017
  64.4999987  94.5595006  11.5385017  65.4569987  94.5595006  11.5385017
  64.2599987  95.4865006  11.5385017  64.5689987  96.3065006  13.9935017
  65.5259987  96.3065006  13.9935017  64.3289987  97.2335006  13.9935017
  58.1869987 107.7895006 156.7465017  59.1439987 107.7895006 156.7465017
  57.9469987 108.7165006 156.7465017  73.1679987 107.5775006  13.7365017
  74.1249987 107.5775006  13.7365017  72.9279987 108.5045006  13.7365017
  74.5519987 105.8665006 159.7605017  75.5089987 105.8665006 159.7605017
  74.3119987 106.7935006 159.7605017  74.9379987 103.9645006   1.0785017
  75.8949987 103.9645006   1.0785017  74.6979987 104.8915006   1.0785017
  74.6799987 106.7115006   6.0285017  75.6369987 106.7115006   6.0285017
  74.4399987 107.6385006   6.0285017  75.2309987 103.7905006 158.0115017
  76.1879987 103.7905006 158.0115017  74.9909987 104.7175006 158.0115017
  73.5989987 101.0545006 156.5275017  74.5559987 101.0545006 156.5275017
  73.3589987 101.9815006 156.5275017  72.7529987 102.4595006   1.6435017
  73.7099987 102.4595006   1.6435017  72.5129987 103.3865006   1.6435017
  57.7449987 104.5545006   5.6755017  58.7019987 104.5545006   5.6755017
  57.5049987 105.4815006   5.6755017  74.0229987 104.4115006  11.7925017
  74.9799987 104.4115006  11.7925017  73.7829987 105.3385006  11.7925017
  75.1649987 102.2295006  11.9935017  76.1219987 102.2295006  11.9935017
  74.9249987 103.1565006  11.9935017  72.8369987  98.5135006 155.6645017
  73.7939987  98.5135006 155.6645017  72.5969987  99.4405006 155.6645017
  72.4049987 100.0515006 160.6145017  73.3619987 100.0515006 160.6145017
  72.1649987 100.9785006 160.6145017  73.0649987 100.5525006   5.5605017
  74.0219987 100.5525006   5.5605017  72.8249987 101.4795006   5.5605017
  73.0629987 101.3345006   8.2695017  74.0199987 101.3345006   8.2695017
  72.8229987 102.2615006   8.2695017  57.3629987  99.8485006  11.8365017
  58.3199987  99.8485006  11.8365017  57.1229987 100.7755006  11.8365017
  75.3589987  95.3635006  13.6595017  76.3159987  95.3635006  13.6595017
  75.1189987  96.2905006  13.6595017  73.0769987  97.3345006   0.1465017
  74.0339987  97.3345006   0.1465017  72.8369987  98.2615006   0.1465017
  58.5679987  98.1395006   4.6965017  59.5249987  98.1395006   4.6965017
  58.3279987  99.0665006   4.6965017  56.8559987 101.1265006   5.7455017
  57.8129987 101.1265006   5.7455017  56.6159987 102.0535006   5.7455017
  74.9079987  97.4955006  11.9985017  75.8649987  97.4955006  11.9985017
  74.6679987  98.4225006  11.9985017  74.9059987  97.3735006 157.2425017
  75.8629987  97.3735006 157.2425017  74.6659987  98.3005006 157.2425017
  57.2149987  97.4165006 160.3665017  58.1719987  97.4165006 160.3665017
  56.9749987  98.3435006 160.3665017  57.1749987  96.0715006   8.1205017
  58.1319987  96.0715006   8.1205017  56.9349987  96.9985006   8.1205017
  73.9629987  95.6185006   9.7995017  74.9199987  95.6185006   9.7995017
  73.7229987  96.5455006   9.7995017  67.3229987  96.9975006   4.1615017
  68.2799987  96.9975006   4.1615017  67.0829987  97.9245006   4.1615017
  72.4569987  95.0575006   4.2495017  73.4139987  95.0575006   4.2495017
  72.2169987  95.9845006   4.2495017  74.1349987  96.2765006   2.5285017
  75.0919987  96.2765006   2.5285017  73.8949987  97.2035006   2.5285017
  59.6929987  95.6265006   2.0015017  60.6499987  95.6265006   2.0015017
  59.4529987  96.5535006   2.0015017  58.4559987  95.3795006 158.3005017
  59.4129987  95.3795006 158.3005017  58.2159987  96.3065006 158.3005017
  64.1829987  95.5485006   1.7895017  65.1399987  95.5485006   1.7895017
  63.9429987  96.4755006   1.7895017  69.8509987  95.5725006   3.4295017
  70.8079987  95.5725006   3.4295017  69.6109987  96.4995006   3.4295017
  71.1479987  95.6045006 159.6535017  72.1049987  95.6045006 159.6535017
  70.9079987  96.5315006 159.6535017  60.3079987  97.3285006 156.7935017
  61.2649987  97.3285006 156.7935017  60.0679987  98.2555006 156.7935017
  65.3309987  97.5815006 159.1885017  66.2879987  97.5815006 159.1885017
  65.0909987  98.5085006 159.1885017  59.5859987  96.1645006  11.4625017
  60.5429987  96.1645006  11.4625017  59.3459987  97.0915006  11.4625017
  61.5729987  95.5375006  13.0705017  62.5299987  95.5375006  13.0705017
  61.3329987  96.4645006  13.0705017  69.9899987  94.8365006  13.2445017
  70.9469987  94.8365006  13.2445017  69.7499987  95.7635006  13.2445017
  87.5609987 104.7545006   1.9555017  88.5179987 104.7545006   1.9555017
  87.3209987 105.6815006   1.9555017  86.3209987 104.3865006   5.6205017
  87.2779987 104.3865006   5.6205017  86.0809987 105.3135006   5.6205017
  78.8589987 103.6725006   6.9115017  79.8159987 103.6725006   6.9115017
  78.6189987 104.5995006   6.9115017  90.0219987 106.8025006   3.5615017
  90.9789987 106.8025006   3.5615017  89.7819987 107.7295006   3.5615017
  79.8869987 107.5795006   5.8415017  80.8439987 107.5795006   5.8415017
  79.6469987 108.5065006   5.8415017  76.4139987 101.7045006   0.9035017
  77.3709987 101.7045006   0.9035017  76.1739987 102.6315006   0.9035017
  77.1179987 103.9395006   3.0435017  78.0749987 103.9395006   3.0435017
  76.8779987 104.8665006   3.0435017  84.8269987 106.4355006   5.8425017
  85.7839987 106.4355006   5.8425017  84.5869987 107.3625006   5.8425017
  93.4709987  98.1005006   6.6065017  94.4279987  98.1005006   6.6065017
  93.2309987  99.0275006   6.6065017  87.9979987 100.8865006   6.1235017
  88.9549987 100.8865006   6.1235017  87.7579987 101.8135006   6.1235017
  81.1499987  98.9775006   3.3735017  82.1069987  98.9775006   3.3735017
  80.9099987  99.9045006   3.3735017  88.8949987  99.0465006   1.7135017
  89.8519987  99.0465006   1.7135017  88.6549987  99.9735006   1.7135017
  77.7799987 101.3825006   4.1075017  78.7369987 101.3825006   4.1075017
  77.5399987 102.3095006   4.1075017  82.9779987 102.9455006   3.3765017
  83.9349987 102.9455006   3.3765017  82.7379987 103.8725006   3.3765017
  93.9499987  99.4855006   8.8405017  94.9069987  99.4855006   8.8405017
  93.7099987 100.4125006   8.8405017  80.0319987  97.8635006   7.4115017
  80.9889987  97.8635006   7.4115017  79.7919987  98.7905006   7.4115017
  87.3859987 107.3675006   0.9705017  88.3429987 107.3675006   0.9705017
  87.1459987 108.2945006   0.9705017  82.5639987 105.5265006   7.6645017
  83.5209987 105.5265006   7.6645017  82.3239987 106.4535006   7.6645017
  90.6859987  98.3985006   3.7305017  91.6429987  98.3985006   3.7305017
  90.4459987  99.3255006   3.7305017  79.5989987  99.7265006   5.4375017
  80.5559987  99.7265006   5.4375017  79.3589987 100.6535006   5.4375017
  80.9929987 107.5205006   8.4055017  81.9499987 107.5205006   8.4055017
  80.7529987 108.4475006   8.4055017  77.0679987 107.0685006 159.8855017
  78.0249987 107.0685006 159.8855017  76.8279987 107.9955006 159.8855017
  91.0419987  97.0985006   7.3995017  91.9989987  97.0985006   7.3995017
  90.8019987  98.0255006   7.3995017  84.0319987  95.2025006   4.9245017
  84.9889987  95.2025006   4.9245017  83.7919987  96.1295006   4.9245017
  91.7109987 106.9795006   9.6415017  92.6679987 106.9795006   9.6415017
  91.4709987 107.9065006   9.6415017  86.2959987 103.9705006 159.9505017
  87.2529987 103.9705006 159.9505017  86.0559987 104.8975006 159.9505017
  86.3459987 102.6925006 156.9045017  87.3029987 102.6925006 156.9045017
  86.1059987 103.6195006 156.9045017  94.1789987 103.9005006   7.9645017
  95.1359987 103.9005006   7.9645017  93.9389987 104.8275006   7.9645017
  89.6759987 104.1515006   0.2965017  90.6329987 104.1515006   0.2965017
  89.4359987 105.0785006   0.2965017  89.6269987 102.3655006   9.4265017
  90.5839987 102.3655006   9.4265017  89.3869987 103.2925006   9.4265017
  81.3389987 104.8685006   2.2155017  82.2959987 104.8685006   2.2155017
  81.0989987 105.7955006   2.2155017  81.7019987 103.6225006   5.8775017
  82.6589987 103.6225006   5.8775017  81.4619987 104.5495006   5.8775017
  81.8289987   0.0095006  10.8025017  82.7859987   0.0095006  10.8025017
  81.5889987   0.9365006  10.8025017  88.6059987 103.3725006 158.5075017
  89.5629987 103.3725006 158.5075017  88.3659987 104.2995006 158.5075017
  79.5659987 104.2055006   9.7765017  80.5229987 104.2055006   9.7765017
  79.3259987 105.1325006   9.7765017  92.3279987  95.1365006 158.3965017
  93.2849987  95.1365006 158.3965017  92.0879987  96.0635006 158.3965017
  80.3339987 103.9125006 160.3825017  81.2909987 103.9125006 160.3825017
  80.0939987 104.8395006 160.3825017  76.4089987 106.2995006   8.6855017
  77.3659987 106.2995006   8.6855017  76.1689987 107.2265006   8.6855017
  91.5319987 101.2285006  11.6865017  92.4889987 101.2285006  11.6865017
  91.2919987 102.1555006  11.6865017  78.6869987 107.5665006   9.6495017
  79.6439987 107.5665006   9.6495017  78.4469987 108.4935006   9.6495017
  81.3729987  96.0935006   5.6515017  82.3299987  96.0935006   5.6515017
  81.1329987  97.0205006   5.6515017  86.1159987  95.9555006   8.9615017
  87.0729987  95.9555006   8.9615017  85.8759987  96.8825006   8.9615017
  89.2929987  99.5935006   9.8915017  90.2499987  99.5935006   9.8915017
  89.0529987 100.5205006   9.8915017  90.0559987 104.3715006 156.2745017
  91.0129987 104.3715006 156.2745017  89.8159987 105.2985006 156.2745017
  85.6829987  98.3405006 156.8745017  86.6399987  98.3405006 156.8745017
  85.4429987  99.2675006 156.8745017  81.4569987 101.0725006   6.8475017
  82.4139987 101.0725006   6.8475017  81.2169987 101.9995006   6.8475017
  81.4249987 101.2325006   1.7185017  82.3819987 101.2325006   1.7185017
  81.1849987 102.1595006   1.7185017  86.9369987 101.6995006   0.5105017
  87.8939987 101.6995006   0.5105017  86.6969987 102.6265006   0.5105017
  86.0189987 101.9085006  11.9585017  86.9759987 101.9085006  11.9585017
  85.7789987 102.8355006  11.9585017  88.1599987 101.0345006   3.1805017
  89.1169987 101.0345006   3.1805017  87.9199987 101.9615006   3.1805017
  79.0959987 101.3575006   8.5765017  80.0529987 101.3575006   8.5765017
  78.8559987 102.2845006   8.5765017  82.5039987  98.7525006 155.9705017
  83.4609987  98.7525006 155.9705017  82.2639987  99.6795006 155.9705017
  75.7479987  98.4665006   2.5095017  76.7049987  98.4665006   2.5095017
  75.5079987  99.3935006   2.5095017  77.0269987  99.1785006 158.4385017
  77.9839987  99.1785006 158.4385017  76.7869987 100.1055006 158.4385017
  87.1269987 102.7675006   7.8765017  88.0839987 102.7675006   7.8765017
  86.8869987 103.6945006   7.8765017  84.0089987  98.7935006   2.7575017
  84.9659987  98.7935006   2.7575017  83.7689987  99.7205006   2.7575017
  78.8059987 100.3155006   1.6085017  79.7629987 100.3155006   1.6085017
  78.5659987 101.2425006   1.6085017  82.4589987 100.3405006 159.7645017
  83.4159987 100.3405006 159.7645017  82.2189987 101.2675006 159.7645017
  88.3979987  98.0275006   5.9685017  89.3549987  98.0275006   5.9685017
  88.1579987  98.9545006   5.9685017  81.1529987 101.5235006 157.3745017
  82.1099987 101.5235006 157.3745017  80.9129987 102.4505006 157.3745017
  79.2859987 106.1765006  11.8735017  80.2429987 106.1765006  11.8735017
  79.0459987 107.1035006  11.8735017  84.9949987 101.2355006   4.5875017
  85.9519987 101.2355006   4.5875017  84.7549987 102.1625006   4.5875017
  80.2769987  97.6675006   1.0725017  81.2339987  97.6675006   1.0725017
  80.0369987  98.5945006   1.0725017  83.9339987  99.8685006   7.0425017
  84.8909987  99.8685006   7.0425017  83.6939987 100.7955006   7.0425017
  84.5249987 106.0885006 159.2885017  85.4819987 106.0885006 159.2885017
  84.2849987 107.0155006 159.2885017  91.5949987 105.4845006   7.6145017
  92.5519987 105.4845006   7.6145017  91.3549987 106.4115006   7.6145017
  88.5399987  98.7055006 157.5145017  89.4969987  98.7055006 157.5145017
  88.2999987  99.6325006 157.5145017  85.9889987 106.2585006   9.9865017
  86.9459987 106.2585006   9.9865017  85.7489987 107.1855006   9.9865017
  89.0619987 100.7665006 159.0545017  90.0189987 100.7665006 159.0545017
  88.8219987 101.6935006 159.0545017  79.5779987 105.4095006   4.4825017
  80.5349987 105.4095006   4.4825017  79.3379987 106.3365006   4.4825017
  86.6169987 107.5235006 158.3535017  87.5739987 107.5235006 158.3535017
  86.3769987 108.4505006 158.3535017  76.6189987 103.8455006   9.8165017
  77.5759987 103.8455006   9.8165017  76.3789987 104.7725006   9.8165017
  83.6089987 103.4085006  12.0105017  84.5659987 103.4085006  12.0105017
  83.3689987 104.3355006  12.0105017  93.9789987 100.9365006 158.8645017
  94.9359987 100.9365006 158.8645017  93.7389987 101.8635006 158.8645017
  93.9749987 106.7725006  11.1475017  94.9319987 106.7725006  11.1475017
  93.7349987 107.6995006  11.1475017  89.4279987 104.5935006   5.7915017
  90.3849987 104.5935006   5.7915017  89.1879987 105.5205006   5.7915017
  77.7489987 103.7315006 157.0495017  78.7059987 103.7315006 157.0495017
  77.5089987 104.6585006 157.0495017  83.4349987 106.5085006   1.4535017
  84.3919987 106.5085006   1.4535017  83.1949987 107.4355006   1.4535017
  87.4059987 106.7735006   7.4885017  88.3629987 106.7735006   7.4885017
  87.1659987 107.7005006   7.4885017  89.6679987 107.7455006 157.1415017
  90.6249987 107.7455006 157.1415017  89.4279987 108.6725006 157.1415017
  78.2289987  98.5715006   9.3355017  79.1859987  98.5715006   9.3355017
  77.9889987  99.4985006   9.3355017  90.4959987 106.3925006 159.3395017
  91.4529987 106.3925006 159.3395017  90.2559987 107.3195006 159.3395017
  79.1479987 105.6835006 158.5395017  80.1049987 105.6835006 158.5395017
  78.9079987 106.6105006 158.5395017  86.9779987  98.3965006   8.2865017
  87.9349987  98.3965006   8.2865017  86.7379987  99.3235006   8.2865017
  87.6979987  97.9925006 159.9465017  88.6549987  97.9925006 159.9465017
  87.4579987  98.9195006 159.9465017  84.9699987  99.7075006   0.2055017
  85.9269987  99.7075006   0.2055017  84.7299987 100.6345006   0.2055017
  85.5319987 100.7245006   9.3885017  86.4889987 100.7245006   9.3885017
  85.2919987 101.6515006   9.3885017  85.8319987  96.7655006   1.1275017
  86.7889987  96.7655006   1.1275017  85.5919987  97.6925006   1.1275017
  81.4649987  97.8785006 158.3405017  82.4219987  97.8785006 158.3405017
  81.2249987  98.8055006 158.3405017  91.6959987  98.5885006  10.2535017
  92.6529987  98.5885006  10.2535017  91.4559987  99.5155006  10.2535017
  90.2209987 102.3585006   4.2595017  91.1779987 102.3585006   4.2595017
  89.9809987 103.2855006   4.2595017  78.0519987 100.9615006 156.5545017
  79.0089987 100.9615006 156.5545017  77.8119987 101.8885006 156.5545017
  78.8539987  95.7635006   4.7405017  79.8109987  95.7635006   4.7405017
  78.6139987  96.6905006   4.7405017  76.9939987 106.0775006  13.0995017
  77.9509987 106.0775006  13.0995017  76.7539987 107.0045006  13.0995017
  81.2749987 106.4215006 155.7465017  82.2319987 106.4215006 155.7465017
  81.0349987 107.3485006 155.7465017  83.6559987 106.0375006  12.5605017
  84.6129987 106.0375006  12.5605017  83.4159987 106.9645006  12.5605017
  86.5839987 107.4885006 155.5365017  87.5409987 107.4885006 155.5365017
  86.3439987 108.4155006 155.5365017  89.3089987 105.9755006   9.9995017
  90.2659987 105.9755006   9.9995017  89.0689987 106.9025006   9.9995017
  77.8719987 103.3585006  12.5605017  78.8289987 103.3585006  12.5605017
  77.6319987 104.2855006  12.5605017  82.4849987 104.4575006 158.1275017
  83.4419987 104.4575006 158.1275017  82.2449987 105.3845006 158.1275017
  81.7609987 102.2745006   9.9175017  82.7179987 102.2745006   9.9175017
  81.5209987 103.2015006   9.9175017  83.5699987 102.6075006 156.3705017
  84.5269987 102.6075006 156.3705017  83.3299987 103.5345006 156.3705017
  86.8109987 104.8085006  13.1965017  87.7679987 104.8085006  13.1965017
  86.5709987 105.7355006  13.1965017  92.9269987 104.9935006 155.7955017
  93.8839987 104.9935006 155.7955017  92.6869987 105.9205006 155.7955017
  82.1559987  99.6575006  10.9885017  83.1129987  99.6575006  10.9885017
  81.9159987 100.5845006  10.9885017  82.5599987  98.0435006   8.5105017
  83.5169987  98.0435006   8.5105017  82.3199987  98.9705006   8.5105017
  84.1079987 103.5005006   8.7545017  85.0649987 103.5005006   8.7545017
  83.8679987 104.4275006   8.7545017  88.5059987 101.2815006  13.7395017
  89.4629987 101.2815006  13.7395017  88.2659987 102.2085006  13.7395017
  89.8559987 104.0655006  11.8625017  90.8129987 104.0655006  11.8625017
  89.6159987 104.9925006  11.8625017  80.6069987 100.8815006  12.9045017
  81.5639987 100.8815006  12.9045017  80.3669987 101.8085006  12.9045017
  83.2079987  95.5465006   8.8945017  84.1649987  95.5465006   8.8945017
  82.9679987  96.4735006   8.8945017  84.6169987  99.7975006  12.5205017
  85.5739987  99.7975006  12.5205017  84.3769987 100.7245006  12.5205017
  87.3159987  98.8875006  11.5785017  88.2729987  98.8875006  11.5785017
  87.0759987  99.8145006  11.5785017  88.8839987  97.7635006  13.5285017
  89.8409987  97.7635006  13.5285017  88.6439987  98.6905006  13.5285017
  78.6909987  98.8045006  12.6155017  79.6479987  98.8045006  12.6155017
  78.4509987  99.7315006  12.6155017  83.5239987  94.8425006  11.6525017
  84.4809987  94.8425006  11.6525017  83.2839987  95.7695006  11.6525017
  83.9219987  96.4805006  13.7005017  84.8789987  96.4805006  13.7005017
  83.6819987  97.4075006  13.7005017  77.0429987 107.7895006 156.7465017
  77.9999987 107.7895006 156.7465017  76.8029987 108.7165006 156.7465017
  92.0179987 107.5675006  13.7245017  92.9749987 107.5675006  13.7245017
  91.7779987 108.4945006  13.7245017  93.4069987 105.8675006 159.7605017
  94.3639987 105.8675006 159.7605017  93.1669987 106.7945006 159.7605017
  93.7869987 103.9575006   1.0735017  94.7439987 103.9575006   1.0735017
  93.5469987 104.8845006   1.0735017  93.5319987 106.7335006   6.0205017
  94.4889987 106.7335006   6.0205017  93.2919987 107.6605006   6.0205017
  94.0869987 103.7905006 158.0115017  95.0439987 103.7905006 158.0115017
  93.8469987 104.7175006 158.0115017  92.4209987 101.0575006 156.5275017
  93.3779987 101.0575006 156.5275017  92.1809987 101.9845006 156.5275017
  91.5729987 102.4635006   1.6175017  92.5299987 102.4635006   1.6175017
  91.3329987 103.3905006   1.6175017  76.6039987 104.5575006   5.6715017
  77.5609987 104.5575006   5.6715017  76.3639987 105.4845006   5.6715017
  92.4489987 104.4505006  11.3255017  93.4059987 104.4505006  11.3255017
  92.2089987 105.3775006  11.3255017  93.9579987 102.3285006  12.0055017
  94.9149987 102.3285006  12.0055017  93.7179987 103.2555006  12.0055017
  91.6799987  98.5265006 155.6795017  92.6369987  98.5265006 155.6795017
  91.4399987  99.4535006 155.6795017  91.2509987 100.0465006 160.5985017
  92.2079987 100.0465006 160.5985017  91.0109987 100.9735006 160.5985017
  91.9249987 100.3075006   5.5135017  92.8819987 100.3075006   5.5135017
  91.6849987 101.2345006   5.5135017  91.9699987 101.2525006   8.6325017
  92.9269987 101.2525006   8.6325017  91.7299987 102.1795006   8.6325017
  76.2239987  99.7905006  11.7865017  77.1809987  99.7905006  11.7865017
  75.9839987 100.7175006  11.7865017  94.2399987  95.3635006  13.6765017
  95.1969987  95.3635006  13.6765017  93.9999987  96.2905006  13.6765017
  91.9329987  97.3345006   0.1445017  92.8899987  97.3345006   0.1445017
  91.6929987  98.2615006   0.1445017  77.4099987  98.1395006   4.7305017
  78.3669987  98.1395006   4.7305017  77.1699987  99.0665006   4.7305017
  75.7269987 101.1025006   5.7615017  76.6839987 101.1025006   5.7615017
  75.4869987 102.0295006   5.7615017  93.7679987  97.4715006  12.0315017
  94.7249987  97.4715006  12.0315017  93.5279987  98.3985006  12.0315017
  93.7619987  97.3695006 157.2505017  94.7189987  97.3695006 157.2505017
  93.5219987  98.2965006 157.2505017  76.0769987  97.4075006 160.3615017
  77.0339987  97.4075006 160.3615017  75.8369987  98.3345006 160.3615017
  76.0869987  95.8655006   8.0175017  77.0439987  95.8655006   8.0175017
  75.8469987  96.7925006   8.0175017  92.7939987  95.5695006   9.8405017
  93.7509987  95.5695006   9.8405017  92.5539987  96.4965006   9.8405017
  86.1869987  97.0125006   4.1655017  87.1439987  97.0125006   4.1655017
  85.9469987  97.9395006   4.1655017  91.3329987  95.0845006   4.2655017
  92.2899987  95.0845006   4.2655017  91.0929987  96.0115006   4.2655017
  93.0149987  96.2565006   2.5695017  93.9719987  96.2565006   2.5695017
  92.7749987  97.1835006   2.5695017  78.5159987  95.6295006   2.0275017
  79.4729987  95.6295006   2.0275017  78.2759987  96.5565006   2.0275017
  77.2979987  95.3825006 158.2655017  78.2549987  95.3825006 158.2655017
  77.0579987  96.3095006 158.2655017  83.0589987  95.7235006   1.9175017
  84.0159987  95.7235006   1.9175017  82.8189987  96.6505006   1.9175017
  88.7079987  95.5715006   3.4295017  89.6649987  95.5715006   3.4295017
  88.4679987  96.4985006   3.4295017  90.0089987  95.6005006 159.6565017
  90.9659987  95.6005006 159.6565017  89.7689987  96.5275006 159.6565017
  79.1579987  97.3465006 156.7605017  80.1149987  97.3465006 156.7605017
  78.9179987  98.2735006 156.7605017  84.2499987  97.6005006 159.1735017
  85.2069987  97.6005006 159.1735017  84.0099987  98.5275006 159.1735017
  78.4209987  96.1645006  11.4555017  79.3779987  96.1645006  11.4555017
  78.1809987  97.0915006  11.4555017  80.4389987  95.5345006  13.0645017
  81.3959987  95.5345006  13.0645017  80.1989987  96.4615006  13.0645017
  89.2409987  95.3315006  13.5265017  90.1979987  95.3315006  13.5265017
  89.0009987  96.2585006  13.5265017 106.4199987 104.7545006   1.9285017
 107.3769987 104.7545006   1.9285017 106.1799987 105.6815006   1.9285017
 105.1099987 104.2855006   5.4085017 106.0669987 104.2855006   5.4085017
 104.8699987 105.2125006   5.4085017  97.7469987 103.6675006   6.8935017
  98.7039987 103.6675006   6.8935017  97.5069987 104.5945006   6.8935017
  98.7489987 107.5905006   5.8455017  99.7059987 107.5905006   5.8455017
  98.5089987 108.5175006   5.8455017  95.2689987 101.7015006   0.9075017
  96.2259987 101.7015006   0.9075017  95.0289987 102.6285006   0.9075017
  95.9849987 103.9595006   3.0235017  96.9419987 103.9595006   3.0235017
  95.7449987 104.8865006   3.0235017 103.7039987 106.4395006   5.8415017
 104.6609987 106.4395006   5.8415017 103.4639987 107.3665006   5.8415017
 106.3399987 100.2755006   6.3175017 107.2969987 100.2755006   6.3175017
 106.0999987 101.2025006   6.3175017  99.9989987  98.9685006   3.3805017
 100.9559987  98.9685006   3.3805017  99.7589987  99.8955006   3.3805017
 107.7179987  99.5555006   1.3375017 108.6749987  99.5555006   1.3375017
 107.4779987 100.4825006   1.3375017  96.6399987 101.3665006   4.0965017
  97.5969987 101.3665006   4.0965017  96.3999987 102.2935006   4.0965017
 101.8239987 102.9515006   3.3875017 102.7809987 102.9515006   3.3875017
 101.5839987 103.8785006   3.3875017  98.8679987  97.8435006   7.3985017
  99.8249987  97.8435006   7.3985017  98.6279987  98.7705006   7.3985017
 106.2699987 107.3735006   0.9715017 107.2269987 107.3735006   0.9715017
 106.0299987 108.3005006   0.9715017 101.4299987 105.5375006   7.6735017
 102.3869987 105.5375006   7.6735017 101.1899987 106.4645006   7.6735017
  98.4729987  99.7335006   5.4505017  99.4299987  99.7335006   5.4505017
  98.2329987 100.6605006   5.4505017  99.8599987 107.5415006   8.3995017
 100.8169987 107.5415006   8.3995017  99.6199987 108.4685006   8.3995017
  95.9229987 107.0685006 159.8855017  96.8799987 107.0685006 159.8855017
  95.6829987 107.9955006 159.8855017 102.8719987  95.2035006   4.8645017
 103.8289987  95.2035006   4.8645017 102.6319987  96.1305006   4.8645017
 105.1309987 103.9975006 159.9235017 106.0879987 103.9975006 159.9235017
 104.8909987 104.9245006 159.9235017 105.1929987 102.5355006 156.9335017
 106.1499987 102.5355006 156.9335017 104.9529987 103.4625006 156.9335017
 100.1889987 104.8655006   2.2165017 101.1459987 104.8655006   2.2165017
  99.9489987 105.7925006   2.2165017 100.5619987 103.6235006   5.8795017
 101.5189987 103.6235006   5.8795017 100.3219987 104.5505006   5.8795017
 100.8849987   0.0135006  10.6675017 101.8419987   0.0135006  10.6675017
 100.6449987   0.9405006  10.6675017 107.4629987 103.3955006 158.5385017
 108.4199987 103.3955006 158.5385017 107.2229987 104.3225006 158.5385017
  98.4279987 104.2225006   9.7705017  99.3849987 104.2225006   9.7705017
  98.1879987 105.1495006   9.7705017  99.1889987 103.9115006 160.3835017
 100.1459987 103.9115006 160.3835017  98.9489987 104.8385006 160.3835017
  95.2449987 106.3105006   8.7085017  96.2019987 106.3105006   8.7085017
  95.0049987 107.2375006   8.7085017  97.5499987 107.5815006   9.6495017
  98.5069987 107.5815006   9.6495017  97.3099987 108.5085006   9.6495017
 100.2039987  96.0825006   5.6305017 101.1609987  96.0825006   5.6305017
  99.9639987  97.0095006   5.6305017 104.8989987  95.7725006   9.0105017
 105.8559987  95.7725006   9.0105017 104.6589987  96.6995006   9.0105017
 104.5089987  98.3455006 156.8445017 105.4659987  98.3455006 156.8445017
 104.2689987  99.2725006 156.8445017 100.3109987 101.0705006   6.8465017
 101.2679987 101.0705006   6.8465017 100.0709987 101.9975006   6.8465017
 100.2789987 101.2295006   1.7225017 101.2359987 101.2295006   1.7225017
 100.0389987 102.1565006   1.7225017 105.7909987 101.7265006   0.5375017
 106.7479987 101.7265006   0.5375017 105.5509987 102.6535006   0.5375017
 104.8929987 101.9385006  11.9955017 105.8499987 101.9385006  11.9955017
 104.6529987 102.8655006  11.9955017 106.8049987 101.1115006   3.2295017
 107.7619987 101.1115006   3.2295017 106.5649987 102.0385006   3.2295017
  97.9709987 101.3535006   8.5785017  98.9279987 101.3535006   8.5785017
  97.7309987 102.2805006   8.5785017 101.3349987  98.6995006 155.9305017
 102.2919987  98.6995006 155.9305017 101.0949987  99.6265006 155.9305017
  94.5959987  98.4195006   2.5475017  95.5529987  98.4195006   2.5475017
  94.3559987  99.3465006   2.5475017  95.8829987  99.1795006 158.4375017
  96.8399987  99.1795006 158.4375017  95.6429987 100.1065006 158.4375017
 105.9899987 102.7605006   7.8715017 106.9469987 102.7605006   7.8715017
 105.7499987 103.6875006   7.8715017 102.8539987  98.7555006   2.7485017
 103.8109987  98.7555006   2.7485017 102.6139987  99.6825006   2.7485017
  97.6519987 100.3035006   1.6245017  98.6089987 100.3035006   1.6245017
  97.4119987 101.2305006   1.6245017 101.3149987 100.3435006 159.7735017
 102.2719987 100.3435006 159.7735017 101.0749987 101.2705006 159.7735017
 107.2549987  97.9015006   6.0335017 108.2119987  97.9015006   6.0335017
 107.0149987  98.8285006   6.0335017  99.9989987 101.5095006 157.3805017
 100.9559987 101.5095006 157.3805017  99.7589987 102.4365006 157.3805017
  98.1459987 106.1835006  11.8715017  99.1029987 106.1835006  11.8715017
  97.9059987 107.1105006  11.8715017 103.9989987 101.4225006   4.5665017
 104.9559987 101.4225006   4.5665017 103.7589987 102.3495006   4.5665017
  99.1489987  97.6505006   1.0725017 100.1059987  97.6505006   1.0725017
  98.9089987  98.5775006   1.0725017 102.7809987  99.8695006   7.0325017
 103.7379987  99.8695006   7.0325017 102.5409987 100.7965006   7.0325017
 103.3869987 106.0835006 159.2725017 104.3439987 106.0835006 159.2725017
 103.1469987 107.0105006 159.2725017 107.1549987  98.9045006 157.4765017
 108.1119987  98.9045006 157.4765017 106.9149987  99.8315006 157.4765017
 104.8389987 106.2695006   9.9675017 105.7959987 106.2695006   9.9675017
 104.5989987 107.1965006   9.9675017   0.1209987 100.8975006 159.1835017
   1.0779987 100.8975006 159.1835017  -0.1190013 101.8245006 159.1835017
  98.4499987 105.4185006   4.4765017  99.4069987 105.4185006   4.4765017
  98.2099987 106.3455006   4.4765017 105.4729987 107.5255006 158.3475017
 106.4299987 107.5255006 158.3475017 105.2329987 108.4525006 158.3475017
  95.5709987 103.8765006   9.9875017  96.5279987 103.8765006   9.9875017
  95.3309987 104.8035006   9.9875017 102.4679987 103.4065006  12.0105017
 103.4249987 103.4065006  12.0105017 102.2279987 104.3335006  12.0105017
  96.6039987 103.7315006 157.0505017  97.5609987 103.7315006 157.0505017
  96.3639987 104.6585006 157.0505017 102.2859987 106.5075006   1.4535017
 103.2429987 106.5075006   1.4535017 102.0459987 107.4345006   1.4535017
 106.2429987 106.7875006   7.4855017 107.1999987 106.7875006   7.4855017
 106.0029987 107.7145006   7.4855017  97.0949987  98.5775006   9.3335017
  98.0519987  98.5775006   9.3335017  96.8549987  99.5045006   9.3335017
  97.9959987 105.6815006 158.5505017  98.9529987 105.6815006 158.5505017
  97.7559987 106.6085006 158.5505017 105.8499987  98.3425006   8.3165017
 106.8069987  98.3425006   8.3165017 105.6099987  99.2695006   8.3165017
 106.3249987  98.1695006 159.9145017 107.2819987  98.1695006 159.9145017
 106.0849987  99.0965006 159.9145017 103.7879987  99.7185006   0.2025017
 104.7449987  99.7185006   0.2025017 103.5479987 100.6455006   0.2025017
 104.3539987 100.6945006   9.4055017 105.3109987 100.6945006   9.4055017
 104.1139987 101.6215006   9.4055017 104.6989987  96.7585006   1.1285017
 105.6559987  96.7585006   1.1285017 104.4589987  97.6855006   1.1285017
 100.3259987  97.8505006 158.3685017 101.2829987  97.8505006 158.3685017
 100.0859987  98.7775006 158.3685017  96.9079987 100.9615006 156.5535017
  97.8649987 100.9615006 156.5535017  96.6679987 101.8885006 156.5535017
  97.6239987  95.7895006   4.7515017  98.5809987  95.7895006   4.7515017
  97.3839987  96.7165006   4.7515017  95.8559987 106.0775006  13.1135017
  96.8129987 106.0775006  13.1135017  95.6159987 107.0045006  13.1135017
 100.0909987 106.4325006 155.7675017 101.0479987 106.4325006 155.7675017
  99.8509987 107.3595006 155.7675017 102.4919987 106.0395006  12.5665017
 103.4489987 106.0395006  12.5665017 102.2519987 106.9665006  12.5665017
 105.4879987 107.4725006 155.5455017 106.4449987 107.4725006 155.5455017
 105.2479987 108.3995006 155.5455017  96.6939987 103.3415006  12.5475017
  97.6509987 103.3415006  12.5475017  96.4539987 104.2685006  12.5475017
 101.3389987 104.4575006 158.1265017 102.2959987 104.4575006 158.1265017
 101.0989987 105.3845006 158.1265017 100.6179987 102.2775006   9.9165017
 101.5749987 102.2775006   9.9165017 100.3779987 103.2045006   9.9165017
 102.4139987 102.6105006 156.3885017 103.3709987 102.6105006 156.3885017
 102.1739987 103.5375006 156.3885017 105.6729987 104.8095006  13.2245017
 106.6299987 104.8095006  13.2245017 105.4329987 105.7365006  13.2245017
 101.0129987  99.6525006  10.9845017 101.9699987  99.6525006  10.9845017
 100.7729987 100.5795006  10.9845017 101.4049987  98.0295006   8.5225017
 102.3619987  98.0295006   8.5225017 101.1649987  98.9565006   8.5225017
 102.9829987 103.5115006   8.7635017 103.9399987 103.5115006   8.7635017
 102.7429987 104.4385006   8.7635017 107.3909987 101.2965006  13.8455017
 108.3479987 101.2965006  13.8455017 107.1509987 102.2235006  13.8455017
  99.4649987 100.8835006  12.9045017 100.4219987 100.8835006  12.9045017
  99.2249987 101.8105006  12.9045017 102.2159987  95.4735006   8.9235017
 103.1729987  95.4735006   8.9235017 101.9759987  96.4005006   8.9235017
 103.4749987  99.8035006  12.5225017 104.4319987  99.8035006  12.5225017
 103.2349987 100.7305006  12.5225017 106.1379987  98.9065006  11.5815017
 107.0949987  98.9065006  11.5815017 105.8979987  99.8335006  11.5815017
 107.7729987  97.6025006  13.5185017 108.7299987  97.6025006  13.5185017
 107.5329987  98.5295006  13.5185017  97.5649987  98.8195006  12.6315017
  98.5219987  98.8195006  12.6315017  97.3249987  99.7465006  12.6315017
 102.4119987  94.8365006  11.6155017 103.3689987  94.8365006  11.6155017
 102.1719987  95.7635006  11.6155017 102.7799987  96.4665006  13.7005017
 103.7369987  96.4665006  13.7005017 102.5399987  97.3935006  13.7005017
  95.8969987 107.7905006 156.7485017  96.8539987 107.7905006 156.7485017
  95.6569987 108.7175006 156.7485017  95.4849987 104.5785006   5.6495017
  96.4419987 104.5785006   5.6495017  95.2449987 105.5055006   5.6495017
  95.0749987  99.8455006  11.8315017  96.0319987  99.8455006  11.8315017
  94.8349987 100.7725006  11.8315017  96.5089987  98.2585006   4.4615017
  97.4659987  98.2585006   4.4615017  96.2689987  99.1855006   4.4615017
  94.6719987 101.0415006   5.7925017  95.6289987 101.0415006   5.7925017
  94.4319987 101.9685006   5.7925017  94.9359987  97.4135006 160.3835017
  95.8929987  97.4135006 160.3835017  94.6959987  98.3405006 160.3835017
  94.8739987  96.0505006   8.1095017  95.8309987  96.0505006   8.1095017
  94.6339987  96.9775006   8.1095017 105.0209987  97.0025006   4.1565017
 105.9779987  97.0025006   4.1565017 104.7809987  97.9295006   4.1565017
  97.3699987  95.6205006   2.0335017  98.3269987  95.6205006   2.0335017
  97.1299987  96.5475006   2.0335017  96.1829987  95.3855006 158.2885017
  97.1399987  95.3855006 158.2885017  95.9429987  96.3125006 158.2885017
 101.9139987  95.4895006   1.7895017 102.8709987  95.4895006   1.7895017
 101.6739987  96.4165006   1.7895017 107.4679987  95.4935006   3.5875017
 108.4249987  95.4935006   3.5875017 107.2279987  96.4205006   3.5875017
  98.0229987  97.3355006 156.7605017  98.9799987  97.3355006 156.7605017
  97.7829987  98.2625006 156.7605017 103.0449987  97.5765006 159.1905017
 104.0019987  97.5765006 159.1905017 102.8049987  98.5035006 159.1905017
  97.2919987  96.1625006  11.4645017  98.2489987  96.1625006  11.4645017
  97.0519987  97.0895006  11.4645017  99.2959987  95.5365006  13.0765017
 100.2529987  95.5365006  13.0765017  99.0559987  96.4635006  13.0765017
  -0.0900013  94.8995006  13.2665017   0.8669987  94.8995006  13.2665017
  -0.3300013  95.8265006  13.2665017  12.1989987  10.4805006  20.7405017
  13.1559987  10.4805006  20.7405017  11.9589987  11.4075006  20.7405017
  11.0709987   9.7485006  24.2255017  12.0279987   9.7485006  24.2255017
  10.8309987  10.6755006  24.2255017   3.4769987   9.3805006  25.7545017
   4.4339987   9.3805006  25.7545017   3.2369987  10.3075006  25.7545017
  14.7709987  12.6875006  22.5025017  15.7279987  12.6875006  22.5025017
  14.5309987  13.6145006  22.5025017   4.3369987  13.8535006  24.2985017
   5.2939987  13.8535006  24.2985017   4.0969987  14.7805006  24.2985017
   1.0659987   7.5265006  19.7095017   2.0229987   7.5265006  19.7095017
   0.8259987   8.4535006  19.7095017   1.6839987   9.6045006  21.8905017
   2.6409987   9.6045006  21.8905017   1.4439987  10.5315006  21.8905017
  11.8829987  17.8375006  22.7385017  12.8399987  17.8375006  22.7385017
  11.6429987  18.7645006  22.7385017   9.4479987  12.1545006  24.6675017
  10.4049987  12.1545006  24.6675017   9.2079987  13.0815006  24.6675017
  18.0549987   3.7695006  25.4285017  19.0119987   3.7695006  25.4285017
  17.8149987   4.6965006  25.4285017  12.6149987   6.5975006  24.9955017
  13.5719987   6.5975006  24.9955017  12.3749987   7.5245006  24.9955017
   5.7429987   4.6965006  22.2075017   6.6999987   4.6965006  22.2075017
   5.5029987   5.6235006  22.2075017  13.4739987   4.7815006  20.5995017
  14.4309987   4.7815006  20.5995017  13.2339987   5.7085006  20.5995017
   2.5399987   7.1485006  22.8665017   3.4969987   7.1485006  22.8665017
   2.2999987   8.0755006  22.8665017   7.5199987   8.6565006  22.2505017
   8.4769987   8.6565006  22.2505017   7.2799987   9.5835006  22.2505017
  18.5089987   5.2255006  27.6935017  19.4659987   5.2255006  27.6935017
  18.2689987   6.1525006  27.6935017   4.6359987   3.6015006  26.2845017
   5.5929987   3.6015006  26.2845017   4.3959987   4.5285006  26.2845017
  11.9369987  13.0835006  19.8145017  12.8939987  13.0835006  19.8145017
  11.6969987  14.0105006  19.8145017   7.1539987  11.2415006  26.5255017
   8.1109987  11.2415006  26.5255017   6.9139987  12.1685006  26.5255017
  15.2629987   4.1055006  22.5795017  16.2199987   4.1055006  22.5795017
  15.0229987   5.0325006  22.5795017   4.2029987   5.4545006  24.2885017
   5.1599987   5.4545006  24.2885017   3.9629987   6.3815006  24.2885017
   5.5919987  13.2295006  27.3295017   6.5489987  13.2295006  27.3295017
   5.3519987  14.1565006  27.3295017   1.6669987  12.8565006  18.0865017
   2.6239987  12.8565006  18.0865017   1.4269987  13.7835006  18.0865017
  15.2939987  14.5225006  24.8715017  16.2509987  14.5225006  24.8715017
  15.0539987  15.4495006  24.8715017  15.6329987   2.8025006  26.3345017
  16.5899987   2.8025006  26.3345017  15.3929987   3.7295006  26.3345017
   8.5609987   0.9615006  23.5915017   9.5179987   0.9615006  23.5915017
   8.3209987   1.8885006  23.5915017  13.5469987  16.3075006  21.4745017
  14.5039987  16.3075006  21.4745017  13.3069987  17.2345006  21.4745017
  14.7479987  14.2345006  19.9815017  15.7049987  14.2345006  19.9815017
  14.5079987  15.1615006  19.9815017  16.3839987  12.8155006  28.4765017
  17.3409987  12.8155006  28.4765017  16.1439987  13.7425006  28.4765017
  10.8749987   9.7255006  18.2495017  11.8319987   9.7255006  18.2495017
  10.6349987  10.6525006  18.2495017  10.9359987   8.2595006  15.2585017
  11.8929987   8.2595006  15.2585017  10.6959987   9.1865006  15.2585017
  18.2609987   9.1305006  26.5305017  19.2179987   9.1305006  26.5305017
  18.0209987  10.0575006  26.5305017  14.3119987   9.9405006  19.1635017
  15.2689987   9.9405006  19.1635017  14.0719987  10.8675006  19.1635017
  14.2349987   8.0965006  28.2765017  15.1919987   8.0965006  28.2765017
  13.9949987   9.0235006  28.2765017   5.9599987  10.6005006  21.0815017
   6.9169987  10.6005006  21.0815017   5.7199987  11.5275006  21.0815017
   7.2619987  13.9925006  23.7575017   8.2189987  13.9925006  23.7575017
   7.0219987  14.9195006  23.7575017   6.2829987   9.3415006  24.7285017
   7.2399987   9.3415006  24.7285017   6.0429987  10.2685006  24.7285017
  12.6449987  14.9025006  25.4325017  13.6019987  14.9025006  25.4325017
  12.4049987  15.8295006  25.4325017   7.2049987  13.7595006  29.4315017
   8.1619987  13.7595006  29.4315017   6.9649987  14.6865006  29.4315017
  13.1769987   9.1235006  16.8395017  14.1339987   9.1235006  16.8395017
  12.9369987  10.0505006  16.8395017   4.1249987   9.9315006  28.6215017
   5.0819987   9.9315006  28.6215017   3.8849987  10.8585006  28.6215017
  10.8979987  15.8505006  20.3015017  11.8549987  15.8505006  20.3015017
  10.6579987  16.7775006  20.3015017   5.4409987  15.8095006  30.1875017
   6.3979987  15.8095006  30.1875017   5.2009987  16.7365006  30.1875017
  16.9189987   0.8985006  16.6965017  17.8759987   0.8985006  16.6965017
  16.6789987   1.8255006  16.6965017   4.9359987   9.6185006  18.6845017
   5.8929987   9.6185006  18.6845017   4.6959987  10.5455006  18.6845017
  18.0269987  15.2145006  15.0745017  18.9839987  15.2145006  15.0745017
  17.7869987  16.1415006  15.0745017   1.1249987  12.0175006  27.5095017
   2.0819987  12.0175006  27.5095017   0.8849987  12.9445006  27.5095017
   1.0239987  14.9435006  24.0635017   1.9809987  14.9435006  24.0635017
   0.7839987  15.8705006  24.0635017  18.9869987  15.4765006  30.0495017
  19.9439987  15.4765006  30.0495017  18.7469987  16.4035006  30.0495017
   9.9459987  15.0235006  28.9135017  10.9029987  15.0235006  28.9135017
   9.7059987  15.9505006  28.9135017  10.3799987  18.7725006  18.7185017
  11.3369987  18.7725006  18.7185017  10.1399987  19.6995006  18.7185017
   4.1459987  17.6665006  20.5465017   5.1029987  17.6665006  20.5465017
   3.9059987  18.5935006  20.5465017  13.4439987  17.9775006  15.7015017
  14.4009987  17.9775006  15.7015017  13.2039987  18.9045006  15.7015017
  13.1339987  17.9045006  18.4655017  14.0909987  17.9045006  18.4655017
  12.8939987  18.8315006  18.4655017  16.1269987   6.9585006  30.5325017
  17.0839987   6.9585006  30.5325017  15.8869987   7.8855006  30.5325017
   3.2619987  13.3885006  28.5395017   4.2189987  13.3885006  28.5395017
   3.0219987  14.3155006  28.5395017   6.0039987   1.9265006  24.4145017
   6.9609987   1.9265006  24.4145017   5.7639987   2.8535006  24.4145017
  10.6079987   1.5595006  27.9025017  11.5649987   1.5595006  27.9025017
  10.3679987   2.4865006  27.9025017  13.8799987   5.2995006  28.7385017
  14.8369987   5.2995006  28.7385017  13.6399987   6.2265006  28.7385017
  14.6319987  10.1585006  14.5925017  15.5889987  10.1585006  14.5925017
  14.3919987  11.0855006  14.5925017  10.2329987   4.0655006  15.1645017
  11.1899987   4.0655006  15.1645017   9.9929987   4.9925006  15.1645017
   6.0449987   6.7915006  25.7025017   7.0019987   6.7915006  25.7025017
   5.8049987   7.7185006  25.7025017   5.9869987   6.9495006  20.5805017
   6.9439987   6.9495006  20.5805017   5.7469987   7.8765006  20.5805017
  11.5249987   7.4215006  19.3685017  12.4819987   7.4215006  19.3685017
  11.2849987   8.3485006  19.3685017  10.5979987   7.6255006  30.8115017
  11.5549987   7.6255006  30.8115017  10.3579987   8.5525006  30.8115017
  12.5529987   6.9015006  22.2015017  13.5099987   6.9015006  22.2015017
  12.3129987   7.8285006  22.2015017   3.7039987   7.0675006  27.4395017
   4.6609987   7.0675006  27.4395017   3.4639987   7.9945006  27.4395017
   7.0769987   4.4905006  14.2755017   8.0339987   4.4905006  14.2755017
   6.8369987   5.4175006  14.2755017   0.4449987   3.4705006  21.7035017
   1.4019987   3.4705006  21.7035017   0.2049987   4.3975006  21.7035017
   1.8019987   4.9135006  16.8635017   2.7589987   4.9135006  16.8635017
   1.5619987   5.8405006  16.8635017  11.7689987   8.5035006  26.7855017
  12.7259987   8.5035006  26.7855017  11.5289987   9.4305006  26.7855017
   8.5689987   4.4765006  21.5975017   9.5259987   4.4765006  21.5975017
   8.3289987   5.4035006  21.5975017   3.3969987   6.0255006  20.4595017
   4.3539987   6.0255006  20.4595017   3.1569987   6.9525006  20.4595017
   7.0219987   6.0725006  18.1015017   7.9789987   6.0725006  18.1015017
   6.7819987   6.9995006  18.1015017  12.9809987   3.6765006  24.8455017
  13.9379987   3.6765006  24.8455017  12.7409987   4.6035006  24.8455017
   5.7069987   7.2545006  15.6765017   6.6639987   7.2545006  15.6765017
   5.4669987   8.1815006  15.6765017  16.1869987  19.3475006  31.1655017
  17.1439987  19.3475006  31.1655017  15.9469987  20.2745006  31.1655017
   3.8569987  11.7945006  30.7495017   4.8139987  11.7945006  30.7495017
   3.6169987  12.7215006  30.7495017   9.8579987   7.2275006  23.4965017
  10.8149987   7.2275006  23.4965017   9.6179987   8.1545006  23.4965017
   4.8409987   3.3705006  19.9015017   5.7979987   3.3705006  19.9015017
   4.6009987   4.2975006  19.9015017   8.4909987   5.5775006  25.9045017
   9.4479987   5.5775006  25.9045017   8.2509987   6.5045006  25.9045017
   9.0799987  11.7915006  17.6005017  10.0369987  11.7915006  17.6005017
   8.8399987  12.7185006  17.6005017  16.2429987  10.9665006  26.4075017
  17.1999987  10.9665006  26.4075017  16.0029987  11.8935006  26.4075017
  12.9299987   4.6015006  15.7785017  13.8869987   4.6015006  15.7785017
  12.6899987   5.5285006  15.7785017  10.5669987  12.0295006  28.8435017
  11.5239987  12.0295006  28.8435017  10.3269987  12.9565006  28.8435017
  13.6479987   6.5055006  17.4265017  14.6049987   6.5055006  17.4265017
  13.4079987   7.4325006  17.4265017   4.1849987  11.1645006  23.4035017
   5.1419987  11.1645006  23.4035017   3.9449987  12.0915006  23.4035017
  11.1849987  13.2565006  16.6315017  12.1419987  13.2565006  16.6315017
  10.9449987  14.1835006  16.6315017   1.1629987   9.5825006  28.6805017
   2.1199987   9.5825006  28.6805017   0.9229987  10.5095006  28.6805017
   8.1889987   9.1345006  30.8635017   9.1459987   9.1345006  30.8635017
   7.9489987  10.0615006  30.8635017  12.8599987  14.4655006  28.7855017
  13.8169987  14.4655006  28.7855017  12.6199987  15.3925006  28.7855017
  18.5419987   6.6685006  17.1835017  19.4989987   6.6685006  17.1835017
  18.3019987   7.5955006  17.1835017  18.5279987  12.5185006  30.0035017
  19.4849987  12.5185006  30.0035017  18.2879987  13.4455006  30.0035017
  16.8159987  15.4875006  17.5925017  17.7729987  15.4875006  17.5925017
  16.5759987  16.4145006  17.5925017  14.0339987  10.3015006  24.6805017
  14.9909987  10.3015006  24.6805017  13.7939987  11.2285006  24.6805017
   6.5609987  14.6255006  20.7935017   7.5179987  14.6255006  20.7935017
   6.3209987  15.5525006  20.7935017   2.2869987   9.4635006  15.3835017
   3.2439987   9.4635006  15.3835017   2.0469987  10.3905006  15.3835017
   7.9799987  12.2885006  20.3125017   8.9369987  12.2885006  20.3125017
   7.7399987  13.2155006  20.3125017   8.4319987  16.4695006  26.7035017
   9.3889987  16.4695006  26.7035017   8.1919987  17.3965006  26.7035017
   6.6659987  17.2875006  19.8415017   7.6229987  17.2875006  19.8415017
   6.4259987  18.2145006  19.8415017  11.9769987  12.4975006  26.3445017
  12.9339987  12.4975006  26.3445017  11.7369987  13.4245006  26.3445017
  14.2709987  13.5325006  15.4255017  15.2279987  13.5325006  15.4255017
  14.0309987  14.4595006  15.4255017  14.7449987  17.0675006  28.8385017
  15.7019987  17.0675006  28.8385017  14.5049987  17.9945006  28.8385017
  18.7469987  17.9095006  15.6675017  19.7039987  17.9095006  15.6675017
  18.5069987  18.8365006  15.6675017   2.8199987   4.3335006  28.2475017
   3.7769987   4.3335006  28.2475017   2.5799987   5.2605006  28.2475017
  15.0669987  12.1755006  17.6595017  16.0239987  12.1755006  17.6595017
  14.8269987  13.1025006  17.6595017   2.4719987  16.1175006  26.6275017
   3.4289987  16.1175006  26.6275017   2.2319987  17.0445006  26.6275017
   8.3909987  14.6175006  13.9025017   9.3479987  14.6175006  13.9025017
   8.1509987  15.5445006  13.9025017   7.2469987  14.1465006  16.3485017
   8.2039987  14.1465006  16.3485017   7.0069987  15.0735006  16.3485017
   3.6929987  11.3765006  16.8405017   4.6499987  11.3765006  16.8405017
   3.4529987  12.3035006  16.8405017  11.5539987   4.0815006  27.1565017
  12.5109987   4.0815006  27.1565017  11.3139987   5.0085006  27.1565017
  12.3289987   3.6575006  18.2505017  13.2859987   3.6575006  18.2505017
  12.0889987   4.5845006  18.2505017   9.9979987  15.8205006  17.0805017
  10.9549987  15.8205006  17.0805017   9.7579987  16.7475006  17.0805017
   9.5449987   5.3995006  19.0775017  10.5019987   5.3995006  19.0775017
   9.3049987   6.3265006  19.0775017  10.0839987   6.4285006  28.2635017
  11.0409987   6.4285006  28.2635017   9.8439987   7.3555006  28.2635017
  10.4039987   2.4775006  19.9935017  11.3609987   2.4775006  19.9935017
  10.1639987   3.4045006  19.9935017   7.3799987  16.8555006  17.0865017
   8.3369987  16.8555006  17.0865017   7.1399987  17.7825006  17.0865017
   6.0459987   3.5805006  16.6785017   7.0029987   3.5805006  16.6785017
   5.8059987   4.5075006  16.6785017  16.2749987   4.3255006  29.1015017
  17.2319987   4.3255006  29.1015017  16.0349987   5.2525006  29.1015017
  14.8749987   8.0935006  23.1415017  15.8319987   8.0935006  23.1415017
  14.6349987   9.0205006  23.1415017   4.2879987  14.0295006  15.7375017
   5.2449987  14.0295006  15.7375017   4.0479987  14.9565006  15.7375017
   2.5779987   6.6945006  14.9135017   3.5349987   6.6945006  14.9135017
   2.3379987   7.6215006  14.9135017  15.9439987  17.3385006  24.8045017
  16.9009987  17.3385006  24.8045017  15.7039987  18.2655006  24.8045017
   3.2179987   1.6595006  23.4565017   4.1749987   1.6595006  23.4565017
   2.9779987   2.5865006  23.4565017   2.4829987  14.9815006  19.5265017
   3.4399987  14.9815006  19.5265017   2.2429987  15.9085006  19.5265017
   1.7139987  17.9865006  30.9675017   2.6709987  17.9865006  30.9675017
   1.4739987  18.9135006  30.9675017   6.2699987  16.9475006  32.6495017
   7.2269987  16.9475006  32.6495017   6.0299987  17.8745006  32.6495017
  10.3969987  16.4725006  14.0385017  11.3539987  16.4725006  14.0385017
  10.1569987  17.3995006  14.0385017  12.8009987  15.3385006  31.3825017
  13.7579987  15.3385006  31.3825017  12.5609987  16.2655006  31.3825017
  14.9679987  16.2305006  14.2375017  15.9249987  16.2305006  14.2375017
  14.7279987  17.1575006  14.2375017   1.5079987  11.8265006  32.0225017
   2.4649987  11.8265006  32.0225017   1.2679987  12.7535006  32.0225017
   5.8669987  12.1655006  14.0715017   6.8239987  12.1655006  14.0715017
   5.6269987  13.0925006  14.0715017   8.2309987  11.8025006  31.4175017
   9.1879987  11.8025006  31.4175017   7.9909987  12.7295006  31.4175017
  11.2829987  13.2575006  13.8315017  12.2399987  13.2575006  13.8315017
  11.0429987  14.1845006  13.8315017  13.9349987  11.6725006  28.8045017
  14.8919987  11.6725006  28.8045017  13.6949987  12.5995006  28.8045017
   2.3719987   9.0285006  31.4025017   3.3289987   9.0285006  31.4025017
   2.1319987   9.9555006  31.4025017   7.0599987  10.1735006  16.4565017
   8.0169987  10.1735006  16.4565017   6.8199987  11.1005006  16.4565017
   6.3389987   7.9985006  28.7735017   7.2959987   7.9985006  28.7735017
   6.0989987   8.9255006  28.7735017   8.1329987   8.3935006  14.6815017
   9.0899987   8.3935006  14.6815017   7.8929987   9.3205006  14.6815017
  11.3939987  10.5435006  32.0885017  12.3509987  10.5435006  32.0885017
  11.1539987  11.4705006  32.0885017  17.4899987  10.7245006  14.1075017
  18.4469987  10.7245006  14.1075017  17.2499987  11.6515006  14.1075017
   6.7239987   5.3685006  29.8375017   7.6809987   5.3685006  29.8375017
   6.4839987   6.2955006  29.8375017   7.1399987   3.7415006  27.3755017
   8.0969987   3.7415006  27.3755017   6.8999987   4.6685006  27.3755017
   8.6809987   9.2185006  27.6205017   9.6379987   9.2185006  27.6205017
   8.4409987  10.1455006  27.6205017  13.0799987   6.9975006  32.5965017
  14.0369987   6.9975006  32.5965017  12.8399987   7.9245006  32.5965017
  14.4049987   9.7885006  30.7365017  15.3619987   9.7885006  30.7365017
  14.1649987  10.7155006  30.7365017   5.1789987   6.6255006  31.7515017
   6.1359987   6.6255006  31.7515017   4.9389987   7.5525006  31.7515017
   8.0039987   1.2295006  27.6505017   8.9609987   1.2295006  27.6505017
   7.7639987   2.1565006  27.6505017   9.1909987   5.5175006  31.3745017
  10.1479987   5.5175006  31.3745017   8.9509987   6.4445006  31.3745017
  11.9089987   4.6865006  30.4685017  12.8659987   4.6865006  30.4685017
  11.6689987   5.6135006  30.4685017  13.5389987   3.3055006  32.4045017
  14.4959987   3.3055006  32.4045017  13.2989987   4.2325006  32.4045017
   3.3269987   4.5335006  31.5055017   4.2839987   4.5335006  31.5055017
   3.0869987   5.4605006  31.5055017   8.7149987 108.5285006  30.5225017
   9.6719987 108.5285006  30.5225017   8.4749987 109.4555006  30.5225017
   8.4869987   2.2525006  32.6115017   9.4439987   2.2525006  32.6115017
   8.2469987   3.1795006  32.6115017   7.9809987  19.0905006  15.7405017
   8.9379987  19.0905006  15.7405017   7.7409987  20.0175006  15.7405017
   1.5919987  13.7115006  15.2075017   2.5489987  13.7115006  15.2075017
   1.3519987  14.6385006  15.2075017 108.0989987  19.1395006  20.2055017
 109.0559987  19.1395006  20.2055017 107.8589987  20.0665006  20.2055017
   1.4639987  17.3235006  22.2565017   2.4209987  17.3235006  22.2565017
   1.2239987  18.2505006  22.2565017  18.6619987  17.9915006  25.0045017
  19.6189987  17.9915006  25.0045017  18.4219987  18.9185006  25.0045017
  18.2409987  17.5875006  27.9485017  19.1979987  17.5875006  27.9485017
  18.0009987  18.5145006  27.9485017  16.6839987  13.3185006  32.6025017
  17.6409987  13.3185006  32.6025017  16.4439987  14.2455006  32.6025017
  17.9899987  11.6315006  18.0585017  18.9469987  11.6315006  18.0585017
  17.7499987  12.5585006  18.0585017  18.3639987   9.7025006  19.9265017
  19.3209987   9.7025006  19.9265017  18.1239987  10.6295006  19.9265017
  18.1199987  12.4185006  24.9095017  19.0769987  12.4185006  24.9095017
  17.8799987  13.3455006  24.9095017  16.6659987  15.3155006  27.1905017
  17.6229987  15.3155006  27.1905017  16.4259987  16.2425006  27.1905017
  18.6629987   9.5395006  16.3235017  19.6199987   9.5395006  16.3235017
  18.4229987  10.4665006  16.3235017  17.0299987   6.7835006  14.8455017
  17.9869987   6.7835006  14.8455017  16.7899987   7.7105006  14.8455017
  16.1759987   8.1875006  20.4905017  17.1329987   8.1875006  20.4905017
  15.9359987   9.1145006  20.4905017   1.1829987  10.2585006  24.5535017
   2.1399987  10.2585006  24.5535017   0.9429987  11.1855006  24.5535017
  17.0269987  10.1575006  30.1695017  17.9839987  10.1575006  30.1695017
  16.7869987  11.0845006  30.1695017  18.5359987   8.0505006  30.8345017
  19.4929987   8.0505006  30.8345017  18.2959987   8.9775006  30.8345017
  16.2559987   4.2595006  14.0015017  17.2129987   4.2595006  14.0015017
  16.0159987   5.1865006  14.0015017  15.8349987   5.7775006  18.9275017
  16.7919987   5.7775006  18.9275017  15.5949987   6.7045006  18.9275017
  16.4779987   6.3245006  24.3885017  17.4349987   6.3245006  24.3885017
  16.2379987   7.2515006  24.3885017  16.5409987   7.0545006  27.1755017
  17.4979987   7.0545006  27.1755017  16.3009987   7.9815006  27.1755017
   0.8829987   5.5385006  30.6185017   1.8399987   5.5385006  30.6185017
   0.6429987   6.4655006  30.6185017  18.7479987   1.1835006  32.4755017
  19.7049987   1.1835006  32.4755017  18.5079987   2.1105006  32.4755017
  16.5179987   3.0485006  18.9795017  17.4749987   3.0485006  18.9795017
  16.2779987   3.9755006  18.9795017   2.0499987   3.9345006  23.5505017
   3.0069987   3.9345006  23.5505017   1.8099987   4.8615006  23.5505017
   0.8849987   6.8355006  24.7595017   1.8419987   6.8355006  24.7595017
   0.6449987   7.7625006  24.7595017  18.3379987   3.2085006  30.8695017
  19.2949987   3.2085006  30.8695017  18.0979987   4.1355006  30.8695017
  18.3519987   3.1195006  15.5635017  19.3089987   3.1195006  15.5635017
  18.1119987   4.0465006  15.5635017   0.8769987   3.0315006  18.7105017
   1.8339987   3.0315006  18.7105017   0.6369987   3.9585006  18.7105017
  15.3889987  18.0755006  20.6205017  16.3459987  18.0755006  20.6205017
  15.1489987  19.0025006  20.6205017 108.3449987   1.8565006  27.0435017
 109.3019987   1.8565006  27.0435017 108.1049987   2.7835006  27.0435017
   2.8159987  15.0105006  31.1525017   3.7729987  15.0105006  31.1525017
   2.5759987  15.9375006  31.1525017   5.7339987  15.9785006  27.4105017
   6.6909987  15.9785006  27.4105017   5.4939987  16.9055006  27.4105017
  10.0569987  17.4035006  30.3255017  11.0139987  17.4035006  30.3255017
   9.8169987  18.3305006  30.3255017  12.3549987  18.6725006  29.6145017
  13.3119987  18.6725006  29.6145017  12.1149987  19.5995006  29.6145017
  17.4429987   1.4265006  28.6695017  18.3999987   1.4265006  28.6695017
  17.2029987   2.3535006  28.6695017   3.1499987  19.2345006  27.4415017
   4.1069987  19.2345006  27.4415017   2.9099987  20.1615006  27.4415017
   5.6459987  18.8165006  26.4855017   6.6029987  18.8165006  26.4855017
   5.4059987  19.7435006  26.4855017  10.3359987  18.7155006  25.6495017
  11.2929987  18.7155006  25.6495017  10.0959987  19.6425006  25.6495017
  12.6419987  17.5465006  26.6475017  13.5989987  17.5465006  26.6475017
  12.4019987  18.4735006  26.6475017  15.2209987  19.1105006  26.9055017
  16.1779987  19.1105006  26.9055017  14.9809987  20.0375006  26.9055017
   2.6409987  17.8905006  24.4085017   3.5979987  17.8905006  24.4085017
   2.4009987  18.8175006  24.4085017   4.6739987  16.5765006  22.9835017
   5.6309987  16.5765006  22.9835017   4.4339987  17.5035006  22.9835017
   7.2669987  17.0625006  23.8735017   8.2239987  17.0625006  23.8735017
   7.0269987  17.9895006  23.8735017  10.7439987   2.7455006  23.0125017
  11.7009987   2.7455006  23.0125017  10.5039987   3.6725006  23.0125017
  15.9379987   1.0935006  23.2795017  16.8949987   1.0935006  23.2795017
  15.6979987   2.0205006  23.2795017  17.5879987   1.9995006  21.3805017
  18.5449987   1.9995006  21.3805017  17.3479987   2.9265006  21.3805017
   3.1179987   1.3415006  20.7865017   4.0749987   1.3415006  20.7865017
   2.8779987   2.2685006  20.7865017   2.1929987   1.5025006  16.9645017
   3.1499987   1.5025006  16.9645017   1.9529987   2.4295006  16.9645017
   7.6329987   1.3325006  20.6375017   8.5899987   1.3325006  20.6375017
   7.3929987   2.2595006  20.6375017  13.2219987   1.3265006  22.2825017
  14.1789987   1.3265006  22.2825017  12.9819987   2.2535006  22.2825017
  14.5769987   1.3535006  18.0265017  15.5339987   1.3535006  18.0265017
  14.3369987   2.2805006  18.0265017   1.9219987  17.0795006  17.5335017
   2.8789987  17.0795006  17.5335017   1.6819987  18.0065006  17.5335017
   3.7389987   3.0435006  15.0625017   4.6959987   3.0435006  15.0625017
   3.4989987   3.9705006  15.0625017   8.7359987   3.3105006  17.5135017
   9.6929987   3.3105006  17.5135017   8.4959987   4.2375006  17.5135017
  10.6769987  18.3375006  15.9505017  11.6339987  18.3375006  15.9505017
  10.4369987  19.2645006  15.9505017  17.3899987  17.8635006  18.6535017
  18.3469987  17.8635006  18.6535017  17.1499987  18.7905006  18.6535017
   2.9889987   1.9195006  30.3805017   3.9459987   1.9195006  30.3805017
   2.7489987   2.8465006  30.3805017   5.0099987   1.2515006  31.9275017
   5.9669987   1.2515006  31.9275017   4.7699987   2.1785006  31.9275017
   3.5849987  17.9995006  14.5475017   4.5419987  17.9995006  14.5475017
   3.3449987  18.9265006  14.5475017  13.4939987 108.3835006  31.9545017
  14.4509987 108.3835006  31.9545017  13.2539987 109.3105006  31.9545017
  16.6249987  16.6005006  30.7495017  17.5819987  16.6005006  30.7495017
  16.3849987  17.5275006  30.7495017  31.0559987  10.4805006  20.7395017
  32.0129987  10.4805006  20.7395017  30.8159987  11.4075006  20.7395017
  29.9349987   9.7505006  24.2225017  30.8919987   9.7505006  24.2225017
  29.6949987  10.6775006  24.2225017  22.2779987   9.4075006  25.7865017
  23.2349987   9.4075006  25.7865017  22.0379987  10.3345006  25.7865017
  33.6269987  12.6875006  22.5025017  34.5839987  12.6875006  22.5025017
  33.3869987  13.6145006  22.5025017  23.2099987  13.8535006  24.2965017
  24.1669987  13.8535006  24.2965017  22.9699987  14.7805006  24.2965017
  19.8569987   7.4275006  19.7585017  20.8139987   7.4275006  19.7585017
  19.6169987   8.3545006  19.7585017  20.5509987   9.6675006  21.8895017
  21.5079987   9.6675006  21.8895017  20.3109987  10.5945006  21.8895017
  30.7379987  17.8335006  22.7435017  31.6949987  17.8335006  22.7435017
  30.4979987  18.7605006  22.7435017  28.3039987  12.1615006  24.6795017
  29.2609987  12.1615006  24.6795017  28.0639987  13.0885006  24.6795017
  36.9359987   3.7595006  25.4275017  37.8929987   3.7595006  25.4275017
  36.6959987   4.6865006  25.4275017  31.4709987   6.5985006  24.9955017
  32.4279987   6.5985006  24.9955017  31.2309987   7.5255006  24.9955017
  24.7369987   4.6935006  22.1215017  25.6939987   4.6935006  22.1215017
  24.4969987   5.6205006  22.1215017  32.3279987   4.7815006  20.6005017
  33.2849987   4.7815006  20.6005017  32.0879987   5.7085006  20.6005017
  21.0969987   7.1305006  22.9275017  22.0539987   7.1305006  22.9275017
  20.8569987   8.0575006  22.9275017  26.3769987   8.6545006  22.2475017
  27.3339987   8.6545006  22.2475017  26.1369987   9.5815006  22.2475017
  37.3679987   5.2215006  27.6905017  38.3249987   5.2215006  27.6905017
  37.1279987   6.1485006  27.6905017  23.6649987   3.7055006  26.9085017
  24.6219987   3.7055006  26.9085017  23.4249987   4.6325006  26.9085017
  30.7929987  13.0835006  19.8145017  31.7499987  13.0835006  19.8145017
  30.5529987  14.0105006  19.8145017  26.0029987  11.2355006  26.5025017
  26.9599987  11.2355006  26.5025017  25.7629987  12.1625006  26.5025017
  34.1209987   4.1035006  22.5785017  35.0779987   4.1035006  22.5785017
  33.8809987   5.0305006  22.5785017  23.2389987   6.2585006  23.9145017
  24.1959987   6.2585006  23.9145017  22.9989987   7.1855006  23.9145017
  24.4029987  13.2155006  27.2495017  25.3599987  13.2155006  27.2495017
  24.1629987  14.1425006  27.2495017  20.5339987  12.8675006  18.1285017
  21.4909987  12.8675006  18.1285017  20.2939987  13.7945006  18.1285017
  34.1489987  14.5235006  24.8705017  35.1059987  14.5235006  24.8705017
  33.9089987  15.4505006  24.8705017  34.4949987   2.8045006  26.3305017
  35.4519987   2.8045006  26.3305017  34.2549987   3.7315006  26.3305017
  27.4439987   0.9645006  23.5875017  28.4009987   0.9645006  23.5875017
  27.2039987   1.8915006  23.5875017  32.4019987  16.3075006  21.4735017
  33.3589987  16.3075006  21.4735017  32.1619987  17.2345006  21.4735017
  33.6039987  14.2345006  19.9815017  34.5609987  14.2345006  19.9815017
  33.3639987  15.1615006  19.9815017  35.2409987  12.8155006  28.4765017
  36.1979987  12.8155006  28.4765017  35.0009987  13.7425006  28.4765017
  29.7309987   9.7255006  18.2495017  30.6879987   9.7255006  18.2495017
  29.4909987  10.6525006  18.2495017  29.7919987   8.2595006  15.2585017
  30.7489987   8.2595006  15.2585017  29.5519987   9.1865006  15.2585017
  37.1159987   9.1305006  26.5295017  38.0729987   9.1305006  26.5295017
  36.8759987  10.0575006  26.5295017  33.1679987   9.9405006  19.1635017
  34.1249987   9.9405006  19.1635017  32.9279987  10.8675006  19.1635017
  33.0909987   8.0965006  28.2765017  34.0479987   8.0965006  28.2765017
  32.8509987   9.0235006  28.2765017  24.7929987  10.6025006  21.0735017
  25.7499987  10.6025006  21.0735017  24.5529987  11.5295006  21.0735017
  26.1119987  13.9895006  23.7595017  27.0689987  13.9895006  23.7595017
  25.8719987  14.9165006  23.7595017  25.1249987   9.3395006  24.7295017
  26.0819987   9.3395006  24.7295017  24.8849987  10.2665006  24.7295017
  31.5019987  14.9015006  25.4435017  32.4589987  14.9015006  25.4435017
  31.2619987  15.8285006  25.4435017  25.7419987  13.5355006  29.4365017
  26.6989987  13.5355006  29.4365017  25.5019987  14.4625006  29.4365017
  32.0329987   9.1235006  16.8395017  32.9899987   9.1235006  16.8395017
  31.7929987  10.0505006  16.8395017  22.9969987   9.9295006  28.6125017
  23.9539987   9.9295006  28.6125017  22.7569987  10.8565006  28.6125017
  29.7539987  15.8505006  20.3005017  30.7109987  15.8505006  20.3005017
  29.5139987  16.7775006  20.3005017  24.2729987  15.8535006  30.1855017
  25.2299987  15.8535006  30.1855017  24.0329987  16.7805006  30.1855017
  35.7749987   0.8985006  16.6965017  36.7319987   0.8985006  16.6965017
  35.5349987   1.8255006  16.6965017  23.7599987   9.6225006  18.6915017
  24.7169987   9.6225006  18.6915017  23.5199987  10.5495006  18.6915017
  36.8829987  15.2145006  15.0745017  37.8399987  15.2145006  15.0745017
  36.6429987  16.1415006  15.0745017  19.8539987  12.0435006  27.5595017
  20.8109987  12.0435006  27.5595017  19.6139987  12.9705006  27.5595017
  19.6079987  14.7795006  24.3625017  20.5649987  14.7795006  24.3625017
  19.3679987  15.7065006  24.3625017  37.8479987  15.4805006  30.0485017
  38.8049987  15.4805006  30.0485017  37.6079987  16.4075006  30.0485017
  29.0219987  15.3445006  28.2245017  29.9789987  15.3445006  28.2245017
  28.7819987  16.2715006  28.2245017  29.2369987  18.7745006  18.7215017
  30.1939987  18.7745006  18.7215017  28.9969987  19.7015006  18.7215017
  22.8769987  17.6375006  20.5245017  23.8339987  17.6375006  20.5245017
  22.6369987  18.5645006  20.5245017  32.3049987  17.9835006  15.7055017
  33.2619987  17.9835006  15.7055017  32.0649987  18.9105006  15.7055017
  31.9879987  17.9015006  18.4625017  32.9449987  17.9015006  18.4625017
  31.7479987  18.8285006  18.4625017  34.9839987   6.9585006  30.5325017
  35.9409987   6.9585006  30.5325017  34.7439987   7.8855006  30.5325017
  22.1219987  13.3625006  28.5275017  23.0789987  13.3625006  28.5275017
  21.8819987  14.2895006  28.5275017  24.9969987   1.7295006  24.5335017
  25.9539987   1.7295006  24.5335017  24.7569987   2.6565006  24.5335017
  29.4649987   1.5585006  27.9025017  30.4219987   1.5585006  27.9025017
  29.2249987   2.4855006  27.9025017  32.7379987   5.3025006  28.7415017
  33.6949987   5.3025006  28.7415017  32.4979987   6.2295006  28.7415017
  33.4879987  10.1585006  14.5925017  34.4449987  10.1585006  14.5925017
  33.2479987  11.0855006  14.5925017  29.0889987   4.0655006  15.1645017
  30.0459987   4.0655006  15.1645017  28.8489987   4.9925006  15.1645017
  24.9499987   6.8175006  25.7735017  25.9069987   6.8175006  25.7735017
  24.7099987   7.7445006  25.7735017  24.8509987   6.9765006  20.5555017
  25.8079987   6.9765006  20.5555017  24.6109987   7.9035006  20.5555017
  30.3809987   7.4215006  19.3685017  31.3379987   7.4215006  19.3685017
  30.1409987   8.3485006  19.3685017  29.4549987   7.6235006  30.8115017
  30.4119987   7.6235006  30.8115017  29.2149987   8.5505006  30.8115017
  31.4099987   6.9015006  22.2015017  32.3669987   6.9015006  22.2015017
  31.1699987   7.8285006  22.2015017  22.5319987   7.0835006  27.4345017
  23.4889987   7.0835006  27.4345017  22.2919987   8.0105006  27.4345017
  25.9219987   4.4935006  14.2825017  26.8789987   4.4935006  14.2825017
  25.6819987   5.4205006  14.2825017  19.1399987   4.2315006  21.3015017
  20.0969987   4.2315006  21.3015017  18.8999987   5.1585006  21.3015017
  20.4649987   4.9265006  16.7705017  21.4219987   4.9265006  16.7705017
  20.2249987   5.8535006  16.7705017  30.6359987   8.5035006  26.7905017
  31.5929987   8.5035006  26.7905017  30.3959987   9.4305006  26.7905017
  27.4499987   4.4725006  21.5875017  28.4069987   4.4725006  21.5875017
  27.2099987   5.3995006  21.5875017  22.2479987   6.0635006  20.4415017
  23.2049987   6.0635006  20.4415017  22.0079987   6.9905006  20.4415017
  25.8829987   6.0695006  18.0995017  26.8399987   6.0695006  18.0995017
  25.6429987   6.9965006  18.0995017  31.8369987   3.6755006  24.8455017
  32.7939987   3.6755006  24.8455017  31.5969987   4.6025006  24.8455017
  24.5749987   7.2505006  15.6835017  25.5319987   7.2505006  15.6835017
  24.3349987   8.1775006  15.6835017  35.0599987  19.3085006  31.1595017
  36.0169987  19.3085006  31.1595017  34.8199987  20.2355006  31.1595017
  22.7129987  11.8085006  30.7385017  23.6699987  11.8085006  30.7385017
  22.4729987  12.7355006  30.7385017  28.7189987   7.2295006  23.4975017
  29.6759987   7.2295006  23.4975017  28.4789987   8.1565006  23.4975017
  23.7389987   3.4225006  19.8635017  24.6959987   3.4225006  19.8635017
  23.4989987   4.3495006  19.8635017  27.3639987   5.5915006  25.8975017
  28.3209987   5.5915006  25.8975017  27.1239987   6.5185006  25.8975017
  27.9359987  11.7925006  17.5995017  28.8929987  11.7925006  17.5995017
  27.6959987  12.7195006  17.5995017  35.0989987  10.9665006  26.4075017
  36.0559987  10.9665006  26.4075017  34.8589987  11.8935006  26.4075017
  31.7859987   4.6015006  15.7785017  32.7429987   4.6015006  15.7785017
  31.5459987   5.5285006  15.7785017  29.4289987  12.0225006  28.8325017
  30.3859987  12.0225006  28.8325017  29.1889987  12.9495006  28.8325017
  32.5029987   6.5055006  17.4255017  33.4599987   6.5055006  17.4255017
  32.2629987   7.4325006  17.4255017  23.0389987  11.1525006  23.4025017
  23.9959987  11.1525006  23.4025017  22.7989987  12.0795006  23.4025017
  30.0419987  13.2545006  16.6315017  30.9989987  13.2545006  16.6315017
  29.8019987  14.1815006  16.6315017  20.0309987   9.5815006  28.6725017
  20.9879987   9.5815006  28.6725017  19.7909987  10.5085006  28.6725017
  27.0369987   9.0895006  30.8825017  27.9939987   9.0895006  30.8825017
  26.7969987  10.0165006  30.8825017  31.7039987  14.4565006  28.7935017
  32.6609987  14.4565006  28.7935017  31.4639987  15.3835006  28.7935017
  37.3979987   6.6685006  17.1825017  38.3549987   6.6685006  17.1825017
  37.1579987   7.5955006  17.1825017  37.3869987  12.5135006  30.0005017
  38.3439987  12.5135006  30.0005017  37.1469987  13.4405006  30.0005017
  35.6779987  15.4835006  17.5955017  36.6349987  15.4835006  17.5955017
  35.4379987  16.4105006  17.5955017  32.8899987  10.3015006  24.6805017
  33.8469987  10.3015006  24.6805017  32.6499987  11.2285006  24.6805017
  25.4139987  14.6255006  20.7855017  26.3709987  14.6255006  20.7855017
  25.1739987  15.5525006  20.7855017  21.1749987   9.4715006  15.3565017
  22.1319987   9.4715006  15.3565017  20.9349987  10.3985006  15.3565017
  26.8379987  12.2895006  20.3125017  27.7949987  12.2895006  20.3125017
  26.5979987  13.2165006  20.3125017  27.2689987  16.4865006  26.6715017
  28.2259987  16.4865006  26.6715017  27.0289987  17.4135006  26.6715017
  25.5099987  17.2925006  19.8505017  26.4669987  17.2925006  19.8505017
  25.2699987  18.2195006  19.8505017  30.8239987  12.4885006  26.3285017
  31.7809987  12.4885006  26.3285017  30.5839987  13.4155006  26.3285017
  33.1269987  13.5325006  15.4255017  34.0839987  13.5325006  15.4255017
  32.8869987  14.4595006  15.4255017  33.5939987  17.0615006  28.8305017
  34.5509987  17.0615006  28.8305017  33.3539987  17.9885006  28.8305017
  37.6029987  17.9055006  15.6605017  38.5599987  17.9055006  15.6605017
  37.3629987  18.8325006  15.6605017  21.6459987   4.3375006  28.2935017
  22.6029987   4.3375006  28.2935017  21.4059987   5.2645006  28.2935017
  33.9239987  12.1755006  17.6595017  34.8809987  12.1755006  17.6595017
  33.6839987  13.1025006  17.6595017  21.3039987  16.1115006  26.6505017
  22.2609987  16.1115006  26.6505017  21.0639987  17.0385006  26.6505017
  27.2469987  14.6175006  13.9045017  28.2039987  14.6175006  13.9045017
  27.0069987  15.5445006  13.9045017  26.0669987  14.1485006  16.3605017
  27.0239987  14.1485006  16.3605017  25.8269987  15.0755006  16.3605017
  22.5799987  11.3945006  16.8505017  23.5369987  11.3945006  16.8505017
  22.3399987  12.3215006  16.8505017  30.4089987   4.0805006  27.1555017
  31.3659987   4.0805006  27.1555017  30.1689987   5.0075006  27.1555017
  31.1789987   3.6595006  18.2535017  32.1359987   3.6595006  18.2535017
  30.9389987   4.5865006  18.2535017  28.8529987  15.8195006  17.0795017
  29.8099987  15.8195006  17.0795017  28.6129987  16.7465006  17.0795017
  28.4019987   5.3995006  19.0765017  29.3589987   5.3995006  19.0765017
  28.1619987   6.3265006  19.0765017  28.9379987   6.4275006  28.2625017
  29.8949987   6.4275006  28.2625017  28.6979987   7.3545006  28.2625017
  29.2599987   2.4765006  19.9935017  30.2169987   2.4765006  19.9935017
  29.0199987   3.4035006  19.9935017  26.2339987  16.8555006  17.0905017
  27.1909987  16.8555006  17.0905017  25.9939987  17.7825006  17.0905017
  24.8999987   3.5775006  16.6775017  25.8569987   3.5775006  16.6775017
  24.6599987   4.5045006  16.6775017  35.1309987   4.3205006  29.0995017
  36.0879987   4.3205006  29.0995017  34.8909987   5.2475006  29.0995017
  33.7309987   8.0935006  23.1415017  34.6879987   8.0935006  23.1415017
  33.4909987   9.0205006  23.1415017  23.1419987  14.0115006  15.7325017
  24.0989987  14.0115006  15.7325017  22.9019987  14.9385006  15.7325017
  21.4829987   6.6855006  14.8655017  22.4399987   6.6855006  14.8655017
  21.2429987   7.6125006  14.8655017  34.7909987  17.3825006  24.8305017
  35.7479987  17.3825006  24.8305017  34.5509987  18.3095006  24.8305017
  21.7699987   1.4165006  23.3385017  22.7269987   1.4165006  23.3385017
  21.5299987   2.3435006  23.3385017  21.2499987  15.3895006  19.7345017
  22.2069987  15.3895006  19.7345017  21.0099987  16.3165006  19.7345017
  20.4709987  18.0415006  31.0355017  21.4279987  18.0415006  31.0355017
  20.2309987  18.9685006  31.0355017  25.1289987  16.9535006  32.6545017
  26.0859987  16.9535006  32.6545017  24.8889987  17.8805006  32.6545017
  29.2529987  16.4725006  14.0385017  30.2099987  16.4725006  14.0385017
  29.0129987  17.3995006  14.0385017  31.6899987  15.3305006  31.3735017
  32.6469987  15.3305006  31.3735017  31.4499987  16.2575006  31.3735017
  33.8239987  16.2305006  14.2375017  34.7809987  16.2305006  14.2375017
  33.5839987  17.1575006  14.2375017  20.3899987  11.8235006  32.0215017
  21.3469987  11.8235006  32.0215017  20.1499987  12.7505006  32.0215017
  24.7219987  12.1645006  14.0715017  25.6789987  12.1645006  14.0715017
  24.4819987  13.0915006  14.0715017  27.0469987  11.7615006  31.4495017
  28.0039987  11.7615006  31.4495017  26.8069987  12.6885006  31.4495017
  30.1389987  13.2575006  13.8315017  31.0959987  13.2575006  13.8315017
  29.8989987  14.1845006  13.8315017  32.7969987  11.6695006  28.7965017
  33.7539987  11.6695006  28.7965017  32.5569987  12.5965006  28.7965017
  21.2839987   9.0425006  31.4085017  22.2409987   9.0425006  31.4085017
  21.0439987   9.9695006  31.4085017  25.9169987  10.1725006  16.4565017
  26.8739987  10.1725006  16.4565017  25.6769987  11.0995006  16.4565017
  25.1939987   7.9975006  28.7735017  26.1509987   7.9975006  28.7735017
  24.9539987   8.9245006  28.7735017  26.9899987   8.3945006  14.6795017
  27.9469987   8.3945006  14.6795017  26.7499987   9.3215006  14.6795017
  30.2429987  10.5385006  32.0615017  31.1999987  10.5385006  32.0615017
  30.0029987  11.4655006  32.0615017  36.3459987  10.7245006  14.1075017
  37.3029987  10.7245006  14.1075017  36.1059987  11.6515006  14.1075017
  25.5799987   5.3665006  29.8365017  26.5369987   5.3665006  29.8365017
  25.3399987   6.2935006  29.8365017  26.1079987   3.7265006  27.3885017
  27.0649987   3.7265006  27.3885017  25.8679987   4.6535006  27.3885017
  27.5379987   9.2265006  27.6235017  28.4949987   9.2265006  27.6235017
  27.2979987  10.1535006  27.6235017  31.9369987   7.0005006  32.5955017
  32.8939987   7.0005006  32.5955017  31.6969987   7.9275006  32.5955017
  33.2589987   9.7835006  30.7195017  34.2159987   9.7835006  30.7195017
  33.0189987  10.7105006  30.7195017  24.0449987   6.6135006  31.7765017
  25.0019987   6.6135006  31.7765017  23.8049987   7.5405006  31.7765017
  26.8669987   1.2205006  27.6645017  27.8239987   1.2205006  27.6645017
  26.6269987   2.1475006  27.6645017  28.0409987   5.5135006  31.3715017
  28.9979987   5.5135006  31.3715017  27.8009987   6.4405006  31.3715017
  30.7669987   4.6865006  30.4695017  31.7239987   4.6865006  30.4695017
  30.5269987   5.6135006  30.4695017  32.3949987   3.3055006  32.4045017
  33.3519987   3.3055006  32.4045017  32.1549987   4.2325006  32.4045017
  22.1369987   4.5215006  31.4845017  23.0939987   4.5215006  31.4845017
  21.8969987   5.4485006  31.4845017  27.5669987 108.5285006  30.5225017
  28.5239987 108.5285006  30.5225017  27.3269987 109.4555006  30.5225017
  27.3429987   2.2535006  32.6115017  28.2999987   2.2535006  32.6115017
  27.1029987   3.1805006  32.6115017  26.8369987  19.0905006  15.7405017
  27.7939987  19.0905006  15.7405017  26.5969987  20.0175006  15.7405017
  20.3989987  13.6935006  15.2095017  21.3559987  13.6935006  15.2095017
  20.1589987  14.6205006  15.2095017  19.1599987  19.0725006  20.1945017
  20.1169987  19.0725006  20.1945017  18.9199987  19.9995006  20.1945017
  19.9839987  17.1945006  22.0545017  20.9409987  17.1945006  22.0545017
  19.7439987  18.1215006  22.0545017  37.4849987  18.0065006  25.0065017
  38.4419987  18.0065006  25.0065017  37.2449987  18.9335006  25.0065017
  37.0719987  17.5855006  27.9545017  38.0289987  17.5855006  27.9545017
  36.8319987  18.5125006  27.9545017  35.5279987  13.3265006  32.5845017
  36.4849987  13.3265006  32.5845017  35.2879987  14.2535006  32.5845017
  36.8459987  11.6315006  18.0585017  37.8029987  11.6315006  18.0585017
  36.6059987  12.5585006  18.0585017  37.2209987   9.7025006  19.9275017
  38.1779987   9.7025006  19.9275017  36.9809987  10.6295006  19.9275017
  36.9749987  12.4165006  24.9085017  37.9319987  12.4165006  24.9085017
  36.7349987  13.3435006  24.9085017  35.5169987  15.3205006  27.1885017
  36.4739987  15.3205006  27.1885017  35.2769987  16.2475006  27.1885017
  37.5189987   9.5395006  16.3235017  38.4759987   9.5395006  16.3235017
  37.2789987  10.4665006  16.3235017  35.8839987   6.7845006  14.8465017
  36.8409987   6.7845006  14.8465017  35.6439987   7.7115006  14.8465017
  35.0329987   8.1875006  20.4905017  35.9899987   8.1875006  20.4905017
  34.7929987   9.1145006  20.4905017  20.0339987  10.2675006  24.5445017
  20.9909987  10.2675006  24.5445017  19.7939987  11.1945006  24.5445017
  35.8819987  10.1585006  30.1695017  36.8389987  10.1585006  30.1695017
  35.6419987  11.0855006  30.1695017  37.3929987   8.0485006  30.8345017
  38.3499987   8.0485006  30.8345017  37.1529987   8.9755006  30.8345017
  35.1129987   4.2595006  14.0025017  36.0699987   4.2595006  14.0025017
  34.8729987   5.1865006  14.0025017  34.6909987   5.7785006  18.9275017
  35.6479987   5.7785006  18.9275017  34.4509987   6.7055006  18.9275017
  35.3339987   6.3265006  24.3875017  36.2909987   6.3265006  24.3875017
  35.0939987   7.2535006  24.3875017  35.3999987   7.0555006  27.1755017
  36.3569987   7.0555006  27.1755017  35.1599987   7.9825006  27.1755017
  19.6459987   5.5855006  30.7105017  20.6029987   5.5855006  30.7105017
  19.4059987   6.5125006  30.7105017  37.6079987   1.1845006  32.4715017
  38.5649987   1.1845006  32.4715017  37.3679987   2.1115006  32.4715017
  35.3529987   3.0585006  18.9765017  36.3099987   3.0585006  18.9765017
  35.1129987   3.9855006  18.9765017  20.4939987   3.9035006  23.4815017
  21.4509987   3.9035006  23.4815017  20.2539987   4.8305006  23.4815017
  19.1229987   6.8645006  24.6005017  20.0799987   6.8645006  24.6005017
  18.8829987   7.7915006  24.6005017  37.1939987   3.2095006  30.8705017
  38.1509987   3.2095006  30.8705017  36.9539987   4.1365006  30.8705017
  37.2089987   3.1185006  15.5655017  38.1659987   3.1185006  15.5655017
  36.9689987   4.0455006  15.5655017  19.4899987   3.1095006  18.6885017
  20.4469987   3.1095006  18.6885017  19.2499987   4.0365006  18.6885017
  34.2399987  18.0525006  20.6285017  35.1969987  18.0525006  20.6285017
  33.9999987  18.9795006  20.6285017  19.4789987   1.8275006  26.9815017
  20.4359987   1.8275006  26.9815017  19.2389987   2.7545006  26.9815017
  21.6819987  14.9845006  31.1365017  22.6389987  14.9845006  31.1365017
  21.4419987  15.9115006  31.1365017  24.5839987  15.9705006  27.3915017
  25.5409987  15.9705006  27.3915017  24.3439987  16.8975006  27.3915017
  28.9079987  17.4925006  30.3445017  29.8649987  17.4925006  30.3445017
  28.6679987  18.4195006  30.3445017  31.2399987  18.6895006  29.6025017
  32.1969987  18.6895006  29.6025017  30.9999987  19.6165006  29.6025017
  36.2969987   1.4255006  28.6705017  37.2539987   1.4255006  28.6705017
  36.0569987   2.3525006  28.6705017  22.0159987  19.2265006  27.4195017
  22.9729987  19.2265006  27.4195017  21.7759987  20.1535006  27.4195017
  24.4859987  18.8055006  26.4825017  25.4429987  18.8055006  26.4825017
  24.2459987  19.7325006  26.4825017  29.1739987  18.6975006  25.6475017
  30.1309987  18.6975006  25.6475017  28.9339987  19.6245006  25.6475017
  31.5119987  17.5425006  26.6315017  32.4689987  17.5425006  26.6315017
  31.2719987  18.4695006  26.6315017  34.1479987  19.1745006  26.9025017
  35.1049987  19.1745006  26.9025017  33.9079987  20.1015006  26.9025017
  21.4539987  17.8725006  24.3485017  22.4109987  17.8725006  24.3485017
  21.2139987  18.7995006  24.3485017  23.5479987  16.5855006  23.0015017
  24.5049987  16.5855006  23.0015017  23.3079987  17.5125006  23.0015017
  26.1249987  17.0635006  23.8725017  27.0819987  17.0635006  23.8725017
  25.8849987  17.9905006  23.8725017  29.6009987   2.7455006  23.0125017
  30.5579987   2.7455006  23.0125017  29.3609987   3.6725006  23.0125017
  34.8209987   1.0815006  23.2685017  35.7779987   1.0815006  23.2685017
  34.5809987   2.0085006  23.2685017  36.4539987   1.9945006  21.3925017
  37.4109987   1.9945006  21.3925017  36.2139987   2.9215006  21.3925017
  22.1199987   1.6065006  20.6315017  23.0769987   1.6065006  20.6315017
  21.8799987   2.5335006  20.6315017  21.0369987   1.5355006  16.9865017
  21.9939987   1.5355006  16.9865017  20.7969987   2.4625006  16.9865017
  26.5089987   1.2895006  20.6225017  27.4659987   1.2895006  20.6225017
  26.2689987   2.2165006  20.6225017  32.0789987   1.3265006  22.2825017
  33.0359987   1.3265006  22.2825017  31.8389987   2.2535006  22.2825017
  33.4329987   1.3525006  18.0245017  34.3899987   1.3525006  18.0245017
  33.1929987   2.2795006  18.0245017  20.6719987  17.0555006  17.5875017
  21.6289987  17.0555006  17.5875017  20.4319987  17.9825006  17.5875017
  22.6049987   3.0525006  15.0315017  23.5619987   3.0525006  15.0315017
  22.3649987   3.9795006  15.0315017  27.5999987   3.3075006  17.5105017
  28.5569987   3.3075006  17.5105017  27.3599987   4.2345006  17.5105017
  29.5339987  18.3365006  15.9495017  30.4909987  18.3365006  15.9495017
  29.2939987  19.2635006  15.9495017  36.2569987  17.8425006  18.6485017
  37.2139987  17.8425006  18.6485017  36.0169987  18.7695006  18.6485017
  21.8449987   1.8975006  30.3715017  22.8019987   1.8975006  30.3715017
  21.6049987   2.8245006  30.3715017  23.8659987   1.2445006  31.9385017
  24.8229987   1.2445006  31.9385017  23.6259987   2.1715006  31.9385017
  22.4669987  18.0265006  14.5515017  23.4239987  18.0265006  14.5515017
  22.2269987  18.9535006  14.5515017  32.3489987 108.3815006  31.9525017
  33.3059987 108.3815006  31.9525017  32.1089987 109.3085006  31.9525017
  35.4859987  16.5925006  30.7415017  36.4429987  16.5925006  30.7415017
  35.2459987  17.5195006  30.7415017  49.9009987  10.4885006  20.7485017
  50.8579987  10.4885006  20.7485017  49.6609987  11.4155006  20.7485017
  48.7749987   9.7595006  24.2215017  49.7319987   9.7595006  24.2215017
  48.5349987  10.6865006  24.2215017  41.1399987   9.4025006  25.7785017
  42.0969987   9.4025006  25.7785017  40.8999987  10.3295006  25.7785017
  52.4739987  12.6885006  22.4955017  53.4309987  12.6885006  22.4955017
  52.2339987  13.6155006  22.4955017  42.1069987  13.8695006  24.2805017
  43.0639987  13.8695006  24.2805017  41.8669987  14.7965006  24.2805017
  38.7109987   7.4315006  19.7585017  39.6679987   7.4315006  19.7585017
  38.4709987   8.3585006  19.7585017  39.4069987   9.6535006  21.8915017
  40.3639987   9.6535006  21.8915017  39.1669987  10.5805006  21.8915017
  47.1709987  12.1705006  24.6475017  48.1279987  12.1705006  24.6475017
  46.9309987  13.0975006  24.6475017  55.7889987   3.7595006  25.4305017
  56.7459987   3.7595006  25.4305017  55.5489987   4.6865006  25.4305017
  50.3269987   6.5985006  24.9945017  51.2839987   6.5985006  24.9945017
  50.0869987   7.5255006  24.9945017  43.4559987   4.7025006  22.2185017
  44.4129987   4.7025006  22.2185017  43.2159987   5.6295006  22.2185017
  51.1859987   4.7815006  20.5995017  52.1429987   4.7815006  20.5995017
  50.9459987   5.7085006  20.5995017  40.0709987   7.1055006  22.9645017
  41.0279987   7.1055006  22.9645017  39.8309987   8.0325006  22.9645017
  45.2309987   8.6685006  22.2505017  46.1879987   8.6685006  22.2505017
  44.9909987   9.5955006  22.2505017  56.2369987   5.2385006  27.6915017
  57.1939987   5.2385006  27.6915017  55.9969987   6.1655006  27.6915017
  42.3489987   3.6035006  26.2775017  43.3059987   3.6035006  26.2775017
  42.1089987   4.5305006  26.2775017  49.6399987  13.0925006  19.8175017
  50.5969987  13.0925006  19.8175017  49.3999987  14.0195006  19.8175017
  44.8669987  11.2475006  26.5235017  45.8239987  11.2475006  26.5235017
  44.6269987  12.1745006  26.5235017  52.9779987   4.1035006  22.5795017
  53.9349987   4.1035006  22.5795017  52.7379987   5.0305006  22.5795017
  41.8959987   5.4805006  24.2715017  42.8529987   5.4805006  24.2715017
  41.6559987   6.4075006  24.2715017  43.3079987  13.2465006  27.3185017
  44.2649987  13.2465006  27.3185017  43.0679987  14.1735006  27.3185017
  39.3879987  12.8645006  18.1265017  40.3449987  12.8645006  18.1265017
  39.1479987  13.7915006  18.1265017  53.0089987  14.5265006  24.8695017
  53.9659987  14.5265006  24.8695017  52.7689987  15.4535006  24.8695017
  53.3499987   2.8035006  26.3295017  54.3069987   2.8035006  26.3295017
  53.1099987   3.7305006  26.3295017  46.2739987   0.9635006  23.5905017
  47.2309987   0.9635006  23.5905017  46.0339987   1.8905006  23.5905017
  51.1919987  16.3175006  21.4635017  52.1489987  16.3175006  21.4635017
  50.9519987  17.2445006  21.4635017  52.4509987  14.2395006  19.9845017
  53.4079987  14.2395006  19.9845017  52.2109987  15.1665006  19.9845017
  54.1029987  12.8035006  28.4735017  55.0599987  12.8035006  28.4735017
  53.8629987  13.7305006  28.4735017  48.5869987   9.7255006  18.2495017
  49.5439987   9.7255006  18.2495017  48.3469987  10.6525006  18.2495017
  48.6589987   8.2615006  15.2775017  49.6159987   8.2615006  15.2775017
  48.4189987   9.1885006  15.2775017  55.9719987   9.1295006  26.5295017
  56.9289987   9.1295006  26.5295017  55.7319987  10.0565006  26.5295017
  52.0219987   9.9405006  19.1645017  52.9789987   9.9405006  19.1645017
  51.7819987  10.8675006  19.1645017  51.9459987   8.0975006  28.2735017
  52.9029987   8.0975006  28.2735017  51.7059987   9.0245006  28.2735017
  43.6449987  10.6025006  21.0725017  44.6019987  10.6025006  21.0725017
  43.4049987  11.5295006  21.0725017  43.9769987   9.3355006  24.7285017
  44.9339987   9.3355006  24.7285017  43.7369987  10.2625006  24.7285017
  50.3419987  14.8995006  25.4265017  51.2989987  14.8995006  25.4265017
  50.1019987  15.8265006  25.4265017  44.9159987  13.7545006  29.4425017
  45.8729987  13.7545006  29.4425017  44.6759987  14.6815006  29.4425017
  50.8899987   9.1225006  16.8405017  51.8469987   9.1225006  16.8405017
  50.6499987  10.0495006  16.8405017  41.8509987   9.9285006  28.6075017
  42.8079987   9.9285006  28.6075017  41.6109987  10.8555006  28.6075017
  48.5369987  15.8355006  20.3565017  49.4939987  15.8355006  20.3565017
  48.2969987  16.7625006  20.3565017  43.1539987  15.8215006  30.1875017
  44.1109987  15.8215006  30.1875017  42.9139987  16.7485006  30.1875017
  54.6309987   0.8985006  16.6965017  55.5879987   0.8985006  16.6965017
  54.3909987   1.8255006  16.6965017  42.6169987   9.6225006  18.6915017
  43.5739987   9.6225006  18.6915017  42.3769987  10.5495006  18.6915017
  55.7389987  15.2145006  15.0755017  56.6959987  15.2145006  15.0755017
  55.4989987  16.1415006  15.0755017  38.7099987  12.0435006  27.5585017
  39.6669987  12.0435006  27.5585017  38.4699987  12.9705006  27.5585017
  38.4669987  14.7815006  24.3715017  39.4239987  14.7815006  24.3715017
  38.2269987  15.7085006  24.3715017  56.6839987  15.4725006  30.0555017
  57.6409987  15.4725006  30.0555017  56.4439987  16.3995006  30.0555017
  47.6679987  15.0295006  28.9215017  48.6249987  15.0295006  28.9215017
  47.4279987  15.9565006  28.9215017  48.0869987  18.7925006  18.7375017
  49.0439987  18.7925006  18.7375017  47.8469987  19.7195006  18.7375017
  41.7599987  17.5805006  20.4965017  42.7169987  17.5805006  20.4965017
  41.5199987  18.5075006  20.4965017  51.1549987  17.9775006  15.6975017
  52.1119987  17.9775006  15.6975017  50.9149987  18.9045006  15.6975017
  50.8459987  17.8875006  18.4635017  51.8029987  17.8875006  18.4635017
  50.6059987  18.8145006  18.4635017  53.8469987   6.9575006  30.5325017
  54.8039987   6.9575006  30.5325017  53.6069987   7.8845006  30.5325017
  40.9819987  13.3575006  28.5225017  41.9389987  13.3575006  28.5225017
  40.7419987  14.2845006  28.5225017  43.7419987   1.9225006  24.4235017
  44.6989987   1.9225006  24.4235017  43.5019987   2.8495006  24.4235017
  48.3199987   1.5585006  27.9015017  49.2769987   1.5585006  27.9015017
  48.0799987   2.4855006  27.9015017  51.5729987   5.2975006  28.7185017
  52.5299987   5.2975006  28.7185017  51.3329987   6.2245006  28.7185017
  52.3439987  10.1585006  14.5925017  53.3009987  10.1585006  14.5925017
  52.1039987  11.0855006  14.5925017  47.9689987   4.0505006  15.1905017
  48.9259987   4.0505006  15.1905017  47.7289987   4.9775006  15.1905017
  43.7499987   6.7895006  25.7005017  44.7069987   6.7895006  25.7005017
  43.5099987   7.7165006  25.7005017  43.7149987   6.9505006  20.5785017
  44.6719987   6.9505006  20.5785017  43.4749987   7.8775006  20.5785017
  49.2369987   7.4225006  19.3685017  50.1939987   7.4225006  19.3685017
  48.9969987   8.3495006  19.3685017  48.3059987   7.6445006  30.8425017
  49.2629987   7.6445006  30.8425017  48.0659987   8.5715006  30.8425017
  50.2649987   6.9015006  22.2015017  51.2219987   6.9015006  22.2015017
  50.0249987   7.8285006  22.2015017  41.3999987   7.0735006  27.4325017
  42.3569987   7.0735006  27.4325017  41.1599987   8.0005006  27.4325017
  44.7729987   4.4995006  14.2905017  45.7299987   4.4995006  14.2905017
  44.5329987   5.4265006  14.2905017  38.0309987   4.2085006  21.3685017
  38.9879987   4.2085006  21.3685017  37.7909987   5.1355006  21.3685017
  39.3199987   4.9275006  16.7755017  40.2769987   4.9275006  16.7755017
  39.0799987   5.8545006  16.7755017  49.4809987   8.5035006  26.7855017
  50.4379987   8.5035006  26.7855017  49.2409987   9.4305006  26.7855017
  46.2809987   4.4745006  21.5975017  47.2379987   4.4745006  21.5975017
  46.0409987   5.4015006  21.5975017  41.0969987   6.0435006  20.4685017
  42.0539987   6.0435006  20.4685017  40.8569987   6.9705006  20.4685017
  44.7369987   6.0745006  18.1115017  45.6939987   6.0745006  18.1115017
  44.4969987   7.0015006  18.1115017  50.6939987   3.6755006  24.8455017
  51.6509987   3.6755006  24.8455017  50.4539987   4.6025006  24.8455017
  43.4289987   7.2565006  15.6765017  44.3859987   7.2565006  15.6765017
  43.1889987   8.1835006  15.6765017  41.5659987  11.8225006  30.7345017
  42.5229987  11.8225006  30.7345017  41.3259987  12.7495006  30.7345017
  47.5679987   7.2275006  23.4965017  48.5249987   7.2275006  23.4965017
  47.3279987   8.1545006  23.4965017  42.5639987   3.3695006  19.9195017
  43.5209987   3.3695006  19.9195017  42.3239987   4.2965006  19.9195017
  46.2029987   5.5785006  25.9045017  47.1599987   5.5785006  25.9045017
  45.9629987   6.5055006  25.9045017  46.7929987  11.7995006  17.5955017
  47.7499987  11.7995006  17.5955017  46.5529987  12.7265006  17.5955017
  53.9549987  10.9655006  26.4065017  54.9119987  10.9655006  26.4065017
  53.7149987  11.8925006  26.4065017  50.6439987   4.6025006  15.7785017
  51.6009987   4.6025006  15.7785017  50.4039987   5.5295006  15.7785017
  48.2879987  12.0355006  28.8575017  49.2449987  12.0355006  28.8575017
  48.0479987  12.9625006  28.8575017  51.3599987   6.5055006  17.4265017
  52.3169987   6.5055006  17.4265017  51.1199987   7.4325006  17.4265017
  41.8969987  11.1625006  23.4035017  42.8539987  11.1625006  23.4035017
  41.6569987  12.0895006  23.4035017  48.8979987  13.2525006  16.6265017
  49.8549987  13.2525006  16.6265017  48.6579987  14.1795006  16.6265017
  38.8879987   9.5815006  28.6715017  39.8449987   9.5815006  28.6715017
  38.6479987  10.5085006  28.6715017  45.9129987   9.1555006  30.8645017
  46.8699987   9.1555006  30.8645017  45.6729987  10.0825006  30.8645017
  50.5529987  14.4585006  28.7745017  51.5099987  14.4585006  28.7745017
  50.3129987  15.3855006  28.7745017  56.2539987   6.6685006  17.1825017
  57.2109987   6.6685006  17.1825017  56.0139987   7.5955006  17.1825017
  56.2429987  12.5205006  30.0015017  57.1999987  12.5205006  30.0015017
  56.0029987  13.4475006  30.0015017  54.5259987  15.4875006  17.5935017
  55.4829987  15.4875006  17.5935017  54.2859987  16.4145006  17.5935017
  51.7459987  10.3015006  24.6815017  52.7029987  10.3015006  24.6815017
  51.5059987  11.2285006  24.6815017  44.2789987  14.6485006  20.8175017
  45.2359987  14.6485006  20.8175017  44.0389987  15.5755006  20.8175017
  40.0309987   9.4715006  15.3565017  40.9879987   9.4715006  15.3565017
  39.7909987  10.3985006  15.3565017  45.7119987  12.3045006  20.3405017
  46.6689987  12.3045006  20.3405017  45.4719987  13.2315006  20.3405017
  44.3979987  17.2985006  19.9185017  45.3549987  17.2985006  19.9185017
  44.1579987  18.2255006  19.9185017  49.6889987  12.4995006  26.3505017
  50.6459987  12.4995006  26.3505017  49.4489987  13.4265006  26.3505017
  51.9839987  13.5335006  15.4245017  52.9409987  13.5335006  15.4245017
  51.7439987  14.4605006  15.4245017  52.4119987  17.0445006  28.8035017
  53.3689987  17.0445006  28.8035017  52.1719987  17.9715006  28.8035017
  56.4589987  17.9095006  15.6675017  57.4159987  17.9095006  15.6675017
  56.2189987  18.8365006  15.6675017  40.5439987   4.3045006  28.2475017
  41.5009987   4.3045006  28.2475017  40.3039987   5.2315006  28.2475017
  52.7779987  12.1765006  17.6625017  53.7349987  12.1765006  17.6625017
  52.5379987  13.1035006  17.6625017  40.1919987  16.1125006  26.6475017
  41.1489987  16.1125006  26.6475017  39.9519987  17.0395006  26.6475017
  46.0859987  14.6225006  13.8845017  47.0429987  14.6225006  13.8845017
  45.8459987  15.5495006  13.8845017  44.9239987  14.1485006  16.3615017
  45.8809987  14.1485006  16.3615017  44.6839987  15.0755006  16.3615017
  41.4359987  11.3945006  16.8515017  42.3929987  11.3945006  16.8515017
  41.1959987  12.3215006  16.8515017  49.2659987   4.0805006  27.1545017
  50.2229987   4.0805006  27.1545017  49.0259987   5.0075006  27.1545017
  50.0399987   3.6585006  18.2475017  50.9969987   3.6585006  18.2475017
  49.7999987   4.5855006  18.2475017  47.7129987  15.8235006  17.0975017
  48.6699987  15.8235006  17.0975017  47.4729987  16.7505006  17.0975017
  47.2579987   5.3995006  19.0775017  48.2149987   5.3995006  19.0775017
  47.0179987   6.3265006  19.0775017  47.7969987   6.4295006  28.2665017
  48.7539987   6.4295006  28.2665017  47.5569987   7.3565006  28.2665017
  48.1159987   2.4775006  19.9935017  49.0729987   2.4775006  19.9935017
  47.8759987   3.4045006  19.9935017  45.1059987  16.8435006  17.0815017
  46.0629987  16.8435006  17.0815017  44.8659987  17.7705006  17.0815017
  43.7519987   3.5745006  16.6885017  44.7089987   3.5745006  16.6885017
  43.5119987   4.5015006  16.6885017  53.9779987   4.3455006  29.0945017
  54.9349987   4.3455006  29.0945017  53.7379987   5.2725006  29.0945017
  52.5869987   8.0935006  23.1415017  53.5439987   8.0935006  23.1415017
  52.3469987   9.0205006  23.1415017  41.9979987  14.0065006  15.7255017
  42.9549987  14.0065006  15.7255017  41.7579987  14.9335006  15.7255017
  40.3449987   6.6855006  14.8605017  41.3019987   6.6855006  14.8605017
  40.1049987   7.6125006  14.8605017  53.6309987  17.3275006  24.7895017
  54.5879987  17.3275006  24.7895017  53.3909987  18.2545006  24.7895017
  40.9239987   1.6735006  23.4605017  41.8809987   1.6735006  23.4605017
  40.6839987   2.6005006  23.4605017  40.0939987  15.3665006  19.7105017
  41.0509987  15.3665006  19.7105017  39.8539987  16.2935006  19.7105017
  39.3249987  18.0385006  31.0565017  40.2819987  18.0385006  31.0565017
  39.0849987  18.9655006  31.0565017  43.9789987  16.9725006  32.6505017
  44.9359987  16.9725006  32.6505017  43.7389987  17.8995006  32.6505017
  48.0929987  16.4755006  14.0085017  49.0499987  16.4755006  14.0085017
  47.8529987  17.4025006  14.0085017  50.5219987  15.3145006  31.3935017
  51.4789987  15.3145006  31.3935017  50.2819987  16.2415006  31.3935017
  52.6789987  16.2295006  14.2375017  53.6359987  16.2295006  14.2375017
  52.4389987  17.1565006  14.2375017  39.2469987  11.8235006  32.0205017
  40.2039987  11.8235006  32.0205017  39.0069987  12.7505006  32.0205017
  43.5769987  12.1445006  14.0565017  44.5339987  12.1445006  14.0565017
  43.3369987  13.0715006  14.0565017  45.9759987  11.7945006  31.4445017
  46.9329987  11.7945006  31.4445017  45.7359987  12.7215006  31.4445017
  48.9979987  13.2595006  13.8325017  49.9549987  13.2595006  13.8325017
  48.7579987  14.1865006  13.8325017  51.6459987  11.6735006  28.8075017
  52.6029987  11.6735006  28.8075017  51.4059987  12.6005006  28.8075017
  40.1389987   9.0425006  31.4095017  41.0959987   9.0425006  31.4095017
  39.8989987   9.9695006  31.4095017  44.7779987  10.1625006  16.4505017
  45.7349987  10.1625006  16.4505017  44.5379987  11.0895006  16.4505017
  44.0509987   7.9985006  28.7745017  45.0079987   7.9985006  28.7745017
  43.8109987   8.9255006  28.7745017  45.8499987   8.3915006  14.6695017
  46.8069987   8.3915006  14.6695017  45.6099987   9.3185006  14.6695017
  49.0929987  10.5855006  32.1725017  50.0499987  10.5855006  32.1725017
  48.8529987  11.5125006  32.1725017  55.2019987  10.7255006  14.1085017
  56.1589987  10.7255006  14.1085017  54.9619987  11.6525006  14.1085017
  44.4359987   5.3685006  29.8375017  45.3929987   5.3685006  29.8375017
  44.1959987   6.2955006  29.8375017  44.8519987   3.7415006  27.3755017
  45.8089987   3.7415006  27.3755017  44.6119987   4.6685006  27.3755017
  46.3939987   9.2135006  27.6165017  47.3509987   9.2135006  27.6165017
  46.1539987  10.1405006  27.6165017  50.7859987   7.0055006  32.5955017
  51.7429987   7.0055006  32.5955017  50.5459987   7.9325006  32.5955017
  52.1129987   9.8025006  30.7355017  53.0699987   9.8025006  30.7355017
  51.8729987  10.7295006  30.7355017  42.9029987   6.6195006  31.7575017
  43.8599987   6.6195006  31.7575017  42.6629987   7.5465006  31.7575017
  45.7159987   1.2295006  27.6505017  46.6729987   1.2295006  27.6505017
  45.4759987   2.1565006  27.6505017  46.9019987   5.5185006  31.3735017
  47.8589987   5.5185006  31.3735017  46.6619987   6.4455006  31.3735017
  49.6089987   4.6895006  30.4615017  50.5659987   4.6895006  30.4615017
  49.3689987   5.6165006  30.4615017  51.1729987   3.3165006  32.3815017
  52.1299987   3.3165006  32.3815017  50.9329987   4.2435006  32.3815017
  40.9969987   4.5255006  31.4975017  41.9539987   4.5255006  31.4975017
  40.7569987   5.4525006  31.4975017  46.4249987 108.5275006  30.5225017
  47.3819987 108.5275006  30.5225017  46.1849987 109.4545006  30.5225017
  46.1969987   2.2525006  32.6115017  47.1539987   2.2525006  32.6115017
  45.9569987   3.1795006  32.6115017  45.7009987  19.0875006  15.7395017
  46.6579987  19.0875006  15.7395017  45.4609987  20.0145006  15.7395017
  39.2549987  13.6935006  15.2085017  40.2119987  13.6935006  15.2085017
  39.0149987  14.6205006  15.2085017  38.0069987  19.0925006  20.2125017
  38.9639987  19.0925006  20.2125017  37.7669987  20.0195006  20.2125017
  38.8139987  17.1935006  22.0425017  39.7709987  17.1935006  22.0425017
  38.5739987  18.1205006  22.0425017  56.3889987  17.9835006  25.0115017
  57.3459987  17.9835006  25.0115017  56.1489987  18.9105006  25.0115017
  56.0129987  17.5535006  27.8945017  56.9699987  17.5535006  27.8945017
  55.7729987  18.4805006  27.8945017  54.4069987  13.3025006  32.6135017
  55.3639987  13.3025006  32.6135017  54.1669987  14.2295006  32.6135017
  55.7019987  11.6315006  18.0585017  56.6589987  11.6315006  18.0585017
  55.4619987  12.5585006  18.0585017  56.0759987   9.7025006  19.9265017
  57.0329987   9.7025006  19.9265017  55.8359987  10.6295006  19.9265017
  55.8309987  12.4145006  24.9055017  56.7879987  12.4145006  24.9055017
  55.5909987  13.3415006  24.9055017  54.3689987  15.3265006  27.2025017
  55.3259987  15.3265006  27.2025017  54.1289987  16.2535006  27.2025017
  56.3739987   9.5395006  16.3235017  57.3309987   9.5395006  16.3235017
  56.1339987  10.4665006  16.3235017  54.7429987   6.7825006  14.8445017
  55.6999987   6.7825006  14.8445017  54.5029987   7.7095006  14.8445017
  53.8889987   8.1875006  20.4915017  54.8459987   8.1875006  20.4915017
  53.6489987   9.1145006  20.4915017  38.8959987  10.2725006  24.5465017
  39.8529987  10.2725006  24.5465017  38.6559987  11.1995006  24.5465017
  54.7329987  10.1535006  30.1735017  55.6899987  10.1535006  30.1735017
  54.4929987  11.0805006  30.1735017  56.2469987   8.0485006  30.8305017
  57.2039987   8.0485006  30.8305017  56.0069987   8.9755006  30.8305017
  53.9639987   4.2635006  14.0025017  54.9209987   4.2635006  14.0025017
  53.7239987   5.1905006  14.0025017  53.5509987   5.7775006  18.9385017
  54.5079987   5.7775006  18.9385017  53.3109987   6.7045006  18.9385017
  54.1899987   6.3275006  24.3875017  55.1469987   6.3275006  24.3875017
  53.9499987   7.2545006  24.3875017  54.2579987   7.0495006  27.1755017
  55.2149987   7.0495006  27.1755017  54.0179987   7.9765006  27.1755017
  38.5129987   5.5755006  30.6875017  39.4699987   5.5755006  30.6875017
  38.2729987   6.5025006  30.6875017  56.8389987   1.0585006  32.4535017
  57.7959987   1.0585006  32.4535017  56.5989987   1.9855006  32.4535017
  54.2089987   3.0585006  18.9765017  55.1659987   3.0585006  18.9765017
  53.9689987   3.9855006  18.9765017  39.6849987   3.8995006  23.5525017
  40.6419987   3.8995006  23.5525017  39.4449987   4.8265006  23.5525017
  37.9999987   6.8515006  24.6025017  38.9569987   6.8515006  24.6025017
  37.7599987   7.7785006  24.6025017  56.2749987   3.4065006  30.3985017
  57.2319987   3.4065006  30.3985017  56.0349987   4.3335006  30.3985017
  56.0649987   3.1185006  15.5655017  57.0219987   3.1185006  15.5655017
  55.8249987   4.0455006  15.5655017  38.3489987   3.0925006  18.6925017
  39.3059987   3.0925006  18.6925017  38.1089987   4.0195006  18.6925017
  53.0869987  18.0855006  20.6015017  54.0439987  18.0855006  20.6015017
  52.8469987  19.0125006  20.6015017  38.3269987   1.8185006  26.9835017
  39.2839987   1.8185006  26.9835017  38.0869987   2.7455006  26.9835017
  40.5419987  14.9935006  31.1285017  41.4989987  14.9935006  31.1285017
  40.3019987  15.9205006  31.1285017  43.4619987  15.9735006  27.4305017
  44.4189987  15.9735006  27.4305017  43.2219987  16.9005006  27.4305017
  50.0819987  18.6335006  29.6385017  51.0389987  18.6335006  29.6385017
  49.8419987  19.5605006  29.6385017  55.1599987   1.4145006  28.6565017
  56.1169987   1.4145006  28.6565017  54.9199987   2.3415006  28.6565017
  40.2629987  17.8405006  24.3545017  41.2199987  17.8405006  24.3545017
  40.0229987  18.7675006  24.3545017  42.4409987  16.5635006  22.9925017
  43.3979987  16.5635006  22.9925017  42.2009987  17.4905006  22.9925017
  48.4559987   2.7455006  23.0125017  49.4129987   2.7455006  23.0125017
  48.2159987   3.6725006  23.0125017  53.6769987   1.0815006  23.2675017
  54.6339987   1.0815006  23.2675017  53.4369987   2.0085006  23.2675017
  55.3099987   1.9945006  21.3925017  56.2669987   1.9945006  21.3925017
  55.0699987   2.9215006  21.3925017  40.7829987   1.3245006  20.8515017
  41.7399987   1.3245006  20.8515017  40.5429987   2.2515006  20.8515017
  39.8869987   1.5195006  17.0015017  40.8439987   1.5195006  17.0015017
  39.6469987   2.4465006  17.0015017  45.3429987   1.3035006  20.6355017
  46.2999987   1.3035006  20.6355017  45.1029987   2.2305006  20.6355017
  50.9349987   1.3265006  22.2825017  51.8919987   1.3265006  22.2825017
  50.6949987   2.2535006  22.2825017  52.2889987   1.3525006  18.0265017
  53.2459987   1.3525006  18.0265017  52.0489987   2.2795006  18.0265017
  39.5219987  17.0505006  17.5825017  40.4789987  17.0505006  17.5825017
  39.2819987  17.9775006  17.5825017  41.4519987   3.0365006  15.0585017
  42.4089987   3.0365006  15.0585017  41.2119987   3.9635006  15.0585017
  46.4499987   3.3095006  17.5135017  47.4069987   3.3095006  17.5135017
  46.2099987   4.2365006  17.5135017  48.3889987  18.3325006  15.9615017
  49.3459987  18.3325006  15.9615017  48.1489987  19.2595006  15.9615017
  55.0979987  17.8635006  18.6555017  56.0549987  17.8635006  18.6555017
  54.8579987  18.7905006  18.6555017  40.6999987   1.9025006  30.3765017
  41.6569987   1.9025006  30.3765017  40.4599987   2.8295006  30.3765017
  42.7249987   1.2425006  31.9195017  43.6819987   1.2425006  31.9195017
  42.4849987   2.1695006  31.9195017  41.3229987  18.0295006  14.5535017
  42.2799987  18.0295006  14.5535017  41.0829987  18.9565006  14.5535017
  51.2079987 108.3665006  31.9495017  52.1649987 108.3665006  31.9495017
  50.9679987 109.2935006  31.9495017  68.7669987  10.4805006  20.7405017
  69.7239987  10.4805006  20.7405017  68.5269987  11.4075006  20.7405017
  67.6389987   9.7485006  24.2255017  68.5959987   9.7485006  24.2255017
  67.3989987  10.6755006  24.2255017  59.9959987   9.4025006  25.7785017
  60.9529987   9.4025006  25.7785017  59.7559987  10.3295006  25.7785017
  71.3389987  12.6885006  22.5025017  72.2959987  12.6885006  22.5025017
  71.0989987  13.6155006  22.5025017  60.9239987  13.8525006  24.3015017
  61.8809987  13.8525006  24.3015017  60.6839987  14.7795006  24.3015017
  57.5669987   7.4315006  19.7585017  58.5239987   7.4315006  19.7585017
  57.3269987   8.3585006  19.7585017  58.2629987   9.6525006  21.8915017
  59.2199987   9.6525006  21.8915017  58.0229987  10.5795006  21.8915017
  68.4549987  17.8355006  22.7435017  69.4119987  17.8355006  22.7435017
  68.2149987  18.7625006  22.7435017  66.0109987  12.1525006  24.6645017
  66.9679987  12.1525006  24.6645017  65.7709987  13.0795006  24.6645017
  74.6179987   3.7715006  25.4155017  75.5749987   3.7715006  25.4155017
  74.3779987   4.6985006  25.4155017  69.1829987   6.5975006  24.9955017
  70.1399987   6.5975006  24.9955017  68.9429987   7.5245006  24.9955017
  62.3119987   4.7025006  22.2185017  63.2689987   4.7025006  22.2185017
  62.0719987   5.6295006  22.2185017  70.0429987   4.7815006  20.5995017
  70.9999987   4.7815006  20.5995017  69.8029987   5.7085006  20.5995017
  58.9269987   7.1055006  22.9645017  59.8839987   7.1055006  22.9645017
  58.6869987   8.0325006  22.9645017  64.0889987   8.6595006  22.2515017
  65.0459987   8.6595006  22.2515017  63.8489987   9.5865006  22.2515017
  75.0819987   5.2325006  27.6885017  76.0389987   5.2325006  27.6885017
  74.8419987   6.1595006  27.6885017  61.2049987   3.6045006  26.2775017
  62.1619987   3.6045006  26.2775017  60.9649987   4.5315006  26.2775017
  68.5049987  13.0845006  19.8135017  69.4619987  13.0845006  19.8135017
  68.2649987  14.0115006  19.8135017  63.7219987  11.2415006  26.5255017
  64.6789987  11.2415006  26.5255017  63.4819987  12.1685006  26.5255017
  71.8339987   4.1035006  22.5785017  72.7909987   4.1035006  22.5785017
  71.5939987   5.0305006  22.5785017  60.7519987   5.4805006  24.2715017
  61.7089987   5.4805006  24.2715017  60.5119987   6.4075006  24.2715017
  62.1589987  13.2335006  27.3345017  63.1159987  13.2335006  27.3345017
  61.9189987  14.1605006  27.3345017  58.2459987  12.8675006  18.1285017
  59.2029987  12.8675006  18.1285017  58.0059987  13.7945006  18.1285017
  71.8609987  14.5265006  24.8875017  72.8179987  14.5265006  24.8875017
  71.6209987  15.4535006  24.8875017  72.2009987   2.8065006  26.3245017
  73.1579987   2.8065006  26.3245017  71.9609987   3.7335006  26.3245017
  65.1309987   0.9625006  23.5925017  66.0879987   0.9625006  23.5925017
  64.8909987   1.8895006  23.5925017  70.1149987  16.3025006  21.4755017
  71.0719987  16.3025006  21.4755017  69.8749987  17.2295006  21.4755017
  71.3159987  14.2345006  19.9815017  72.2729987  14.2345006  19.9815017
  71.0759987  15.1615006  19.9815017  72.9519987  12.8155006  28.4765017
  73.9089987  12.8155006  28.4765017  72.7119987  13.7425006  28.4765017
  67.4429987   9.7255006  18.2495017  68.3999987   9.7255006  18.2495017
  67.2029987  10.6525006  18.2495017  67.5039987   8.2605006  15.2575017
  68.4609987   8.2605006  15.2575017  67.2639987   9.1875006  15.2575017
  74.8279987   9.1305006  26.5305017  75.7849987   9.1305006  26.5305017
  74.5879987  10.0575006  26.5305017  70.8799987   9.9405006  19.1635017
  71.8369987   9.9405006  19.1635017  70.6399987  10.8675006  19.1635017
  70.8029987   8.0965006  28.2775017  71.7599987   8.0965006  28.2775017
  70.5629987   9.0235006  28.2775017  62.4969987  10.5965006  21.0765017
  63.4539987  10.5965006  21.0765017  62.2569987  11.5235006  21.0765017
  63.8309987  14.0045006  23.7565017  64.7879987  14.0045006  23.7565017
  63.5909987  14.9315006  23.7565017  62.8349987   9.3375006  24.7265017
  63.7919987   9.3375006  24.7265017  62.5949987  10.2645006  24.7265017
  69.2229987  14.8935006  25.4405017  70.1799987  14.8935006  25.4405017
  68.9829987  15.8205006  25.4405017  63.7919987  13.7855006  29.4145017
  64.7489987  13.7855006  29.4145017  63.5519987  14.7125006  29.4145017
  69.7449987   9.1235006  16.8395017  70.7019987   9.1235006  16.8395017
  69.5049987  10.0505006  16.8395017  60.7079987   9.9285006  28.6075017
  61.6649987   9.9285006  28.6075017  60.4679987  10.8555006  28.6075017
  67.4629987  15.8415006  20.2985017  68.4199987  15.8415006  20.2985017
  67.2229987  16.7685006  20.2985017  62.0159987  15.8185006  30.1845017
  62.9729987  15.8185006  30.1845017  61.7759987  16.7455006  30.1845017
  73.4869987   0.8985006  16.6965017  74.4439987   0.8985006  16.6965017
  73.2469987   1.8255006  16.6965017  61.4729987   9.6225006  18.6915017
  62.4299987   9.6225006  18.6915017  61.2329987  10.5495006  18.6915017
  74.5919987  15.2065006  15.0985017  75.5489987  15.2065006  15.0985017
  74.3519987  16.1335006  15.0985017  57.5649987  12.0405006  27.5585017
  58.5219987  12.0405006  27.5585017  57.3249987  12.9675006  27.5585017
  57.3209987  14.7795006  24.3635017  58.2779987  14.7795006  24.3635017
  57.0809987  15.7065006  24.3635017  75.5559987  15.4795006  30.0485017
  76.5129987  15.4795006  30.0485017  75.3159987  16.4065006  30.0485017
  66.4849987  15.0305006  28.9145017  67.4419987  15.0305006  28.9145017
  66.2449987  15.9575006  28.9145017  66.9429987  18.7745006  18.7275017
  67.8999987  18.7745006  18.7275017  66.7029987  19.7015006  18.7275017
  60.5859987  17.6355006  20.5215017  61.5429987  17.6355006  20.5215017
  60.3459987  18.5625006  20.5215017  70.0119987  17.9795006  15.7045017
  70.9689987  17.9795006  15.7045017  69.7719987  18.9065006  15.7045017
  69.7019987  17.8965006  18.4555017  70.6589987  17.8965006  18.4555017
  69.4619987  18.8235006  18.4555017  72.6929987   6.9625006  30.5345017
  73.6499987   6.9625006  30.5345017  72.4529987   7.8895006  30.5345017
  59.8379987  13.3515006  28.5255017  60.7949987  13.3515006  28.5255017
  59.5979987  14.2785006  28.5255017  62.5979987   1.9225006  24.4235017
  63.5549987   1.9225006  24.4235017  62.3579987   2.8495006  24.4235017
  67.1849987   1.5065006  27.8785017  68.1419987   1.5065006  27.8785017
  66.9449987   2.4335006  27.8785017  70.4479987   5.2995006  28.7385017
  71.4049987   5.2995006  28.7385017  70.2079987   6.2265006  28.7385017
  71.2059987  10.1495006  14.5995017  72.1629987  10.1495006  14.5995017
  70.9659987  11.0765006  14.5995017  66.7999987   4.0665006  15.1645017
  67.7569987   4.0665006  15.1645017  66.5599987   4.9935006  15.1645017
  62.6049987   6.7895006  25.7015017  63.5619987   6.7895006  25.7015017
  62.3649987   7.7165006  25.7015017  62.5709987   6.9495006  20.5785017
  63.5279987   6.9495006  20.5785017  62.3309987   7.8765006  20.5785017
  68.0929987   7.4215006  19.3685017  69.0499987   7.4215006  19.3685017
  67.8529987   8.3485006  19.3685017  67.1659987   7.6255006  30.8105017
  68.1229987   7.6255006  30.8105017  66.9259987   8.5525006  30.8105017
  69.1209987   6.9015006  22.2015017  70.0779987   6.9015006  22.2015017
  68.8809987   7.8285006  22.2015017  60.2539987   7.0735006  27.4305017
  61.2109987   7.0735006  27.4305017  60.0139987   8.0005006  27.4305017
  63.6309987   4.4895006  14.2655017  64.5879987   4.4895006  14.2655017
  63.3909987   5.4165006  14.2655017  56.8869987   4.2085006  21.3685017
  57.8439987   4.2085006  21.3685017  56.6469987   5.1355006  21.3685017
  58.1749987   4.9275006  16.7745017  59.1319987   4.9275006  16.7745017
  57.9349987   5.8545006  16.7745017  68.3369987   8.5035006  26.7855017
  69.2939987   8.5035006  26.7855017  68.0969987   9.4305006  26.7855017
  65.1369987   4.4745006  21.5975017  66.0939987   4.4745006  21.5975017
  64.8969987   5.4015006  21.5975017  59.9529987   6.0435006  20.4685017
  60.9099987   6.0435006  20.4685017  59.7129987   6.9705006  20.4685017
  63.5939987   6.0705006  18.1005017  64.5509987   6.0705006  18.1005017
  63.3539987   6.9975006  18.1005017  69.5499987   3.6755006  24.8445017
  70.5069987   3.6755006  24.8445017  69.3099987   4.6025006  24.8445017
  62.2879987   7.2485006  15.6825017  63.2449987   7.2485006  15.6825017
  62.0479987   8.1755006  15.6825017  72.7649987  19.3155006  31.1585017
  73.7219987  19.3155006  31.1585017  72.5249987  20.2425006  31.1585017
  60.4259987  11.8155006  30.7375017  61.3829987  11.8155006  30.7375017
  60.1859987  12.7425006  30.7375017  66.4239987   7.2265006  23.4965017
  67.3809987   7.2265006  23.4965017  66.1839987   8.1535006  23.4965017
  61.4199987   3.3695006  19.9195017  62.3769987   3.3695006  19.9195017
  61.1799987   4.2965006  19.9195017  65.0589987   5.5775006  25.9045017
  66.0159987   5.5775006  25.9045017  64.8189987   6.5045006  25.9045017
  65.6479987  11.7925006  17.6005017  66.6049987  11.7925006  17.6005017
  65.4079987  12.7195006  17.6005017  72.8109987  10.9665006  26.4075017
  73.7679987  10.9665006  26.4075017  72.5709987  11.8935006  26.4075017
  69.4979987   4.6015006  15.7785017  70.4549987   4.6015006  15.7785017
  69.2579987   5.5285006  15.7785017  67.1439987  12.0355006  28.8395017
  68.1009987  12.0355006  28.8395017  66.9039987  12.9625006  28.8395017
  70.2159987   6.5055006  17.4265017  71.1729987   6.5055006  17.4265017
  69.9759987   7.4325006  17.4265017  60.7519987  11.1595006  23.4015017
  61.7089987  11.1595006  23.4015017  60.5119987  12.0865006  23.4015017
  67.7439987  13.2635006  16.6005017  68.7009987  13.2635006  16.6005017
  67.5039987  14.1905006  16.6005017  57.7429987   9.5815006  28.6715017
  58.6999987   9.5815006  28.6715017  57.5029987  10.5085006  28.6715017
  64.7569987   9.1345006  30.8635017  65.7139987   9.1345006  30.8635017
  64.5169987  10.0615006  30.8635017  69.4229987  14.5495006  28.7605017
  70.3799987  14.5495006  28.7605017  69.1829987  15.4765006  28.7605017
  75.1099987   6.6685006  17.1835017  76.0669987   6.6685006  17.1835017
  74.8699987   7.5955006  17.1835017  75.0959987  12.5185006  30.0035017
  76.0529987  12.5185006  30.0035017  74.8559987  13.4455006  30.0035017
  73.3829987  15.4875006  17.5915017  74.3399987  15.4875006  17.5915017
  73.1429987  16.4145006  17.5915017  70.6009987  10.3045006  24.6845017
  71.5579987  10.3045006  24.6845017  70.3609987  11.2315006  24.6845017
  63.1249987  14.6175006  20.7765017  64.0819987  14.6175006  20.7765017
  62.8849987  15.5445006  20.7765017  58.8869987   9.4715006  15.3555017
  59.8439987   9.4715006  15.3555017  58.6469987  10.3985006  15.3555017
  64.5499987  12.2895006  20.3125017  65.5069987  12.2895006  20.3125017
  64.3099987  13.2165006  20.3125017  65.0149987  16.4475006  26.7095017
  65.9719987  16.4475006  26.7095017  64.7749987  17.3745006  26.7095017
  63.2269987  17.2915006  19.8485017  64.1839987  17.2915006  19.8485017
  62.9869987  18.2185006  19.8485017  68.5569987  12.5175006  26.3635017
  69.5139987  12.5175006  26.3635017  68.3169987  13.4445006  26.3635017
  70.8279987  13.5275006  15.4075017  71.7849987  13.5275006  15.4075017
  70.5879987  14.4545006  15.4075017  71.2579987  17.0985006  28.8465017
  72.2149987  17.0985006  28.8465017  71.0179987  18.0255006  28.8465017
  75.3149987  17.9095006  15.6735017  76.2719987  17.9095006  15.6735017
  75.0749987  18.8365006  15.6735017  59.4029987   4.3065006  28.2375017
  60.3599987   4.3065006  28.2375017  59.1629987   5.2335006  28.2375017
  71.6359987  12.1765006  17.6585017  72.5929987  12.1765006  17.6585017
  71.3959987  13.1035006  17.6585017  59.0269987  16.1055006  26.6465017
  59.9839987  16.1055006  26.6465017  58.7869987  17.0325006  26.6465017
  65.0069987  14.6025006  13.8905017  65.9639987  14.6025006  13.8905017
  64.7669987  15.5295006  13.8905017  63.7789987  14.1495006  16.3575017
  64.7359987  14.1495006  16.3575017  63.5389987  15.0765006  16.3575017
  60.2919987  11.3945006  16.8515017  61.2489987  11.3945006  16.8515017
  60.0519987  12.3215006  16.8515017  68.1209987   4.0815006  27.1575017
  69.0779987   4.0815006  27.1575017  67.8809987   5.0085006  27.1575017
  68.8939987   3.6595006  18.2525017  69.8509987   3.6595006  18.2525017
  68.6539987   4.5865006  18.2525017  66.5639987  15.8185006  17.0765017
  67.5209987  15.8185006  17.0765017  66.3239987  16.7455006  17.0765017
  66.1139987   5.3995006  19.0775017  67.0709987   5.3995006  19.0775017
  65.8739987   6.3265006  19.0775017  66.6519987   6.4285006  28.2635017
  67.6089987   6.4285006  28.2635017  66.4119987   7.3555006  28.2635017
  66.9719987   2.4775006  19.9935017  67.9289987   2.4775006  19.9935017
  66.7319987   3.4045006  19.9935017  63.9459987  16.8555006  17.0905017
  64.9029987  16.8555006  17.0905017  63.7059987  17.7825006  17.0905017
  62.6119987   3.5795006  16.6745017  63.5689987   3.5795006  16.6745017
  62.3719987   4.5065006  16.6745017  72.8419987   4.3255006  29.1015017
  73.7989987   4.3255006  29.1015017  72.6019987   5.2525006  29.1015017
  71.4419987   8.0955006  23.1415017  72.3989987   8.0955006  23.1415017
  71.2019987   9.0225006  23.1415017  60.8539987  14.0115006  15.7325017
  61.8109987  14.0115006  15.7325017  60.6139987  14.9385006  15.7325017
  59.1949987   6.6845006  14.8675017  60.1519987   6.6845006  14.8675017
  58.9549987   7.6115006  14.8675017  72.4899987  17.3615006  24.8235017
  73.4469987  17.3615006  24.8235017  72.2499987  18.2885006  24.8235017
  59.7799987   1.6735006  23.4605017  60.7369987   1.6735006  23.4605017
  59.5399987   2.6005006  23.4605017  58.9619987  15.3895006  19.7345017
  59.9189987  15.3895006  19.7345017  58.7219987  16.3165006  19.7345017
  58.2749987  17.9925006  30.9855017  59.2319987  17.9925006  30.9855017
  58.0349987  18.9195006  30.9855017  62.8419987  16.9635006  32.6445017
  63.7989987  16.9635006  32.6445017  62.6019987  17.8905006  32.6445017
  66.9579987  16.4705006  14.0115017  67.9149987  16.4705006  14.0115017
  66.7179987  17.3975006  14.0115017  69.3669987  15.3355006  31.3685017
  70.3239987  15.3355006  31.3685017  69.1269987  16.2625006  31.3685017
  71.5099987  16.2115006  14.2375017  72.4669987  16.2115006  14.2375017
  71.2699987  17.1385006  14.2375017  58.1039987  11.8225006  32.0215017
  59.0609987  11.8225006  32.0215017  57.8639987  12.7495006  32.0215017
  62.4269987  12.1625006  14.0725017  63.3839987  12.1625006  14.0725017
  62.1869987  13.0895006  14.0725017  64.7989987  11.8025006  31.4185017
  65.7559987  11.8025006  31.4185017  64.5589987  12.7295006  31.4185017
  67.8249987  13.2615006  13.8085017  68.7819987  13.2615006  13.8085017
  67.5849987  14.1885006  13.8085017  70.4999987  11.6795006  28.8015017
  71.4569987  11.6795006  28.8015017  70.2599987  12.6065006  28.8015017
  58.9959987   9.0445006  31.4075017  59.9529987   9.0445006  31.4075017
  58.7559987   9.9715006  31.4075017  63.6289987  10.1725006  16.4575017
  64.5859987  10.1725006  16.4575017  63.3889987  11.0995006  16.4575017
  62.9059987   7.9985006  28.7735017  63.8629987   7.9985006  28.7735017
  62.6659987   8.9255006  28.7735017  64.7019987   8.3955006  14.6775017
  65.6589987   8.3955006  14.6775017  64.4619987   9.3225006  14.6775017
  67.9619987  10.5435006  32.0885017  68.9189987  10.5435006  32.0885017
  67.7219987  11.4705006  32.0885017  74.0589987  10.7225006  14.1075017
  75.0159987  10.7225006  14.1075017  73.8189987  11.6495006  14.1075017
  63.2929987   5.3675006  29.8375017  64.2499987   5.3675006  29.8375017
  63.0529987   6.2945006  29.8375017  63.7079987   3.7425006  27.3755017
  64.6649987   3.7425006  27.3755017  63.4679987   4.6695006  27.3755017
  65.2489987   9.2185006  27.6185017  66.2059987   9.2185006  27.6185017
  65.0089987  10.1455006  27.6185017  69.6479987   6.9975006  32.5965017
  70.6049987   6.9975006  32.5965017  69.4079987   7.9245006  32.5965017
  70.9729987   9.7895006  30.7365017  71.9299987   9.7895006  30.7365017
  70.7329987  10.7165006  30.7365017  61.7569987   6.6195006  31.7555017
  62.7139987   6.6195006  31.7555017  61.5169987   7.5465006  31.7555017
  64.5659987   1.2345006  27.6495017  65.5229987   1.2345006  27.6495017
  64.3259987   2.1615006  27.6495017  65.7569987   5.5155006  31.3775017
  66.7139987   5.5155006  31.3775017  65.5169987   6.4425006  31.3775017
  68.4769987   4.6855006  30.4685017  69.4339987   4.6855006  30.4685017
  68.2369987   5.6125006  30.4685017  70.1059987   3.3145006  32.4115017
  71.0629987   3.3145006  32.4115017  69.8659987   4.2415006  32.4115017
  59.8849987   4.5305006  31.4985017  60.8419987   4.5305006  31.4985017
  59.6449987   5.4575006  31.4985017  65.3009987 108.5245006  30.5125017
  66.2579987 108.5245006  30.5125017  65.0609987 109.4515006  30.5125017
  65.0539987   2.2515006  32.6095017  66.0109987   2.2515006  32.6095017
  64.8139987   3.1785006  32.6095017  64.5499987  19.0905006  15.7405017
  65.5069987  19.0905006  15.7405017  64.3099987  20.0175006  15.7405017
  58.1109987  13.6925006  15.2095017  59.0679987  13.6925006  15.2095017
  57.8709987  14.6195006  15.2095017  56.8729987  19.0705006  20.1935017
  57.8299987  19.0705006  20.1935017  56.6329987  19.9975006  20.1935017
  57.6939987  17.1935006  22.0545017  58.6509987  17.1935006  22.0545017
  57.4539987  18.1205006  22.0545017  75.2269987  17.9895006  25.0035017
  76.1839987  17.9895006  25.0035017  74.9869987  18.9165006  25.0035017
  74.8089987  17.5845006  27.9525017  75.7659987  17.5845006  27.9525017
  74.5689987  18.5115006  27.9525017  73.2509987  13.3205006  32.6035017
  74.2079987  13.3205006  32.6035017  73.0109987  14.2475006  32.6035017
  74.5579987  11.6315006  18.0585017  75.5149987  11.6315006  18.0585017
  74.3179987  12.5585006  18.0585017  74.9319987   9.7025006  19.9265017
  75.8889987   9.7025006  19.9265017  74.6919987  10.6295006  19.9265017
  74.6879987  12.4185006  24.9085017  75.6449987  12.4185006  24.9085017
  74.4479987  13.3455006  24.9085017  73.2289987  15.3215006  27.1885017
  74.1859987  15.3215006  27.1885017  72.9889987  16.2485006  27.1885017
  75.2299987   9.5395006  16.3235017  76.1869987   9.5395006  16.3235017
  74.9899987  10.4665006  16.3235017  73.5979987   6.7835006  14.8455017
  74.5549987   6.7835006  14.8455017  73.3579987   7.7105006  14.8455017
  72.7449987   8.1875006  20.4905017  73.7019987   8.1875006  20.4905017
  72.5049987   9.1145006  20.4905017  57.7509987  10.2705006  24.5455017
  58.7079987  10.2705006  24.5455017  57.5109987  11.1975006  24.5455017
  73.5939987  10.1585006  30.1695017  74.5509987  10.1585006  30.1695017
  73.3539987  11.0855006  30.1695017  75.1059987   8.0475006  30.8345017
  76.0629987   8.0475006  30.8345017  74.8659987   8.9745006  30.8345017
  72.8249987   4.2585006  14.0025017  73.7819987   4.2585006  14.0025017
  72.5849987   5.1855006  14.0025017  72.4029987   5.7795006  18.9275017
  73.3599987   5.7795006  18.9275017  72.1629987   6.7065006  18.9275017
  73.0419987   6.3375006  24.3835017  73.9989987   6.3375006  24.3835017
  72.8019987   7.2645006  24.3835017  73.1049987   7.0615006  27.1745017
  74.0619987   7.0615006  27.1745017  72.8649987   7.9885006  27.1745017
  57.4079987   5.6495006  30.7375017  58.3649987   5.6495006  30.7375017
  57.1679987   6.5765006  30.7375017  75.3159987   1.1815006  32.4655017
  76.2729987   1.1815006  32.4655017  75.0759987   2.1085006  32.4655017
  73.0649987   3.0595006  18.9765017  74.0219987   3.0595006  18.9765017
  72.8249987   3.9865006  18.9765017  58.5399987   3.8995006  23.5525017
  59.4969987   3.8995006  23.5525017  58.2999987   4.8265006  23.5525017
  56.8559987   6.8525006  24.6025017  57.8129987   6.8525006  24.6025017
  56.6159987   7.7795006  24.6025017  74.9019987   3.1975006  30.8625017
  75.8589987   3.1975006  30.8625017  74.6619987   4.1245006  30.8625017
  74.9209987   3.1225006  15.5715017  75.8779987   3.1225006  15.5715017
  74.6809987   4.0495006  15.5715017  57.2049987   3.0925006  18.6925017
  58.1619987   3.0925006  18.6925017  56.9649987   4.0195006  18.6925017
  71.9569987  18.0735006  20.6175017  72.9139987  18.0735006  20.6175017
  71.7169987  19.0005006  20.6175017  57.1789987   1.8105006  26.9655017
  58.1359987   1.8105006  26.9655017  56.9389987   2.7375006  26.9655017
  59.3809987  14.9905006  31.1325017  60.3379987  14.9905006  31.1325017
  59.1409987  15.9175006  31.1325017  62.3129987  15.9795006  27.4345017
  63.2699987  15.9795006  27.4345017  62.0729987  16.9065006  27.4345017
  66.6499987  17.3495006  30.2975017  67.6069987  17.3495006  30.2975017
  66.4099987  18.2765006  30.2975017  68.9419987  18.6485006  29.6035017
  69.8989987  18.6485006  29.6035017  68.7019987  19.5755006  29.6035017
  73.9969987   1.4525006  28.6955017  74.9539987   1.4525006  28.6955017
  73.7569987   2.3795006  28.6955017  59.7019987  19.2035006  27.4255017
  60.6589987  19.2035006  27.4255017  59.4619987  20.1305006  27.4255017
  62.1729987  18.7605006  26.4625017  63.1299987  18.7605006  26.4625017
  61.9329987  19.6875006  26.4625017  66.8989987  18.6995006  25.6985017
  67.8559987  18.6995006  25.6985017  66.6589987  19.6265006  25.6985017
  69.3479987  17.6245006  26.3825017  70.3049987  17.6245006  26.3825017
  69.1079987  18.5515006  26.3825017  71.7649987  19.1145006  26.9085017
  72.7219987  19.1145006  26.9085017  71.5249987  20.0415006  26.9085017
  59.1539987  17.8575006  24.3355017  60.1109987  17.8575006  24.3355017
  58.9139987  18.7845006  24.3355017  61.2569987  16.5775006  22.9885017
  62.2139987  16.5775006  22.9885017  61.0169987  17.5045006  22.9885017
  63.8519987  17.0535006  23.8725017  64.8089987  17.0535006  23.8725017
  63.6119987  17.9805006  23.8725017  67.3119987   2.7455006  23.0125017
  68.2689987   2.7455006  23.0125017  67.0719987   3.6725006  23.0125017
  72.5329987   1.0805006  23.2745017  73.4899987   1.0805006  23.2745017
  72.2929987   2.0075006  23.2745017  74.1689987   1.9965006  21.3895017
  75.1259987   1.9965006  21.3895017  73.9289987   2.9235006  21.3895017
  59.6399987   1.3245006  20.8515017  60.5969987   1.3245006  20.8515017
  59.3999987   2.2515006  20.8515017  58.7429987   1.5195006  17.0005017
  59.6999987   1.5195006  17.0005017  58.5029987   2.4465006  17.0005017
  64.1989987   1.3035006  20.6355017  65.1559987   1.3035006  20.6355017
  63.9589987   2.2305006  20.6355017  69.7759987   1.3315006  22.2785017
  70.7329987   1.3315006  22.2785017  69.5359987   2.2585006  22.2785017
  71.1449987   1.3535006  18.0255017  72.1019987   1.3535006  18.0255017
  70.9049987   2.2805006  18.0255017  58.3839987  17.0555006  17.5875017
  59.3409987  17.0555006  17.5875017  58.1439987  17.9825006  17.5875017
  60.3079987   3.0375006  15.0555017  61.2649987   3.0375006  15.0555017
  60.0679987   3.9645006  15.0555017  65.3089987   3.3085006  17.5115017
  66.2659987   3.3085006  17.5115017  65.0689987   4.2355006  17.5115017
  67.2469987  18.3385006  15.9595017  68.2039987  18.3385006  15.9595017
  67.0069987  19.2655006  15.9595017  73.9579987  17.8635006  18.6535017
  74.9149987  17.8635006  18.6535017  73.7179987  18.7905006  18.6535017
  59.5749987   1.8885006  30.3585017  60.5319987   1.8885006  30.3585017
  59.3349987   2.8155006  30.3585017  61.5739987   1.2465006  31.9275017
  62.5309987   1.2465006  31.9275017  61.3339987   2.1735006  31.9275017
  60.1789987  18.0265006  14.5505017  61.1359987  18.0265006  14.5505017
  59.9389987  18.9535006  14.5505017  70.0629987 108.3665006  31.9505017
  71.0199987 108.3665006  31.9505017  69.8229987 109.2935006  31.9505017
  73.1859987  16.5995006  30.7435017  74.1429987  16.5995006  30.7435017
  72.9459987  17.5265006  30.7435017  87.6249987  10.4835006  20.7415017
  88.5819987  10.4835006  20.7415017  87.3849987  11.4105006  20.7415017
  86.4949987   9.7475006  24.2245017  87.4519987   9.7475006  24.2245017
  86.2549987  10.6745006  24.2245017  78.8519987   9.4025006  25.7785017
  79.8089987   9.4025006  25.7785017  78.6119987  10.3295006  25.7785017
  90.1959987  12.6865006  22.4995017  91.1529987  12.6865006  22.4995017
  89.9559987  13.6135006  22.4995017  79.7799987  13.8525006  24.3015017
  80.7369987  13.8525006  24.3015017  79.5399987  14.7795006  24.3015017
  76.4229987   7.4305006  19.7585017  77.3799987   7.4305006  19.7585017
  76.1829987   8.3575006  19.7585017  77.1199987   9.6565006  21.8915017
  78.0769987   9.6565006  21.8915017  76.8799987  10.5835006  21.8915017
  87.3069987  17.8375006  22.7385017  88.2639987  17.8375006  22.7385017
  87.0669987  18.7645006  22.7385017  84.8719987  12.1545006  24.6675017
  85.8289987  12.1545006  24.6675017  84.6319987  13.0815006  24.6675017
  93.5039987   3.7595006  25.4275017  94.4609987   3.7595006  25.4275017
  93.2639987   4.6865006  25.4275017  88.0389987   6.5995006  24.9935017
  88.9959987   6.5995006  24.9935017  87.7989987   7.5265006  24.9935017
  81.2069987   4.6925006  22.1965017  82.1639987   4.6925006  22.1965017
  80.9669987   5.6195006  22.1965017  88.8889987   4.7705006  20.5895017
  89.8459987   4.7705006  20.5895017  88.6489987   5.6975006  20.5895017
  77.7829987   7.1035006  22.9675017  78.7399987   7.1035006  22.9675017
  77.5429987   8.0305006  22.9675017  82.9499987   8.6525006  22.2485017
  83.9069987   8.6525006  22.2485017  82.7099987   9.5795006  22.2485017
  93.9349987   5.2215006  27.6905017  94.8919987   5.2215006  27.6905017
  93.6949987   6.1485006  27.6905017  80.0849987   3.6365006  26.2855017
  81.0419987   3.6365006  26.2855017  79.8449987   4.5635006  26.2855017
  87.3609987  13.0835006  19.8145017  88.3179987  13.0835006  19.8145017
  87.1209987  14.0105006  19.8145017  82.5779987  11.2415006  26.5255017
  83.5349987  11.2415006  26.5255017  82.3379987  12.1685006  26.5255017
  90.6889987   4.1045006  22.5775017  91.6459987   4.1045006  22.5775017
  90.4489987   5.0315006  22.5775017  79.6069987   5.4805006  24.2675017
  80.5639987   5.4805006  24.2675017  79.3669987   6.4075006  24.2675017
  81.0159987  13.2315006  27.3355017  81.9729987  13.2315006  27.3355017
  80.7759987  14.1585006  27.3355017  77.1019987  12.8675006  18.1285017
  78.0589987  12.8675006  18.1285017  76.8619987  13.7945006  18.1285017
  90.7179987  14.5225006  24.8715017  91.6749987  14.5225006  24.8715017
  90.4779987  15.4495006  24.8715017  91.0629987   2.8045006  26.3305017
  92.0199987   2.8045006  26.3305017  90.8229987   3.7315006  26.3305017
  83.9799987   0.9625006  23.5745017  84.9369987   0.9625006  23.5745017
  83.7399987   1.8895006  23.5745017  88.9709987  16.3075006  21.4745017
  89.9279987  16.3075006  21.4745017  88.7309987  17.2345006  21.4745017
  90.1719987  14.2345006  19.9815017  91.1289987  14.2345006  19.9815017
  89.9319987  15.1615006  19.9815017  91.7949987  12.8105006  28.4995017
  92.7519987  12.8105006  28.4995017  91.5549987  13.7375006  28.4995017
  86.2999987   9.7345006  18.2505017  87.2569987   9.7345006  18.2505017
  86.0599987  10.6615006  18.2505017  86.3619987   8.2615006  15.2545017
  87.3189987   8.2615006  15.2545017  86.1219987   9.1885006  15.2545017
  93.6849987   9.1285006  26.5265017  94.6419987   9.1285006  26.5265017
  93.4449987  10.0555006  26.5265017  89.7339987   9.9405006  19.1645017
  90.6909987   9.9405006  19.1645017  89.4939987  10.8675006  19.1645017
  89.6599987   8.1025006  28.2805017  90.6169987   8.1025006  28.2805017
  89.4199987   9.0295006  28.2805017  81.3539987  10.5935006  21.0755017
  82.3109987  10.5935006  21.0755017  81.1139987  11.5205006  21.0755017
  82.6819987  13.9935006  23.7585017  83.6389987  13.9935006  23.7585017
  82.4419987  14.9205006  23.7585017  81.6919987   9.3375006  24.7265017
  82.6489987   9.3375006  24.7265017  81.4519987  10.2645006  24.7265017
  88.0779987  14.9005006  25.4355017  89.0349987  14.9005006  25.4355017
  87.8379987  15.8275006  25.4355017  82.6299987  13.7605006  29.4315017
  83.5869987  13.7605006  29.4315017  82.3899987  14.6875006  29.4315017
  88.6009987   9.1175006  16.8405017  89.5579987   9.1175006  16.8405017
  88.3609987  10.0445006  16.8405017  79.5639987   9.9285006  28.6075017
  80.5209987   9.9285006  28.6075017  79.3239987  10.8555006  28.6075017
  86.3219987  15.8505006  20.3015017  87.2789987  15.8505006  20.3015017
  86.0819987  16.7775006  20.3015017  80.8699987  15.8105006  30.1855017
  81.8269987  15.8105006  30.1855017  80.6299987  16.7375006  30.1855017
  92.3429987   0.8985006  16.6955017  93.2999987   0.8985006  16.6955017
  92.1029987   1.8255006  16.6955017  80.3169987   9.6315006  18.6975017
  81.2739987   9.6315006  18.6975017  80.0769987  10.5585006  18.6975017
  93.4509987  15.2145006  15.0745017  94.4079987  15.2145006  15.0745017
  93.2109987  16.1415006  15.0745017  76.4229987  12.0425006  27.5585017
  77.3799987  12.0425006  27.5585017  76.1829987  12.9695006  27.5585017
  76.1769987  14.7795006  24.3625017  77.1339987  14.7795006  24.3625017
  75.9369987  15.7065006  24.3625017  94.4059987  15.4755006  30.0455017
  95.3629987  15.4755006  30.0455017  94.1659987  16.4025006  30.0455017
  85.3689987  15.0245006  28.9125017  86.3259987  15.0245006  28.9125017
  85.1289987  15.9515006  28.9125017  85.8039987  18.7725006  18.7185017
  86.7609987  18.7725006  18.7185017  85.5639987  19.6995006  18.7185017
  79.4449987  17.6375006  20.5235017  80.4019987  17.6375006  20.5235017
  79.2049987  18.5645006  20.5235017  88.8689987  17.9775006  15.7015017
  89.8259987  17.9775006  15.7015017  88.6289987  18.9045006  15.7015017
  88.5579987  17.9045006  18.4655017  89.5149987  17.9045006  18.4655017
  88.3179987  18.8315006  18.4655017  91.5469987   6.9745006  30.5325017
  92.5039987   6.9745006  30.5325017  91.3069987   7.9015006  30.5325017
  78.6929987  13.3585006  28.5245017  79.6499987  13.3585006  28.5245017
  78.4529987  14.2855006  28.5245017  81.4569987   1.9565006  24.4025017
  82.4139987   1.9565006  24.4025017  81.2169987   2.8835006  24.4025017
  86.0339987   1.5595006  27.9025017  86.9909987   1.5595006  27.9025017
  85.7939987   2.4865006  27.9025017  89.3049987   5.3035006  28.7415017
  90.2619987   5.3035006  28.7415017  89.0649987   6.2305006  28.7415017
  90.0559987  10.1575006  14.5915017  91.0129987  10.1575006  14.5915017
  89.8159987  11.0845006  14.5915017  85.6629987   4.0645006  15.1645017
  86.6199987   4.0645006  15.1645017  85.4229987   4.9915006  15.1645017
  81.4609987   6.7895006  25.7005017  82.4179987   6.7895006  25.7005017
  81.2209987   7.7165006  25.7005017  81.4379987   6.9185006  20.5835017
  82.3949987   6.9185006  20.5835017  81.1979987   7.8455006  20.5835017
  87.0569987   7.4855006  19.4165017  88.0139987   7.4855006  19.4165017
  86.8169987   8.4125006  19.4165017  86.0219987   7.6245006  30.8115017
  86.9789987   7.6245006  30.8115017  85.7819987   8.5515006  30.8115017
  87.9509987   6.8915006  22.2005017  88.9079987   6.8915006  22.2005017
  87.7109987   7.8185006  22.2005017  79.1139987   7.0815006  27.4315017
  80.0709987   7.0815006  27.4315017  78.8739987   8.0085006  27.4315017
  82.4959987   4.4985006  14.3095017  83.4529987   4.4985006  14.3095017
  82.2559987   5.4255006  14.3095017  75.7429987   4.2085006  21.3685017
  76.6999987   4.2085006  21.3685017  75.5029987   5.1355006  21.3685017
  77.0319987   4.9275006  16.7765017  77.9889987   4.9275006  16.7765017
  76.7919987   5.8545006  16.7765017  87.1939987   8.5035006  26.7855017
  88.1509987   8.5035006  26.7855017  86.9539987   9.4305006  26.7855017
  83.9479987   4.5315006  21.7635017  84.9049987   4.5315006  21.7635017
  83.7079987   5.4585006  21.7635017  78.8039987   6.0475006  20.4675017
  79.7609987   6.0475006  20.4675017  78.5639987   6.9745006  20.4675017
  82.4729987   6.0265006  18.1055017  83.4299987   6.0265006  18.1055017
  82.2329987   6.9535006  18.1055017  88.4089987   3.6755006  24.8505017
  89.3659987   3.6755006  24.8505017  88.1689987   4.6025006  24.8505017
  81.1449987   7.2495006  15.6875017  82.1019987   7.2495006  15.6875017
  80.9049987   8.1765006  15.6875017  91.6119987  19.3445006  31.1655017
  92.5689987  19.3445006  31.1655017  91.3719987  20.2715006  31.1655017
  79.2789987  11.8135006  30.7365017  80.2359987  11.8135006  30.7365017
  79.0389987  12.7405006  30.7365017  85.2639987   7.2085006  23.4795017
  86.2209987   7.2085006  23.4795017  85.0239987   8.1355006  23.4795017
  80.2989987   3.3625006  19.9365017  81.2559987   3.3625006  19.9365017
  80.0589987   4.2895006  19.9365017  83.9139987   5.5765006  25.9135017
  84.8709987   5.5765006  25.9135017  83.6739987   6.5035006  25.9135017
  84.4999987  11.8125006  17.5955017  85.4569987  11.8125006  17.5955017
  84.2599987  12.7395006  17.5955017  91.6599987  10.9865006  26.4265017
  92.6169987  10.9865006  26.4265017  91.4199987  11.9135006  26.4265017
  88.3429987   4.5905006  15.8085017  89.2999987   4.5905006  15.8085017
  88.1029987   5.5175006  15.8085017  86.0239987  12.0355006  28.8615017
  86.9809987  12.0355006  28.8615017  85.7839987  12.9625006  28.8615017
  89.0559987   6.5005006  17.4345017  90.0129987   6.5005006  17.4345017
  88.8159987   7.4275006  17.4345017  79.6069987  11.1595006  23.4015017
  80.5639987  11.1595006  23.4015017  79.3669987  12.0865006  23.4015017
  86.6109987  13.2545006  16.6315017  87.5679987  13.2545006  16.6315017
  86.3709987  14.1815006  16.6315017  76.5989987   9.5815006  28.6725017
  77.5559987   9.5815006  28.6725017  76.3589987  10.5085006  28.6725017
  83.6129987   9.1345006  30.8635017  84.5699987   9.1345006  30.8635017
  83.3729987  10.0615006  30.8635017  88.2859987  14.4395006  28.7995017
  89.2429987  14.4395006  28.7995017  88.0459987  15.3665006  28.7995017
  93.9659987   6.6685006  17.1835017  94.9229987   6.6685006  17.1835017
  93.7259987   7.5955006  17.1835017  93.9279987  12.4915006  30.0045017
  94.8849987  12.4915006  30.0045017  93.6879987  13.4185006  30.0045017
  92.2399987  15.4875006  17.5925017  93.1969987  15.4875006  17.5925017
  91.9999987  16.4145006  17.5925017  89.4579987  10.3005006  24.6815017
  90.4149987  10.3005006  24.6815017  89.2179987  11.2275006  24.6815017
  81.9819987  14.6255006  20.7855017  82.9389987  14.6255006  20.7855017
  81.7419987  15.5525006  20.7855017  77.7429987   9.4715006  15.3565017
  78.6999987   9.4715006  15.3565017  77.5029987  10.3985006  15.3565017
  83.4049987  12.2885006  20.3125017  84.3619987  12.2885006  20.3125017
  83.1649987  13.2155006  20.3125017  83.8579987  16.4685006  26.7035017
  84.8149987  16.4685006  26.7035017  83.6179987  17.3955006  26.7035017
  82.0769987  17.2945006  19.8505017  83.0339987  17.2945006  19.8505017
  81.8369987  18.2215006  19.8505017  87.3999987  12.5005006  26.3345017
  88.3569987  12.5005006  26.3345017  87.1599987  13.4275006  26.3345017
  89.6949987  13.5325006  15.4255017  90.6519987  13.5325006  15.4255017
  89.4549987  14.4595006  15.4255017  90.1739987  17.0465006  28.8375017
  91.1309987  17.0465006  28.8375017  89.9339987  17.9735006  28.8375017
  94.1699987  17.9105006  15.6675017  95.1269987  17.9105006  15.6675017
  93.9299987  18.8375006  15.6675017  78.2619987   4.3215006  28.2635017
  79.2189987   4.3215006  28.2635017  78.0219987   5.2485006  28.2635017
  90.4869987  12.1755006  17.6595017  91.4439987  12.1755006  17.6595017
  90.2469987  13.1025006  17.6595017  77.8739987  16.1115006  26.6505017
  78.8309987  16.1115006  26.6505017  77.6339987  17.0385006  26.6505017
  83.8139987  14.6175006  13.9045017  84.7709987  14.6175006  13.9045017
  83.5739987  15.5445006  13.9045017  82.6339987  14.1485006  16.3605017
  83.5909987  14.1485006  16.3605017  82.3939987  15.0755006  16.3605017
  79.1469987  11.3945006  16.8505017  80.1039987  11.3945006  16.8505017
  78.9069987  12.3215006  16.8505017  86.9779987   4.0815006  27.1555017
  87.9349987   4.0815006  27.1555017  86.7379987   5.0085006  27.1555017
  87.6789987   3.7045006  18.2735017  88.6359987   3.7045006  18.2735017
  87.4389987   4.6315006  18.2735017  85.4209987  15.8195006  17.0795017
  86.3779987  15.8195006  17.0795017  85.1809987  16.7465006  17.0795017
  84.9419987   6.1435006  18.9715017  85.8989987   6.1435006  18.9715017
  84.7019987   7.0705006  18.9715017  85.5099987   6.4305006  28.2635017
  86.4669987   6.4305006  28.2635017  85.2699987   7.3575006  28.2635017
  86.0339987   2.3175006  20.0795017  86.9909987   2.3175006  20.0795017
  85.7939987   3.2445006  20.0795017  82.8019987  16.8555006  17.0905017
  83.7589987  16.8555006  17.0905017  82.5619987  17.7825006  17.0905017
  81.4629987   3.5715006  16.7095017  82.4199987   3.5715006  16.7095017
  81.2229987   4.4985006  16.7095017  91.6999987   4.3395006  29.1035017
  92.6569987   4.3395006  29.1035017  91.4599987   5.2665006  29.1035017
  90.2999987   8.0935006  23.1425017  91.2569987   8.0935006  23.1425017
  90.0599987   9.0205006  23.1425017  79.7139987  14.0045006  15.7395017
  80.6709987  14.0045006  15.7395017  79.4739987  14.9315006  15.7395017
  78.0509987   6.6845006  14.8655017  79.0079987   6.6845006  14.8655017
  77.8109987   7.6115006  14.8655017  91.3679987  17.3375006  24.8045017
  92.3249987  17.3375006  24.8045017  91.1279987  18.2645006  24.8045017
  78.6369987   1.6765006  23.4565017  79.5939987   1.6765006  23.4565017
  78.3969987   2.6035006  23.4565017  77.8179987  15.3905006  19.7345017
  78.7749987  15.3905006  19.7345017  77.5779987  16.3175006  19.7345017
  77.0419987  18.0325006  31.0305017  77.9989987  18.0325006  31.0305017
  76.8019987  18.9595006  31.0305017  81.6969987  16.9575006  32.6505017
  82.6539987  16.9575006  32.6505017  81.4569987  17.8845006  32.6505017
  85.8209987  16.4725006  14.0385017  86.7779987  16.4725006  14.0385017
  85.5809987  17.3995006  14.0385017  88.2539987  15.3135006  31.3635017
  89.2109987  15.3135006  31.3635017  88.0139987  16.2405006  31.3635017
  90.3919987  16.2305006  14.2375017  91.3489987  16.2305006  14.2375017
  90.1519987  17.1575006  14.2375017  76.9589987  11.8235006  32.0205017
  77.9159987  11.8235006  32.0205017  76.7189987  12.7505006  32.0205017
  81.2899987  12.1645006  14.0705017  82.2469987  12.1645006  14.0705017
  81.0499987  13.0915006  14.0705017  83.6559987  11.8025006  31.4185017
  84.6129987  11.8025006  31.4185017  83.4159987  12.7295006  31.4185017
  86.7069987  13.2575006  13.8315017  87.6639987  13.2575006  13.8315017
  86.4669987  14.1845006  13.8315017  89.3809987  11.6905006  28.9015017
  90.3379987  11.6905006  28.9015017  89.1409987  12.6175006  28.9015017
  77.8519987   9.0435006  31.4095017  78.8089987   9.0435006  31.4095017
  77.6119987   9.9705006  31.4095017  82.4989987  10.1665006  16.4625017
  83.4559987  10.1665006  16.4625017  82.2589987  11.0935006  16.4625017
  81.7619987   7.9985006  28.7735017  82.7189987   7.9985006  28.7735017
  81.5219987   8.9255006  28.7735017  83.5599987   8.3895006  14.6845017
  84.5169987   8.3895006  14.6845017  83.3199987   9.3165006  14.6845017
  86.8329987  10.5475006  32.0865017  87.7899987  10.5475006  32.0865017
  86.5929987  11.4745006  32.0865017  92.9139987  10.7245006  14.1075017
  93.8709987  10.7245006  14.1075017  92.6739987  11.6515006  14.1075017
  82.1479987   5.3645006  29.8365017  83.1049987   5.3645006  29.8365017
  81.9079987   6.2915006  29.8365017  82.5649987   3.7435006  27.3735017
  83.5219987   3.7435006  27.3735017  82.3249987   4.6705006  27.3735017
  84.1049987   9.2185006  27.6205017  85.0619987   9.2185006  27.6205017
  83.8649987  10.1455006  27.6205017  88.5109987   7.0125006  32.5905017
  89.4679987   7.0125006  32.5905017  88.2709987   7.9395006  32.5905017
  89.8409987   9.8015006  30.7535017  90.7979987   9.8015006  30.7535017
  89.6009987  10.7285006  30.7535017  80.6139987   6.6195006  31.7565017
  81.5709987   6.6195006  31.7565017  80.3739987   7.5465006  31.7565017
  83.4329987   1.2315006  27.6415017  84.3899987   1.2315006  27.6415017
  83.1929987   2.1585006  27.6415017  84.6129987   5.5155006  31.3745017
  85.5699987   5.5155006  31.3745017  84.3729987   6.4425006  31.3745017
  87.3339987   4.6865006  30.4685017  88.2909987   4.6865006  30.4685017
  87.0939987   5.6135006  30.4685017  88.9639987   3.3055006  32.4045017
  89.9209987   3.3055006  32.4045017  88.7239987   4.2325006  32.4045017
  78.7099987   4.5245006  31.4945017  79.6669987   4.5245006  31.4945017
  78.4699987   5.4515006  31.4945017  84.1559987 108.5305006  30.5255017
  85.1129987 108.5305006  30.5255017  83.9159987 109.4575006  30.5255017
  83.9079987   2.2525006  32.6085017  84.8649987   2.2525006  32.6085017
  83.6679987   3.1795006  32.6085017  83.4049987  19.0905006  15.7405017
  84.3619987  19.0905006  15.7405017  83.1649987  20.0175006  15.7405017
  76.9679987  13.6925006  15.2105017  77.9249987  13.6925006  15.2105017
  76.7279987  14.6195006  15.2105017  75.7199987  19.0765006  20.2005017
  76.6769987  19.0765006  20.2005017  75.4799987  20.0035006  20.2005017
  76.5509987  17.1935006  22.0535017  77.5079987  17.1935006  22.0535017
  76.3109987  18.1205006  22.0535017  94.0859987  17.9915006  25.0045017
  95.0429987  17.9915006  25.0045017  93.8459987  18.9185006  25.0045017
  93.6609987  17.5875006  27.9485017  94.6179987  17.5875006  27.9485017
  93.4209987  18.5145006  27.9485017  92.2089987  13.3745006  32.7465017
  93.1659987  13.3745006  32.7465017  91.9689987  14.3015006  32.7465017
  93.4139987  11.6315006  18.0585017  94.3709987  11.6315006  18.0585017
  93.1739987  12.5585006  18.0585017  93.7879987   9.7025006  19.9265017
  94.7449987   9.7025006  19.9265017  93.5479987  10.6295006  19.9265017
  93.5439987  12.4175006  24.9085017  94.5009987  12.4175006  24.9085017
  93.3039987  13.3445006  24.9085017  92.0849987  15.3015006  27.1935017
  93.0419987  15.3015006  27.1935017  91.8449987  16.2285006  27.1935017
  94.0869987   9.5395006  16.3235017  95.0439987   9.5395006  16.3235017
  93.8469987  10.4665006  16.3235017  92.4539987   6.7825006  14.8445017
  93.4109987   6.7825006  14.8445017  92.2139987   7.7095006  14.8445017
  91.6019987   8.1875006  20.4915017  92.5589987   8.1875006  20.4915017
  91.3619987   9.1145006  20.4915017  76.6059987  10.2705006  24.5455017
  77.5629987  10.2705006  24.5455017  76.3659987  11.1975006  24.5455017
  92.4399987  10.1845006  30.2225017  93.3969987  10.1845006  30.2225017
  92.1999987  11.1115006  30.2225017  93.9459987   8.0625006  30.8355017
  94.9029987   8.0625006  30.8355017  93.7059987   8.9895006  30.8355017
  91.6809987   4.2595006  14.0025017  92.6379987   4.2595006  14.0025017
  91.4409987   5.1865006  14.0025017  91.2599987   5.7775006  18.9305017
  92.2169987   5.7775006  18.9305017  91.0199987   6.7045006  18.9305017
  91.9029987   6.3255006  24.3875017  92.8599987   6.3255006  24.3875017
  91.6629987   7.2525006  24.3875017  91.9659987   7.0535006  27.1755017
  92.9229987   7.0535006  27.1755017  91.7259987   7.9805006  27.1755017
  76.2239987   5.5765006  30.6915017  77.1809987   5.5765006  30.6915017
  75.9839987   6.5035006  30.6915017  94.1769987   1.1845006  32.4745017
  95.1339987   1.1845006  32.4745017  93.9369987   2.1115006  32.4745017
  91.9229987   3.0585006  18.9775017  92.8799987   3.0585006  18.9775017
  91.6829987   3.9855006  18.9775017  77.3969987   3.9075006  23.5365017
  78.3539987   3.9075006  23.5365017  77.1569987   4.8345006  23.5365017
  75.7119987   6.8525006  24.6025017  76.6689987   6.8525006  24.6025017
  75.4719987   7.7795006  24.6025017  93.7619987   3.2095006  30.8705017
  94.7189987   3.2095006  30.8705017  93.5219987   4.1365006  30.8705017
  93.7769987   3.1185006  15.5665017  94.7339987   3.1185006  15.5665017
  93.5369987   4.0455006  15.5665017  76.0579987   3.0945006  18.6925017
  77.0149987   3.0945006  18.6925017  75.8179987   4.0215006  18.6925017
  90.8109987  18.0765006  20.6205017  91.7679987  18.0765006  20.6205017
  90.5709987  19.0035006  20.6205017  75.9729987   2.0745006  27.1145017
  76.9299987   2.0745006  27.1145017  75.7329987   3.0015006  27.1145017
  78.2499987  14.9835006  31.1355017  79.2069987  14.9835006  31.1355017
  78.0099987  15.9105006  31.1355017  81.1609987  15.9785006  27.4105017
  82.1179987  15.9785006  27.4105017  80.9209987  16.9055006  27.4105017
  85.4809987  17.4035006  30.3255017  86.4379987  17.4035006  30.3255017
  85.2409987  18.3305006  30.3255017  87.7799987  18.6725006  29.6145017
  88.7369987  18.6725006  29.6145017  87.5399987  19.5995006  29.6145017
  92.8639987   1.4275006  28.6715017  93.8209987   1.4275006  28.6715017
  92.6239987   2.3545006  28.6715017  78.5799987  19.2255006  27.4205017
  79.5369987  19.2255006  27.4205017  78.3399987  20.1525006  27.4205017
  81.0559987  18.8065006  26.4825017  82.0129987  18.8065006  26.4825017
  80.8159987  19.7335006  26.4825017  85.7609987  18.7115006  25.6495017
  86.7179987  18.7115006  25.6495017  85.5209987  19.6385006  25.6495017
  88.0659987  17.5455006  26.6485017  89.0229987  17.5455006  26.6485017
  87.8259987  18.4725006  26.6485017  90.6479987  19.1145006  26.9065017
  91.6049987  19.1145006  26.9065017  90.4079987  20.0415006  26.9065017
  78.0219987  17.8735006  24.3485017  78.9789987  17.8735006  24.3485017
  77.7819987  18.8005006  24.3485017  80.1169987  16.5855006  23.0015017
  81.0739987  16.5855006  23.0015017  79.8769987  17.5125006  23.0015017
  82.7049987  17.0685006  23.8725017  83.6619987  17.0685006  23.8725017
  82.4649987  17.9955006  23.8725017  86.1329987   2.7555006  22.9485017
  87.0899987   2.7555006  22.9485017  85.8929987   3.6825006  22.9485017
  91.3879987   1.0815006  23.2685017  92.3449987   1.0815006  23.2685017
  91.1479987   2.0085006  23.2685017  93.0219987   1.9935006  21.3925017
  93.9789987   1.9935006  21.3925017  92.7819987   2.9205006  21.3925017
  78.5029987   1.3345006  20.8255017  79.4599987   1.3345006  20.8255017
  78.2629987   2.2615006  20.8255017  77.5979987   1.5185006  17.0035017
  78.5549987   1.5185006  17.0035017  77.3579987   2.4455006  17.0035017
  83.0589987   1.3585006  20.6365017  84.0159987   1.3585006  20.6365017
  82.8189987   2.2855006  20.6365017  88.6199987   1.3355006  22.2765017
  89.5769987   1.3355006  22.2765017  88.3799987   2.2625006  22.2765017
  90.0099987   1.3465006  18.0295017  90.9669987   1.3465006  18.0295017
  89.7699987   2.2735006  18.0295017  77.2379987  17.0545006  17.5845017
  78.1949987  17.0545006  17.5845017  76.9979987  17.9815006  17.5845017
  79.1599987   3.0425006  15.0645017  80.1169987   3.0425006  15.0645017
  78.9199987   3.9695006  15.0645017  84.1649987   3.2485006  17.3385017
  85.1219987   3.2485006  17.3385017  83.9249987   4.1755006  17.3385017
  86.1009987  18.3365006  15.9505017  87.0579987  18.3365006  15.9505017
  85.8609987  19.2635006  15.9505017  92.8139987  17.8635006  18.6535017
  93.7709987  17.8635006  18.6535017  92.5739987  18.7905006  18.6535017
  78.3859987   1.9745006  30.4685017  79.3429987   1.9745006  30.4685017
  78.1459987   2.9015006  30.4685017  80.4419987   1.2425006  31.9235017
  81.3989987   1.2425006  31.9235017  80.2019987   2.1695006  31.9235017
  79.0359987  18.0255006  14.5505017  79.9929987  18.0255006  14.5505017
  78.7959987  18.9525006  14.5505017  88.9179987 108.3825006  31.9545017
  89.8749987 108.3825006  31.9545017  88.6779987 109.3095006  31.9545017
  92.0359987  16.5845006  30.7605017  92.9929987  16.5845006  30.7605017
  91.7959987  17.5115006  30.7605017 106.4659987  10.4545006  20.7125017
 107.4229987  10.4545006  20.7125017 106.2259987  11.3815006  20.7125017
 105.2809987   9.7635006  24.2335017 106.2379987   9.7635006  24.2335017
 105.0409987  10.6905006  24.2335017  97.7069987   9.4025006  25.7795017
  98.6639987   9.4025006  25.7795017  97.4669987  10.3295006  25.7795017
  98.6349987  13.8525006  24.3015017  99.5919987  13.8525006  24.3015017
  98.3949987  14.7795006  24.3015017  95.2789987   7.4315006  19.7585017
  96.2359987   7.4315006  19.7585017  95.0389987   8.3585006  19.7585017
  95.9749987   9.6535006  21.8915017  96.9319987   9.6535006  21.8915017
  95.7349987  10.5805006  21.8915017 106.1949987  17.8035006  22.7085017
 107.1519987  17.8035006  22.7085017 105.9549987  18.7305006  22.7085017
 103.7009987  12.1435006  24.6595017 104.6579987  12.1435006  24.6595017
 103.4609987  13.0705006  24.6595017 106.2249987   6.3615006  24.9515017
 107.1819987   6.3615006  24.9515017 105.9849987   7.2885006  24.9515017
 100.0239987   4.7025006  22.2195017 100.9809987   4.7025006  22.2195017
  99.7839987   5.6295006  22.2195017 107.7219987   5.2785006  20.1955017
 108.6789987   5.2785006  20.1955017 107.4819987   6.2055006  20.1955017
  96.6389987   7.1055006  22.9645017  97.5959987   7.1055006  22.9645017
  96.3989987   8.0325006  22.9645017 101.7919987   8.6635006  22.2485017
 102.7489987   8.6635006  22.2485017 101.5519987   9.5905006  22.2485017
  98.9169987   3.6035006  26.2775017  99.8739987   3.6035006  26.2775017
  98.6769987   4.5305006  26.2775017 106.2649987  13.1035006  19.8055017
 107.2219987  13.1035006  19.8055017 106.0249987  14.0305006  19.8055017
 101.4369987  11.2425006  26.5255017 102.3939987  11.2425006  26.5255017
 101.1969987  12.1695006  26.5255017  98.4619987   5.4795006  24.2715017
  99.4189987   5.4795006  24.2715017  98.2219987   6.4065006  24.2715017
  99.8709987  13.2315006  27.3355017 100.8279987  13.2315006  27.3355017
  99.6309987  14.1585006  27.3355017  95.9579987  12.8675006  18.1285017
  96.9149987  12.8675006  18.1285017  95.7179987  13.7945006  18.1285017
 102.8509987   0.9675006  23.5975017 103.8079987   0.9675006  23.5975017
 102.6109987   1.8945006  23.5975017 107.5039987  16.1315006  21.0415017
 108.4609987  16.1315006  21.0415017 107.2639987  17.0585006  21.0415017
 105.1289987   9.7195006  18.2295017 106.0859987   9.7195006  18.2295017
 104.8889987  10.6465006  18.2295017 105.1949987   8.2515006  15.2515017
 106.1519987   8.2515006  15.2515017 104.9549987   9.1785006  15.2515017
 100.2079987  10.5965006  21.0765017 101.1649987  10.5965006  21.0765017
  99.9679987  11.5235006  21.0765017 101.5379987  13.9915006  23.7605017
 102.4949987  13.9915006  23.7605017 101.2979987  14.9185006  23.7605017
 100.5469987   9.3375006  24.7275017 101.5039987   9.3375006  24.7275017
 100.3069987  10.2645006  24.7275017 106.5459987  14.9215006  25.4755017
 107.5029987  14.9215006  25.4755017 106.3059987  15.8485006  25.4755017
 101.4859987  13.7605006  29.4315017 102.4429987  13.7605006  29.4315017
 101.2459987  14.6875006  29.4315017 107.4579987   9.1075006  16.8545017
 108.4149987   9.1075006  16.8545017 107.2179987  10.0345006  16.8545017
  98.4189987   9.9275006  28.6075017  99.3759987   9.9275006  28.6075017
  98.1789987  10.8545006  28.6075017 105.1039987  15.8575006  20.2735017
 106.0609987  15.8575006  20.2735017 104.8639987  16.7845006  20.2735017
  99.7269987  15.8125006  30.1855017 100.6839987  15.8125006  30.1855017
  99.4869987  16.7395006  30.1855017  99.1849987   9.6225006  18.6915017
 100.1419987   9.6225006  18.6915017  98.9449987  10.5495006  18.6915017
  95.2549987  12.0465006  27.5755017  96.2119987  12.0465006  27.5755017
  95.0149987  12.9735006  27.5755017  95.0329987  14.7805006  24.3625017
  95.9899987  14.7805006  24.3625017  94.7929987  15.7075006  24.3625017
 104.2419987  15.0225006  28.9345017 105.1989987  15.0225006  28.9345017
 104.0019987  15.9495006  28.9345017 104.6989987  18.7775006  18.7195017
 105.6559987  18.7775006  18.7195017 104.4589987  19.7045006  18.7195017
  98.3019987  17.6375006  20.5255017  99.2589987  17.6375006  20.5255017
  98.0619987  18.5645006  20.5255017 107.7579987  17.9635006  15.6925017
 108.7149987  17.9635006  15.6925017 107.5179987  18.8905006  15.6925017
 107.2639987  17.7445006  18.3395017 108.2209987  17.7445006  18.3395017
 107.0239987  18.6715006  18.3395017  97.5489987  13.3585006  28.5255017
  98.5059987  13.3585006  28.5255017  97.3089987  14.2855006  28.5255017
 100.3109987   1.9235006  24.4235017 101.2679987   1.9235006  24.4235017
 100.0709987   2.8505006  24.4235017 104.9229987   1.5605006  27.9215017
 105.8799987   1.5605006  27.9215017 104.6829987   2.4875006  27.9215017
 104.5339987   4.0535006  15.1855017 105.4909987   4.0535006  15.1855017
 104.2939987   4.9805006  15.1855017 100.3059987   6.7865006  25.7005017
 101.2629987   6.7865006  25.7005017 100.0659987   7.7135006  25.7005017
 100.2819987   6.9495006  20.5785017 101.2389987   6.9495006  20.5785017
 100.0419987   7.8765006  20.5785017 105.7889987   7.4305006  19.3645017
 106.7459987   7.4305006  19.3645017 105.5489987   8.3575006  19.3645017
 104.8979987   7.6515006  30.8445017 105.8549987   7.6515006  30.8445017
 104.6579987   8.5785006  30.8445017 106.7849987   6.8835006  22.1945017
 107.7419987   6.8835006  22.1945017 106.5449987   7.8105006  22.1945017
  97.9659987   7.0735006  27.4315017  98.9229987   7.0735006  27.4315017
  97.7259987   8.0005006  27.4315017 101.3459987   4.4945006  14.2835017
 102.3029987   4.4945006  14.2835017 101.1059987   5.4215006  14.2835017
  94.5989987   4.2085006  21.3685017  95.5559987   4.2085006  21.3685017
  94.3589987   5.1355006  21.3685017  95.8879987   4.9275006  16.7755017
  96.8449987   4.9275006  16.7755017  95.6479987   5.8545006  16.7755017
 106.0439987   8.5005006  26.8045017 107.0009987   8.5005006  26.8045017
 105.8039987   9.4275006  26.8045017 102.8539987   4.4665006  21.5945017
 103.8109987   4.4665006  21.5945017 102.6139987   5.3935006  21.5945017
  97.6649987   6.0425006  20.4675017  98.6219987   6.0425006  20.4675017
  97.4249987   6.9695006  20.4675017 101.3089987   6.0715006  18.1005017
 102.2659987   6.0715006  18.1005017 101.0689987   6.9985006  18.1005017
 107.2339987   3.6525006  24.8825017 108.1909987   3.6525006  24.8825017
 106.9939987   4.5795006  24.8825017 100.0029987   7.2495006  15.6835017
 100.9599987   7.2495006  15.6835017  99.7629987   8.1765006  15.6835017
  98.1329987  11.8095006  30.7385017  99.0899987  11.8095006  30.7385017
  97.8929987  12.7365006  30.7385017 104.0949987   7.2205006  23.4525017
 105.0519987   7.2205006  23.4525017 103.8549987   8.1475006  23.4525017
  99.1319987   3.3695006  19.9195017 100.0889987   3.3695006  19.9195017
  98.8919987   4.2965006  19.9195017 102.7549987   5.5695006  25.9065017
 103.7119987   5.5695006  25.9065017 102.5149987   6.4965006  25.9065017
 103.3659987  11.7935006  17.5985017 104.3229987  11.7935006  17.5985017
 103.1259987  12.7205006  17.5985017 107.1659987   4.6215006  15.7965017
 108.1229987   4.6215006  15.7965017 106.9259987   5.5485006  15.7965017
 104.8409987  12.0105006  28.8365017 105.7979987  12.0105006  28.8365017
 104.6009987  12.9375006  28.8365017   0.1149987   6.6145006  17.4905017
   1.0719987   6.6145006  17.4905017  -0.1250013   7.5415006  17.4905017
  98.4619987  11.1585006  23.4015017  99.4189987  11.1585006  23.4015017
  98.2219987  12.0855006  23.4015017 105.4429987  13.2415006  16.6075017
 106.3999987  13.2415006  16.6075017 105.2029987  14.1685006  16.6075017
  95.4329987   9.5935006  28.6875017  96.3899987   9.5935006  28.6875017
  95.1929987  10.5205006  28.6875017 102.4709987   9.1325006  30.8615017
 103.4279987   9.1325006  30.8615017 102.2309987  10.0595006  30.8615017
 107.1519987  14.5055006  28.7735017 108.1089987  14.5055006  28.7735017
 106.9119987  15.4325006  28.7735017 100.8369987  14.6245006  20.7865017
 101.7939987  14.6245006  20.7865017 100.5969987  15.5515006  20.7865017
  96.5989987   9.4715006  15.3565017  97.5559987   9.4715006  15.3565017
  96.3589987  10.3985006  15.3565017 102.2549987  12.2915006  20.3115017
 103.2119987  12.2915006  20.3115017 102.0149987  13.2185006  20.3115017
 102.7059987  16.4645006  26.7015017 103.6629987  16.4645006  26.7015017
 102.4659987  17.3915006  26.7015017 100.9379987  17.2925006  19.8565017
 101.8949987  17.2925006  19.8565017 100.6979987  18.2195006  19.8565017
 106.2749987  12.4765006  26.3605017 107.2319987  12.4765006  26.3605017
 106.0349987  13.4035006  26.3605017  97.1119987   4.3045006  28.2485017
  98.0689987   4.3045006  28.2485017  96.8719987   5.2315006  28.2485017
  96.7279987  16.1115006  26.6515017  97.6849987  16.1115006  26.6515017
  96.4879987  17.0385006  26.6515017 102.6789987  14.6165006  13.9135017
 103.6359987  14.6165006  13.9135017 102.4389987  15.5435006  13.9135017
 101.4909987  14.1475006  16.3605017 102.4479987  14.1475006  16.3605017
 101.2509987  15.0745006  16.3605017  98.0039987  11.3945006  16.8505017
  98.9609987  11.3945006  16.8505017  97.7639987  12.3215006  16.8505017
 105.8399987   4.0795006  27.1665017 106.7969987   4.0795006  27.1665017
 105.5999987   5.0065006  27.1665017 106.3299987   3.8865006  18.2285017
 107.2869987   3.8865006  18.2285017 106.0899987   4.8135006  18.2285017
 104.2849987  15.8155006  17.0845017 105.2419987  15.8155006  17.0845017
 104.0449987  16.7425006  17.0845017 103.8099987   5.4165006  19.0755017
 104.7669987   5.4165006  19.0755017 103.5699987   6.3435006  19.0755017
 104.3359987   6.3905006  28.2775017 105.2929987   6.3905006  28.2775017
 104.0959987   7.3175006  28.2775017 104.7039987   2.4815006  20.0015017
 105.6609987   2.4815006  20.0015017 104.4639987   3.4085006  20.0015017
 101.6349987  16.8535006  17.0845017 102.5919987  16.8535006  17.0845017
 101.3949987  17.7805006  17.0845017 100.3219987   3.5775006  16.6795017
 101.2789987   3.5775006  16.6795017 100.0819987   4.5045006  16.6795017
  98.5649987  14.0115006  15.7335017  99.5219987  14.0115006  15.7335017
  98.3249987  14.9385006  15.7335017  96.9069987   6.6855006  14.8665017
  97.8639987   6.6855006  14.8665017  96.6669987   7.6125006  14.8665017
  97.4909987   1.6745006  23.4595017  98.4479987   1.6745006  23.4595017
  97.2509987   2.6015006  23.4595017  96.6739987  15.3895006  19.7345017
  97.6309987  15.3895006  19.7345017  96.4339987  16.3165006  19.7345017
  95.8869987  18.0405006  31.0255017  96.8439987  18.0405006  31.0255017
  95.6469987  18.9675006  31.0255017 100.5559987  16.9475006  32.6675017
 101.5129987  16.9475006  32.6675017 100.3159987  17.8745006  32.6675017
 104.7069987  16.4585006  14.0345017 105.6639987  16.4585006  14.0345017
 104.4669987  17.3855006  14.0345017 107.1349987  15.3425006  31.3805017
 108.0919987  15.3425006  31.3805017 106.8949987  16.2695006  31.3805017
  95.7959987  11.8165006  32.0305017  96.7529987  11.8165006  32.0305017
  95.5559987  12.7435006  32.0305017 100.1419987  12.1635006  14.0685017
 101.0989987  12.1635006  14.0685017  99.9019987  13.0905006  14.0685017
 102.4999987  11.8005006  31.4345017 103.4569987  11.8005006  31.4345017
 102.2599987  12.7275006  31.4345017 105.5969987  13.2405006  13.8385017
 106.5539987  13.2405006  13.8385017 105.3569987  14.1675006  13.8385017
  96.7019987   9.0425006  31.4075017  97.6589987   9.0425006  31.4075017
  96.4619987   9.9695006  31.4075017 101.3409987  10.1725006  16.4555017
 102.2979987  10.1725006  16.4555017 101.1009987  11.0995006  16.4555017
 100.6189987   7.9975006  28.7725017 101.5759987   7.9975006  28.7725017
 100.3789987   8.9245006  28.7725017 102.4119987   8.3915006  14.6805017
 103.3689987   8.3915006  14.6805017 102.1719987   9.3185006  14.6805017
 105.6729987  10.5445006  32.1285017 106.6299987  10.5445006  32.1285017
 105.4329987  11.4715006  32.1285017 101.0029987   5.3675006  29.8375017
 101.9599987   5.3675006  29.8375017 100.7629987   6.2945006  29.8375017
 101.4159987   3.7385006  27.3755017 102.3729987   3.7385006  27.3755017
 101.1759987   4.6655006  27.3755017 102.9779987   9.2185006  27.6245017
 103.9349987   9.2185006  27.6245017 102.7379987  10.1455006  27.6245017
 107.3899987   7.0175006  32.7035017 108.3469987   7.0175006  32.7035017
 107.1499987   7.9445006  32.7035017  99.4639987   6.6185006  31.7615017
 100.4209987   6.6185006  31.7615017  99.2239987   7.5455006  31.7615017
 102.2959987   1.2375006  27.6415017 103.2529987   1.2375006  27.6415017
 102.0559987   2.1645006  27.6415017 103.4669987   5.5225006  31.3775017
 104.4239987   5.5225006  31.3775017 103.2269987   6.4495006  31.3775017
 106.1339987   4.6405006  30.4415017 107.0909987   4.6405006  30.4415017
 105.8939987   5.5675006  30.4415017 107.8329987   3.3235006  32.3985017
 108.7899987   3.3235006  32.3985017 107.5929987   4.2505006  32.3985017
  97.5629987   4.5265006  31.4975017  98.5199987   4.5265006  31.4975017
  97.3229987   5.4535006  31.4975017 102.9939987 108.5305006  30.5225017
 103.9509987 108.5305006  30.5225017 102.7539987 109.4575006  30.5225017
 102.7479987   2.2545006  32.6095017 103.7049987   2.2545006  32.6095017
 102.5079987   3.1815006  32.6095017 102.2629987  19.0945006  15.7415017
 103.2199987  19.0945006  15.7415017 102.0229987  20.0215006  15.7415017
  95.8229987  13.6935006  15.2095017  96.7799987  13.6935006  15.2095017
  95.5829987  14.6205006  15.2095017  94.5809987  19.0765006  20.1985017
  95.5379987  19.0765006  20.1985017  94.3409987  20.0035006  20.1985017
  95.4079987  17.1935006  22.0535017  96.3649987  17.1935006  22.0535017
  95.1679987  18.1205006  22.0535017  95.4619987  10.2715006  24.5465017
  96.4189987  10.2715006  24.5465017  95.2219987  11.1985006  24.5465017
  95.0809987   5.5765006  30.6905017  96.0379987   5.5765006  30.6905017
  94.8409987   6.5035006  30.6905017  96.2529987   3.8995006  23.5525017
  97.2099987   3.8995006  23.5525017  96.0129987   4.8265006  23.5525017
  94.5689987   6.8535006  24.6025017  95.5259987   6.8535006  24.6025017
  94.3289987   7.7805006  24.6025017  94.9179987   3.0915006  18.6925017
  95.8749987   3.0915006  18.6925017  94.6779987   4.0185006  18.6925017
  94.8949987   1.8175006  26.9825017  95.8519987   1.8175006  26.9825017
  94.6549987   2.7445006  26.9825017  97.1049987  14.9825006  31.1315017
  98.0619987  14.9825006  31.1315017  96.8649987  15.9095006  31.1315017
 100.0169987  15.9775006  27.4085017 100.9739987  15.9775006  27.4085017
  99.7769987  16.9045006  27.4085017 104.3349987  17.4115006  30.3485017
 105.2919987  17.4115006  30.3485017 104.0949987  18.3385006  30.3485017
 106.6889987  18.7135006  29.5765017 107.6459987  18.7135006  29.5765017
 106.4489987  19.6405006  29.5765017  97.4419987  19.2255006  27.4195017
  98.3989987  19.2255006  27.4195017  97.2019987  20.1525006  27.4195017
  99.9129987  18.8075006  26.4825017 100.8699987  18.8075006  26.4825017
  99.6729987  19.7345006  26.4825017 104.5999987  18.7165006  25.6505017
 105.5569987  18.7165006  25.6505017 104.3599987  19.6435006  25.6505017
 106.9399987  17.5815006  26.6545017 107.8969987  17.5815006  26.6545017
 106.6999987  18.5085006  26.6545017  96.8769987  17.8735006  24.3485017
  97.8339987  17.8735006  24.3485017  96.6369987  18.8005006  24.3485017
  98.9709987  16.5855006  23.0015017  99.9279987  16.5855006  23.0015017
  98.7309987  17.5125006  23.0015017 101.5379987  17.0695006  23.8705017
 102.4949987  17.0695006  23.8705017 101.2979987  17.9965006  23.8705017
 105.0119987   2.7345006  23.0105017 105.9689987   2.7345006  23.0105017
 104.7719987   3.6615006  23.0105017  97.3499987   1.3245006  20.8505017
  98.3069987   1.3245006  20.8505017  97.1099987   2.2515006  20.8505017
  96.4549987   1.5195006  17.0015017  97.4119987   1.5195006  17.0015017
  96.2149987   2.4465006  17.0015017 101.9069987   1.3015006  20.6375017
 102.8639987   1.3015006  20.6375017 101.6669987   2.2285006  20.6375017
 107.4089987   1.1775006  22.3215017 108.3659987   1.1775006  22.3215017
 107.1689987   2.1045006  22.3215017  96.0959987  17.0545006  17.5875017
  97.0529987  17.0545006  17.5875017  95.8559987  17.9815006  17.5875017
  98.0199987   3.0375006  15.0555017  98.9769987   3.0375006  15.0555017
  97.7799987   3.9645006  15.0555017 102.9949987   3.3125006  17.5145017
 103.9519987   3.3125006  17.5145017 102.7549987   4.2395006  17.5145017
 104.9349987  18.3385006  15.9365017 105.8919987  18.3385006  15.9365017
 104.6949987  19.2655006  15.9365017  97.2679987   1.9025006  30.3755017
  98.2249987   1.9025006  30.3755017  97.0279987   2.8295006  30.3755017
  99.2909987   1.2455006  31.9165017 100.2479987   1.2455006  31.9165017
  99.0509987   2.1725006  31.9165017  97.8909987  18.0265006  14.5505017
  98.8479987  18.0265006  14.5505017  97.6509987  18.9535006  14.5505017
   0.0059987 108.3805006  31.9525017   0.9629987 108.3805006  31.9525017
  -0.2340013 109.3075006  31.9525017  12.1819987  29.3385006  20.7405017
  13.1389987  29.3385006  20.7405017  11.9419987  30.2655006  20.7405017
  11.0259987  28.6215006  24.2345017  11.9829987  28.6215006  24.2345017
  10.7859987  29.5485006  24.2345017   3.4769987  28.2365006  25.7545017
   4.4339987  28.2365006  25.7545017   3.2369987  29.1635006  25.7545017
  14.7399987  31.5855006  22.4935017  15.6969987  31.5855006  22.4935017
  14.4999987  32.5125006  22.4935017   4.3409987  32.7065006  24.3065017
   5.2979987  32.7065006  24.3065017   4.1009987  33.6335006  24.3065017
   1.0649987  26.3815006  19.7105017   2.0219987  26.3815006  19.7105017
   0.8249987  27.3085006  19.7105017   1.6879987  28.4735006  21.8875017
   2.6449987  28.4735006  21.8875017   1.4479987  29.4005006  21.8875017
  11.8819987  36.6935006  22.7385017  12.8389987  36.6935006  22.7385017
  11.6419987  37.6205006  22.7385017   9.4469987  31.0145006  24.6665017
  10.4039987  31.0145006  24.6665017   9.2069987  31.9415006  24.6665017
  18.0749987  22.6395006  25.4375017  19.0319987  22.6395006  25.4375017
  17.8349987  23.5665006  25.4375017  12.3309987  25.3425006  25.0675017
  13.2879987  25.3425006  25.0675017  12.0909987  26.2695006  25.0675017
   5.7349987  23.5445006  22.2145017   6.6919987  23.5445006  22.2145017
   5.4949987  24.4715006  22.2145017  13.4759987  23.6185006  20.5795017
  14.4329987  23.6185006  20.5795017  13.2359987  24.5455006  20.5795017
   2.5409987  26.0045006  22.8655017   3.4979987  26.0045006  22.8655017
   2.3009987  26.9315006  22.8655017   7.5129987  27.5155006  22.2475017
   8.4699987  27.5155006  22.2475017   7.2729987  28.4425006  22.2475017
  18.5019987  24.0745006  27.6945017  19.4589987  24.0745006  27.6945017
  18.2619987  25.0015006  27.6945017   4.6289987  22.4555006  26.2815017
   5.5859987  22.4555006  26.2815017   4.3889987  23.3825006  26.2815017
  11.9269987  31.9425006  19.8135017  12.8839987  31.9425006  19.8135017
  11.6869987  32.8695006  19.8135017   7.1539987  30.0975006  26.5265017
   8.1109987  30.0975006  26.5265017   6.9139987  31.0245006  26.5265017
  15.2719987  22.9585006  22.5785017  16.2289987  22.9585006  22.5785017
  15.0319987  23.8855006  22.5785017   4.2039987  24.2895006  24.2965017
   5.1609987  24.2895006  24.2965017   3.9639987  25.2165006  24.2965017
   5.5929987  32.0845006  27.3295017   6.5499987  32.0845006  27.3295017
   5.3529987  33.0115006  27.3295017   1.7049987  31.7405006  18.0995017
   2.6619987  31.7405006  18.0995017   1.4649987  32.6675006  18.0995017
  15.2949987  33.3935006  24.8855017  16.2519987  33.3935006  24.8855017
  15.0549987  34.3205006  24.8855017  15.6129987  21.6575006  26.2755017
  16.5699987  21.6575006  26.2755017  15.3729987  22.5845006  26.2755017
   8.5939987  19.7795006  23.7345017   9.5509987  19.7795006  23.7345017
   8.3539987  20.7065006  23.7345017  13.5459987  35.1635006  21.4745017
  14.5029987  35.1635006  21.4745017  13.3059987  36.0905006  21.4745017
  14.7409987  33.0985006  19.9805017  15.6979987  33.0985006  19.9805017
  14.5009987  34.0255006  19.9805017  16.3829987  31.6735006  28.4775017
  17.3399987  31.6735006  28.4775017  16.1429987  32.6005006  28.4775017
  10.8729987  28.5835006  18.2445017  11.8299987  28.5835006  18.2445017
  10.6329987  29.5105006  18.2445017  10.9359987  27.1155006  15.2585017
  11.8929987  27.1155006  15.2585017  10.6959987  28.0425006  15.2585017
  18.2809987  28.0025006  26.5565017  19.2379987  28.0025006  26.5565017
  18.0409987  28.9295006  26.5565017  14.2949987  28.7895006  19.1485017
  15.2519987  28.7895006  19.1485017  14.0549987  29.7165006  19.1485017
  14.2369987  26.9565006  28.2715017  15.1939987  26.9565006  28.2715017
  13.9969987  27.8835006  28.2715017   5.9519987  29.4645006  21.0765017
   6.9089987  29.4645006  21.0765017   5.7119987  30.3915006  21.0765017
   7.2439987  32.8505006  23.7655017   8.2009987  32.8505006  23.7655017
   7.0039987  33.7775006  23.7655017   6.2829987  28.1975006  24.7285017
   7.2399987  28.1975006  24.7285017   6.0429987  29.1245006  24.7285017
  12.6459987  33.7575006  25.4325017  13.6029987  33.7575006  25.4325017
  12.4059987  34.6845006  25.4325017   7.2049987  32.6165006  29.4315017
   8.1619987  32.6165006  29.4315017   6.9649987  33.5435006  29.4315017
  13.1779987  27.9795006  16.8405017  14.1349987  27.9795006  16.8405017
  12.9379987  28.9065006  16.8405017   4.1249987  28.7885006  28.6215017
   5.0819987  28.7885006  28.6215017   3.8849987  29.7155006  28.6215017
  10.8979987  34.7065006  20.3015017  11.8549987  34.7065006  20.3015017
  10.6579987  35.6335006  20.3015017   5.4499987  34.6665006  30.1905017
   6.4069987  34.6665006  30.1905017   5.2099987  35.5935006  30.1905017
  16.9029987  19.7125006  16.7085017  17.8599987  19.7125006  16.7085017
  16.6629987  20.6395006  16.7085017   4.9259987  28.4895006  18.6935017
   5.8829987  28.4895006  18.6935017   4.6859987  29.4165006  18.6935017
  18.0269987  34.0705006  15.0735017  18.9839987  34.0705006  15.0735017
  17.7869987  34.9975006  15.0735017   1.1049987  30.9025006  27.5115017
   2.0619987  30.9025006  27.5115017   0.8649987  31.8295006  27.5115017
   1.0129987  33.7525006  24.0985017   1.9699987  33.7525006  24.0985017
   0.7729987  34.6795006  24.0985017  18.9879987  34.3365006  30.0465017
  19.9449987  34.3365006  30.0465017  18.7479987  35.2635006  30.0465017
   9.9499987  33.8815006  28.9125017  10.9069987  33.8815006  28.9125017
   9.7099987  34.8085006  28.9125017  10.3779987  37.6315006  18.7175017
  11.3349987  37.6315006  18.7175017  10.1379987  38.5585006  18.7175017
   4.0209987  36.4875006  20.5085017   4.9779987  36.4875006  20.5085017
   3.7809987  37.4145006  20.5085017  13.4449987  36.8335006  15.7015017
  14.4019987  36.8335006  15.7015017  13.2049987  37.7605006  15.7015017
  13.1329987  36.7605006  18.4655017  14.0899987  36.7605006  18.4655017
  12.8929987  37.6875006  18.4655017  16.1289987  25.8095006  30.5305017
  17.0859987  25.8095006  30.5305017  15.8889987  26.7365006  30.5305017
   3.2329987  32.2685006  28.5475017   4.1899987  32.2685006  28.5475017
   2.9929987  33.1955006  28.5475017   5.9369987  20.6855006  24.4795017
   6.8939987  20.6855006  24.4795017   5.6969987  21.6125006  24.4795017
  10.5809987  20.3585006  27.8565017  11.5379987  20.3585006  27.8565017
  10.3409987  21.2855006  27.8565017  13.8879987  24.1805006  28.7605017
  14.8449987  24.1805006  28.7605017  13.6479987  25.1075006  28.7605017
  14.6359987  29.0075006  14.5945017  15.5929987  29.0075006  14.5945017
  14.3959987  29.9345006  14.5945017  10.2349987  22.9255006  15.1515017
  11.1919987  22.9255006  15.1515017   9.9949987  23.8525006  15.1515017
   6.0409987  25.6455006  25.7015017   6.9979987  25.6455006  25.7015017
   5.8009987  26.5725006  25.7015017   5.9849987  25.8045006  20.5805017
   6.9419987  25.8045006  20.5805017   5.7449987  26.7315006  20.5805017
  11.5059987  26.2625006  19.3525017  12.4629987  26.2625006  19.3525017
  11.2659987  27.1895006  19.3525017  10.5989987  26.4815006  30.8105017
  11.5559987  26.4815006  30.8105017  10.3589987  27.4085006  30.8105017
  12.4629987  25.7315006  22.1725017  13.4199987  25.7315006  22.1725017
  12.2229987  26.6585006  22.1725017   3.7039987  25.9225006  27.4405017
   4.6609987  25.9225006  27.4405017   3.4639987  26.8495006  27.4405017
   7.0789987  23.3125006  14.2615017   8.0359987  23.3125006  14.2615017
   6.8389987  24.2395006  14.2615017   0.4349987  22.3315006  21.7055017
   1.3919987  22.3315006  21.7055017   0.1949987  23.2585006  21.7055017
   1.7999987  23.7545006  16.8515017   2.7569987  23.7545006  16.8515017
   1.5599987  24.6815006  16.8515017  11.7629987  27.3625006  26.7965017
  12.7199987  27.3625006  26.7965017  11.5229987  28.2895006  26.7965017
   8.5599987  23.3145006  21.6015017   9.5169987  23.3145006  21.6015017
   8.3199987  24.2415006  21.6015017   3.3929987  24.8685006  20.4525017
   4.3499987  24.8685006  20.4525017   3.1529987  25.7955006  20.4525017
   7.0229987  24.9175006  18.0885017   7.9799987  24.9175006  18.0885017
   6.7829987  25.8445006  18.0885017  12.9749987  22.5365006  24.8555017
  13.9319987  22.5365006  24.8555017  12.7349987  23.4635006  24.8555017
   5.7079987  26.1105006  15.6755017   6.6649987  26.1105006  15.6755017
   5.4679987  27.0375006  15.6755017  16.1859987  38.2035006  31.1665017
  17.1429987  38.2035006  31.1665017  15.9459987  39.1305006  31.1665017
   3.8579987  30.6515006  30.7485017   4.8149987  30.6515006  30.7485017
   3.6179987  31.5785006  30.7485017   9.8449987  26.0815006  23.4855017
  10.8019987  26.0815006  23.4855017   9.6049987  27.0085006  23.4855017
   4.8499987  22.2295006  19.9125017   5.8069987  22.2295006  19.9125017
   4.6099987  23.1565006  19.9125017   8.4919987  24.4195006  25.9095017
   9.4489987  24.4195006  25.9095017   8.2519987  25.3465006  25.9095017
   9.0809987  30.6485006  17.5995017  10.0379987  30.6485006  17.5995017
   8.8409987  31.5755006  17.5995017  16.2359987  29.8405006  26.4275017
  17.1929987  29.8405006  26.4275017  15.9959987  30.7675006  26.4275017
  12.9189987  23.4595006  15.7805017  13.8759987  23.4595006  15.7805017
  12.6789987  24.3865006  15.7805017  10.5679987  30.8855006  28.8425017
  11.5249987  30.8855006  28.8425017  10.3279987  31.8125006  28.8425017
  13.6479987  25.3595006  17.4205017  14.6049987  25.3595006  17.4205017
  13.4079987  26.2865006  17.4205017   4.1839987  30.0195006  23.4015017
   5.1409987  30.0195006  23.4015017   3.9439987  30.9465006  23.4015017
  11.1859987  32.1125006  16.6325017  12.1429987  32.1125006  16.6325017
  10.9459987  33.0395006  16.6325017   1.1649987  28.4385006  28.6785017
   2.1219987  28.4385006  28.6785017   0.9249987  29.3655006  28.6785017
   8.1889987  27.9905006  30.8635017   9.1459987  27.9905006  30.8635017
   7.9489987  28.9175006  30.8635017  12.8599987  33.3215006  28.7855017
  13.8169987  33.3215006  28.7855017  12.6199987  34.2485006  28.7855017
  18.5569987  25.5125006  17.1765017  19.5139987  25.5125006  17.1765017
  18.3169987  26.4395006  17.1765017  18.5219987  31.3665006  30.0045017
  19.4789987  31.3665006  30.0045017  18.2819987  32.2935006  30.0045017
  16.8219987  34.3485006  17.5915017  17.7789987  34.3485006  17.5915017
  16.5819987  35.2755006  17.5915017  14.0029987  29.1665006  24.7505017
  14.9599987  29.1665006  24.7505017  13.7629987  30.0935006  24.7505017
   6.5689987  33.4745006  20.7855017   7.5259987  33.4745006  20.7855017
   6.3289987  34.4015006  20.7855017   2.2869987  28.3195006  15.3835017
   3.2439987  28.3195006  15.3835017   2.0469987  29.2465006  15.3835017
   7.9819987  31.1465006  20.3115017   8.9389987  31.1465006  20.3115017
   7.7419987  32.0735006  20.3115017   8.4179987  35.3265006  26.7065017
   9.3749987  35.3265006  26.7065017   8.1779987  36.2535006  26.7065017
   6.6629987  36.1455006  19.8485017   7.6199987  36.1455006  19.8485017
   6.4229987  37.0725006  19.8485017  11.9809987  31.3515006  26.3435017
  12.9379987  31.3515006  26.3435017  11.7409987  32.2785006  26.3435017
  14.2709987  32.3895006  15.4245017  15.2279987  32.3895006  15.4245017
  14.0309987  33.3165006  15.4245017  14.7439987  35.9235006  28.8385017
  15.7009987  35.9235006  28.8385017  14.5039987  36.8505006  28.8385017
  18.7479987  36.7645006  15.6675017  19.7049987  36.7645006  15.6675017
  18.5079987  37.6915006  15.6675017   2.8079987  23.1715006  28.2255017
   3.7649987  23.1715006  28.2255017   2.5679987  24.0985006  28.2255017
  15.0679987  31.0345006  17.6495017  16.0249987  31.0345006  17.6495017
  14.8279987  31.9615006  17.6495017   2.4099987  34.9465006  26.6785017
   3.3669987  34.9465006  26.6785017   2.1699987  35.8735006  26.6785017
   8.3909987  33.4735006  13.9045017   9.3479987  33.4735006  13.9045017
   8.1509987  34.4005006  13.9045017   7.2229987  33.0055006  16.3595017
   8.1799987  33.0055006  16.3595017   6.9829987  33.9325006  16.3595017
   3.6919987  30.2325006  16.8415017   4.6489987  30.2325006  16.8415017
   3.4519987  31.1595006  16.8415017  11.5399987  22.9315006  27.1725017
  12.4969987  22.9315006  27.1725017  11.2999987  23.8585006  27.1725017
  12.3149987  22.5225006  18.2495017  13.2719987  22.5225006  18.2495017
  12.0749987  23.4495006  18.2495017   9.9969987  34.6755006  17.0795017
  10.9539987  34.6755006  17.0795017   9.7569987  35.6025006  17.0795017
   9.5289987  24.2765006  19.0715017  10.4859987  24.2765006  19.0715017
   9.2889987  25.2035006  19.0715017  10.0809987  25.2865006  28.2645017
  11.0379987  25.2865006  28.2645017   9.8409987  26.2135006  28.2645017
  10.3919987  21.3355006  19.9815017  11.3489987  21.3355006  19.9815017
  10.1519987  22.2625006  19.9815017   7.3789987  35.7115006  17.0895017
   8.3359987  35.7115006  17.0895017   7.1389987  36.6385006  17.0895017
   6.0499987  22.4285006  16.6785017   7.0069987  22.4285006  16.6785017
   5.8099987  23.3555006  16.6785017  16.2699987  23.1675006  29.0995017
  17.2269987  23.1675006  29.0995017  16.0299987  24.0945006  29.0995017
  14.3409987  26.3305006  23.9515017  15.2979987  26.3305006  23.9515017
  14.1009987  27.2575006  23.9515017   4.2909987  32.8735006  15.7245017
   5.2479987  32.8735006  15.7245017   4.0509987  33.8005006  15.7245017
   2.5799987  25.5485006  14.9075017   3.5369987  25.5485006  14.9075017
   2.3399987  26.4755006  14.9075017  15.9429987  36.1935006  24.8035017
  16.8999987  36.1935006  24.8035017  15.7029987  37.1205006  24.8035017
   3.4709987  20.3225006  23.5685017   4.4279987  20.3225006  23.5685017
   3.2309987  21.2495006  23.5685017   2.3869987  34.2585006  19.7465017
   3.3439987  34.2585006  19.7465017   2.1469987  35.1855006  19.7465017
   1.6989987  36.8415006  30.9685017   2.6559987  36.8415006  30.9685017
   1.4589987  37.7685006  30.9685017   6.2689987  35.8045006  32.6505017
   7.2259987  35.8045006  32.6505017   6.0289987  36.7315006  32.6505017
  10.3969987  35.3285006  14.0385017  11.3539987  35.3285006  14.0385017
  10.1569987  36.2555006  14.0385017  12.8019987  34.1945006  31.3825017
  13.7589987  34.1945006  31.3825017  12.5619987  35.1215006  31.3825017
  14.9679987  35.0865006  14.2375017  15.9249987  35.0865006  14.2375017
  14.7279987  36.0135006  14.2375017   1.5129987  30.6795006  32.0255017
   2.4699987  30.6795006  32.0255017   1.2729987  31.6065006  32.0255017
   5.8659987  31.0205006  14.0705017   6.8229987  31.0205006  14.0705017
   5.6259987  31.9475006  14.0705017   8.2309987  30.6585006  31.4185017
   9.1879987  30.6585006  31.4185017   7.9909987  31.5855006  31.4185017
  11.2829987  32.1135006  13.8315017  12.2399987  32.1135006  13.8315017
  11.0429987  33.0405006  13.8315017  13.9349987  30.5275006  28.8055017
  14.8919987  30.5275006  28.8055017  13.6949987  31.4545006  28.8055017
   2.3629987  27.8785006  31.4005017   3.3199987  27.8785006  31.4005017
   2.1229987  28.8055006  31.4005017   7.0599987  29.0295006  16.4565017
   8.0169987  29.0295006  16.4565017   6.8199987  29.9565006  16.4565017
   6.3379987  26.8545006  28.7735017   7.2949987  26.8545006  28.7735017
   6.0979987  27.7815006  28.7735017   8.1329987  27.2495006  14.6795017
   9.0899987  27.2495006  14.6795017   7.8929987  28.1765006  14.6795017
  11.3939987  29.3985006  32.0875017  12.3509987  29.3985006  32.0875017
  11.1539987  30.3255006  32.0875017  17.4899987  29.5805006  14.1085017
  18.4469987  29.5805006  14.1085017  17.2499987  30.5075006  14.1085017
   6.7329987  24.2285006  29.8415017   7.6899987  24.2285006  29.8415017
   6.4929987  25.1555006  29.8415017   7.1309987  22.6065006  27.3735017
   8.0879987  22.6065006  27.3735017   6.8909987  23.5335006  27.3735017
   8.6859987  28.0745006  27.6175017   9.6429987  28.0745006  27.6175017
   8.4459987  29.0015006  27.6175017  13.0799987  25.8535006  32.5975017
  14.0369987  25.8535006  32.5975017  12.8399987  26.7805006  32.5975017
  14.4109987  28.6345006  30.7325017  15.3679987  28.6345006  30.7325017
  14.1709987  29.5615006  30.7325017   5.1809987  25.4775006  31.7505017
   6.1379987  25.4775006  31.7505017   4.9409987  26.4045006  31.7505017
   7.9129987  20.0515006  27.7855017   8.8699987  20.0515006  27.7855017
   7.6729987  20.9785006  27.7855017   9.1969987  24.3745006  31.3795017
  10.1539987  24.3745006  31.3795017   8.9569987  25.3015006  31.3795017
  11.9149987  23.5095006  30.4565017  12.8719987  23.5095006  30.4565017
  11.6749987  24.4365006  30.4565017  13.5099987  22.1395006  32.3965017
  14.4669987  22.1395006  32.3965017  13.2699987  23.0665006  32.3965017
   3.3269987  23.4025006  31.4975017   4.2839987  23.4025006  31.4975017
   3.0869987  24.3295006  31.4975017   8.1359987  19.4125006  30.4715017
   9.0929987  19.4125006  30.4715017   7.8959987  20.3395006  30.4715017
   8.5029987  21.0455006  32.5605017   9.4599987  21.0455006  32.5605017
   8.2629987  21.9725006  32.5605017   7.9809987  37.9465006  15.7405017
   8.9379987  37.9465006  15.7405017   7.7409987  38.8735006  15.7405017
   1.5899987  32.5595006  15.1945017   2.5469987  32.5595006  15.1945017
   1.3499987  33.4865006  15.1945017 108.0959987  37.9805006  20.2165017
 109.0529987  37.9805006  20.2165017 107.8559987  38.9075006  20.2165017
   1.5079987  36.1975006  22.1725017   2.4649987  36.1975006  22.1725017
   1.2679987  37.1245006  22.1725017  18.6479987  36.8595006  24.9995017
  19.6049987  36.8595006  24.9995017  18.4079987  37.7865006  24.9995017
  18.2239987  36.4475006  27.9545017  19.1809987  36.4475006  27.9545017
  17.9839987  37.3745006  27.9545017  16.6829987  32.1755006  32.6035017
  17.6399987  32.1755006  32.6035017  16.4429987  33.1025006  32.6035017
  17.9969987  30.4855006  18.0465017  18.9539987  30.4855006  18.0465017
  17.7569987  31.4125006  18.0465017  18.3739987  28.5585006  19.9235017
  19.3309987  28.5585006  19.9235017  18.1339987  29.4855006  19.9235017
  18.1329987  31.2765006  24.9295017  19.0899987  31.2765006  24.9295017
  17.8929987  32.2035006  24.9295017  16.6669987  34.1715006  27.1905017
  17.6239987  34.1715006  27.1905017  16.4269987  35.0985006  27.1905017
  18.6649987  28.3975006  16.3205017  19.6219987  28.3975006  16.3205017
  18.4249987  29.3245006  16.3205017  17.0309987  25.6315006  14.8425017
  17.9879987  25.6315006  14.8425017  16.7909987  26.5585006  14.8425017
  16.3089987  26.8355006  20.0885017  17.2659987  26.8355006  20.0885017
  16.0689987  27.7625006  20.0885017   1.1839987  29.1125006  24.5535017
   2.1409987  29.1125006  24.5535017   0.9439987  30.0395006  24.5535017
  17.0289987  29.0115006  30.1715017  17.9859987  29.0115006  30.1715017
  16.7889987  29.9385006  30.1715017  18.5369987  26.9035006  30.8355017
  19.4939987  26.9035006  30.8355017  18.2969987  27.8305006  30.8355017
  16.2689987  23.0885006  13.9775017  17.2259987  23.0885006  13.9775017
  16.0289987  24.0155006  13.9775017  15.8189987  24.5725006  18.8745017
  16.7759987  24.5725006  18.8745017  15.5789987  25.4995006  18.8745017
  16.5549987  25.0845006  24.4035017  17.5119987  25.0845006  24.4035017
  16.3149987  26.0115006  24.4035017  16.5609987  25.8955006  27.2145017
  17.5179987  25.8955006  27.2145017  16.3209987  26.8225006  27.2145017
   0.8809987  24.3865006  30.6125017   1.8379987  24.3865006  30.6125017
   0.6409987  25.3135006  30.6125017  18.8129987  19.9395006  32.5315017
  19.7699987  19.9395006  32.5315017  18.5729987  20.8665006  32.5315017
  16.5169987  21.9075006  19.0055017  17.4739987  21.9075006  19.0055017
  16.2769987  22.8345006  19.0055017   2.0849987  22.7445006  23.5425017
   3.0419987  22.7445006  23.5425017   1.8449987  23.6715006  23.5425017
   0.8909987  25.6765006  24.7565017   1.8479987  25.6765006  24.7565017
   0.6509987  26.6035006  24.7565017  18.3429987  22.0465006  30.8825017
  19.2999987  22.0465006  30.8825017  18.1029987  22.9735006  30.8825017
  18.3389987  21.9485006  15.5555017  19.2959987  21.9485006  15.5555017
  18.0989987  22.8755006  15.5555017   0.8919987  21.8965006  18.6795017
   1.8489987  21.8965006  18.6795017   0.6519987  22.8235006  18.6795017
  15.3859987  36.9325006  20.6195017  16.3429987  36.9325006  20.6195017
  15.1459987  37.8595006  20.6195017 108.3289987  20.6345006  27.0045017
 109.2859987  20.6345006  27.0045017 108.0889987  21.5615006  27.0045017
   2.8099987  33.8705006  31.1455017   3.7669987  33.8705006  31.1455017
   2.5699987  34.7975006  31.1455017   5.7179987  34.8345006  27.4045017
   6.6749987  34.8345006  27.4045017   5.4779987  35.7615006  27.4045017
  10.0569987  36.2595006  30.3265017  11.0139987  36.2595006  30.3265017
   9.8169987  37.1865006  30.3265017  12.3549987  37.5285006  29.6145017
  13.3119987  37.5285006  29.6145017  12.1149987  38.4555006  29.6145017
  17.3559987  20.1405006  28.7195017  18.3129987  20.1405006  28.7195017
  17.1159987  21.0675006  28.7195017   3.1249987  38.0515006  27.4315017
   4.0819987  38.0515006  27.4315017   2.8849987  38.9785006  27.4315017
   5.6499987  37.6745006  26.4845017   6.6069987  37.6745006  26.4845017
   5.4099987  38.6015006  26.4845017  10.3339987  37.5725006  25.6495017
  11.2909987  37.5725006  25.6495017  10.0939987  38.4995006  25.6495017
  12.6409987  36.4025006  26.6475017  13.5979987  36.4025006  26.6475017
  12.4009987  37.3295006  26.6475017  15.2229987  37.9605006  26.9095017
  16.1799987  37.9605006  26.9095017  14.9829987  38.8875006  26.9095017
   2.6259987  36.7365006  24.4125017   3.5829987  36.7365006  24.4125017
   2.3859987  37.6635006  24.4125017   4.6819987  35.4405006  23.0025017
   5.6389987  35.4405006  23.0025017   4.4419987  36.3675006  23.0025017
   7.2669987  35.9195006  23.8735017   8.2239987  35.9195006  23.8735017
   7.0269987  36.8465006  23.8735017  10.7549987  21.5715006  23.0195017
  11.7119987  21.5715006  23.0195017  10.5149987  22.4985006  23.0195017
  15.8889987  19.6335006  23.1005017  16.8459987  19.6335006  23.1005017
  15.6489987  20.5605006  23.1005017  17.5699987  20.8505006  21.3845017
  18.5269987  20.8505006  21.3845017  17.3299987  21.7775006  21.3845017
   3.1159987  20.1855006  20.8215017   4.0729987  20.1855006  20.8215017
   2.8759987  21.1125006  20.8215017   1.9529987  19.9525006  16.6835017
   2.9099987  19.9525006  16.6835017   1.7129987  20.8795006  16.6835017
   7.6149987  20.1255006  20.6455017   8.5719987  20.1255006  20.6455017
   7.3749987  21.0525006  20.6455017  13.2839987  20.1455006  22.2835017
  14.2409987  20.1455006  22.2835017  13.0439987  21.0725006  22.2835017
  14.5799987  20.1805006  17.9665017  15.5369987  20.1805006  17.9665017
  14.3399987  21.1075006  17.9665017   1.9219987  35.9265006  17.5815017
   2.8789987  35.9265006  17.5815017   1.6819987  36.8535006  17.5815017
   3.7339987  21.9115006  15.0895017   4.6909987  21.9115006  15.0895017
   3.4939987  22.8385006  15.0895017   8.7599987  22.1575006  17.5035017
   9.7169987  22.1575006  17.5035017   8.5199987  23.0845006  17.5035017
  10.6769987  37.1935006  15.9505017  11.6339987  37.1935006  15.9505017
  10.4369987  38.1205006  15.9505017  17.3919987  36.7205006  18.6545017
  18.3489987  36.7205006  18.6545017  17.1519987  37.6475006  18.6545017
   2.9949987  20.7395006  30.3145017   3.9519987  20.7395006  30.3145017
   2.7549987  21.6665006  30.3145017   5.0119987  20.1185006  31.9305017
   5.9689987  20.1185006  31.9305017   4.7719987  21.0455006  31.9305017
   3.5879987  36.8605006  14.5375017   4.5449987  36.8605006  14.5375017
   3.3479987  37.7875006  14.5375017  13.4179987  19.4175006  32.0955017
  14.3749987  19.4175006  32.0955017  13.1779987  20.3445006  32.0955017
  16.6249987  35.4565006  30.7505017  17.5819987  35.4565006  30.7505017
  16.3849987  36.3835006  30.7505017  22.2829987  28.2495006  25.7685017
  23.2399987  28.2495006  25.7685017  22.0429987  29.1765006  25.7685017
  23.2229987  32.6865006  24.3815017  24.1799987  32.6865006  24.3815017
  22.9829987  33.6135006  24.3815017  19.8709987  26.2845006  19.7315017
  20.8279987  26.2845006  19.7315017  19.6309987  27.2115006  19.7315017
  20.5869987  28.5205006  21.9035017  21.5439987  28.5205006  21.9035017
  20.3469987  29.4475006  21.9035017  31.5509987  25.4665006  24.9555017
  32.5079987  25.4665006  24.9555017  31.3109987  26.3935006  24.9555017
  24.5939987  23.5465006  22.2255017  25.5509987  23.5465006  22.2255017
  24.3539987  24.4735006  22.2255017  32.3509987  23.6395006  20.5965017
  33.3079987  23.6395006  20.5965017  32.1109987  24.5665006  20.5965017
  21.2149987  25.9595006  22.9645017  22.1719987  25.9595006  22.9645017
  20.9749987  26.8865006  22.9645017  23.4619987  22.4355006  26.2605017
  24.4189987  22.4355006  26.2605017  23.2219987  23.3625006  26.2605017
  23.0289987  24.3105006  24.2735017  23.9859987  24.3105006  24.2735017
  22.7889987  25.2375006  24.2735017  24.4319987  32.0955006  27.3145017
  25.3889987  32.0955006  27.3145017  24.1919987  33.0225006  27.3145017
  20.5359987  31.7275006  18.1315017  21.4929987  31.7275006  18.1315017
  20.2959987  32.6545006  18.1315017  27.4459987  19.7805006  23.7175017
  28.4029987  19.7805006  23.7175017  27.2059987  20.7075006  23.7175017
  29.7699987  27.0865006  15.2355017  30.7269987  27.0865006  15.2355017
  29.5299987  28.0135006  15.2355017  24.7729987  29.4425006  21.0985017
  25.7299987  29.4425006  21.0985017  24.5329987  30.3695006  21.0985017
  26.1139987  32.8265006  23.8125017  27.0709987  32.8265006  23.8125017
  25.8739987  33.7535006  23.8125017  25.1469987  28.1845006  24.7245017
  26.1039987  28.1845006  24.7245017  24.9069987  29.1115006  24.7245017
  32.0459987  27.9455006  16.8585017  33.0029987  27.9455006  16.8585017
  31.8059987  28.8725006  16.8585017  22.9639987  28.7675006  28.6045017
  23.9209987  28.7675006  28.6045017  22.7239987  29.6945006  28.6045017
  35.7389987  19.6805006  16.6865017  36.6959987  19.6805006  16.6865017
  35.4989987  20.6075006  16.6865017  23.7709987  28.4825006  18.6895017
  24.7279987  28.4825006  18.6895017  23.5309987  29.4095006  18.6895017
  19.8139987  30.8985006  27.5615017  20.7709987  30.8985006  27.5615017
  19.5739987  31.8255006  27.5615017  19.6179987  33.6345006  24.3685017
  20.5749987  33.6345006  24.3685017  19.3779987  34.5615006  24.3685017
  22.8699987  36.4845006  20.5225017  23.8269987  36.4845006  20.5225017
  22.6299987  37.4115006  20.5225017  32.3329987  36.8585006  15.7415017
  33.2899987  36.8585006  15.7415017  32.0929987  37.7855006  15.7415017
  22.1139987  32.1965006  28.5335017  23.0709987  32.1965006  28.5335017
  21.8739987  33.1235006  28.5335017  24.7889987  20.6725006  24.4815017
  25.7459987  20.6725006  24.4815017  24.5489987  21.5995006  24.4815017
  29.4509987  20.2495006  27.8275017  30.4079987  20.2495006  27.8275017
  29.2109987  21.1765006  27.8275017  33.4979987  28.9925006  14.5705017
  34.4549987  28.9925006  14.5705017  33.2579987  29.9195006  14.5705017
  29.0909987  22.9255006  15.1525017  30.0479987  22.9255006  15.1525017
  28.8509987  23.8525006  15.1525017  24.8459987  25.6205006  25.6575017
  25.8029987  25.6205006  25.6575017  24.6059987  26.5475006  25.6575017
  24.8459987  25.8245006  20.5575017  25.8029987  25.8245006  20.5575017
  24.6059987  26.7515006  20.5575017  30.4249987  26.3165006  19.3835017
  31.3819987  26.3165006  19.3835017  30.1849987  27.2435006  19.3835017
  31.3659987  25.7105006  22.1915017  32.3229987  25.7105006  22.1915017
  31.1259987  26.6375006  22.1915017  22.5619987  25.9205006  27.4345017
  23.5189987  25.9205006  27.4345017  22.3219987  26.8475006  27.4345017
  25.9249987  23.3155006  14.2675017  26.8819987  23.3155006  14.2675017
  25.6849987  24.2425006  14.2675017  19.1859987  23.0405006  21.3745017
  20.1429987  23.0405006  21.3745017  18.9459987  23.9675006  21.3745017
  20.4589987  23.7545006  16.7515017  21.4159987  23.7545006  16.7515017
  20.2189987  24.6815006  16.7515017  27.4249987  23.2885006  21.6065017
  28.3819987  23.2885006  21.6065017  27.1849987  24.2155006  21.6065017
  22.2389987  24.8895006  20.4665017  23.1959987  24.8895006  20.4665017
  21.9989987  25.8165006  20.4665017  25.8849987  24.9105006  18.0845017
  26.8419987  24.9105006  18.0845017  25.6449987  25.8375006  18.0845017
  24.5679987  26.0995006  15.6805017  25.5249987  26.0995006  15.6805017
  24.3279987  27.0265006  15.6805017  22.7119987  30.6965006  30.7395017
  23.6689987  30.6965006  30.7395017  22.4719987  31.6235006  30.7395017
  28.6469987  26.0015006  23.4625017  29.6039987  26.0015006  23.4625017
  28.4069987  26.9285006  23.4625017  23.7159987  22.2225006  19.9255017
  24.6729987  22.2225006  19.9255017  23.4759987  23.1495006  19.9255017
  27.9129987  30.6735006  17.6125017  28.8699987  30.6735006  17.6125017
  27.6729987  31.6005006  17.6125017  31.7699987  23.4565006  15.7915017
  32.7269987  23.4565006  15.7915017  31.5299987  24.3835006  15.7915017
  32.5059987  25.3735006  17.4445017  33.4629987  25.3735006  17.4445017
  32.2659987  26.3005006  17.4445017  23.0439987  30.0165006  23.3955017
  24.0009987  30.0165006  23.3955017  22.8039987  30.9435006  23.3955017
  30.0479987  32.1195006  16.7395017  31.0049987  32.1195006  16.7395017
  29.8079987  33.0465006  16.7395017  20.0319987  28.4355006  28.6765017
  20.9889987  28.4355006  28.6765017  19.7919987  29.3625006  28.6765017
  25.3989987  33.4705006  20.7725017  26.3559987  33.4705006  20.7725017
  25.1589987  34.3975006  20.7725017  21.1749987  28.3275006  15.3565017
  22.1319987  28.3275006  15.3565017  20.9349987  29.2545006  15.3565017
  33.1179987  32.3865006  15.4445017  34.0749987  32.3865006  15.4445017
  32.8779987  33.3135006  15.4445017  37.5939987  36.7705006  15.6505017
  38.5509987  36.7705006  15.6505017  37.3539987  37.6975006  15.6505017
  21.6729987  23.1695006  28.2295017  22.6299987  23.1695006  28.2295017
  21.4329987  24.0965006  28.2295017  21.3039987  34.9665006  26.6555017
  22.2609987  34.9665006  26.6555017  21.0639987  35.8935006  26.6555017
  26.9959987  33.4725006  13.9235017  27.9529987  33.4725006  13.9235017
  26.7559987  34.3995006  13.9235017  26.0319987  32.9965006  16.3775017
  26.9889987  32.9965006  16.3775017  25.7919987  33.9235006  16.3775017
  22.5809987  30.2505006  16.8535017  23.5379987  30.2505006  16.8535017
  22.3409987  31.1775006  16.8535017  31.1599987  22.5275006  18.2465017
  32.1169987  22.5275006  18.2465017  30.9199987  23.4545006  18.2465017
  28.8539987  34.6525006  17.1035017  29.8109987  34.6525006  17.1035017
  28.6139987  35.5795006  17.1035017  28.3959987  24.2755006  19.0735017
  29.3529987  24.2755006  19.0735017  28.1559987  25.2025006  19.0735017
  29.2519987  21.3305006  19.9975017  30.2089987  21.3305006  19.9975017
  29.0119987  22.2575006  19.9975017  26.2119987  35.7015006  17.0855017
  27.1689987  35.7015006  17.0855017  25.9719987  36.6285006  17.0855017
  24.9019987  22.4285006  16.6815017  25.8589987  22.4285006  16.6815017
  24.6619987  23.3555006  16.6815017  35.1539987  23.0625006  29.0215017
  36.1109987  23.0625006  29.0215017  34.9139987  23.9895006  29.0215017
  23.1389987  32.8695006  15.7315017  24.0959987  32.8695006  15.7315017
  22.8989987  33.7965006  15.7315017  21.4839987  25.5375006  14.8625017
  22.4409987  25.5375006  14.8625017  21.2439987  26.4645006  14.8625017
  22.2959987  20.3285006  23.5855017  23.2529987  20.3285006  23.5855017
  22.0559987  21.2555006  23.5855017  21.2299987  34.2415006  19.7295017
  22.1869987  34.2415006  19.7295017  20.9899987  35.1685006  19.7295017
  20.4759987  36.8985006  31.0385017  21.4329987  36.8985006  31.0385017
  20.2359987  37.8255006  31.0385017  29.2139987  35.5015006  14.3035017
  30.1709987  35.5015006  14.3035017  28.9739987  36.4285006  14.3035017
  33.8429987  35.1235006  14.2945017  34.7999987  35.1235006  14.2945017
  33.6029987  36.0505006  14.2945017  20.3959987  30.6865006  32.0195017
  21.3529987  30.6865006  32.0195017  20.1559987  31.6135006  32.0195017
  24.7109987  31.0055006  14.0735017  25.6679987  31.0055006  14.0735017
  24.4709987  31.9325006  14.0735017  30.4919987  31.6455006  14.2365017
  31.4489987  31.6455006  14.2365017  30.2519987  32.5725006  14.2365017
  21.2599987  27.8985006  31.4055017  22.2169987  27.8985006  31.4055017
  21.0199987  28.8255006  31.4055017  25.9059987  29.0265006  16.4435017
  26.8629987  29.0265006  16.4435017  25.6659987  29.9535006  16.4435017
  26.9859987  27.2455006  14.6775017  27.9429987  27.2455006  14.6775017
  26.7459987  28.1725006  14.6775017  36.2499987  29.6355006  14.1515017
  37.2069987  29.6355006  14.1515017  36.0099987  30.5625006  14.1515017
  25.5529987  24.2365006  29.8355017  26.5099987  24.2365006  29.8355017
  25.3129987  25.1635006  29.8355017  25.9449987  22.6135006  27.3675017
  26.9019987  22.6135006  27.3675017  25.7049987  23.5405006  27.3675017
  24.0539987  25.4725006  31.7655017  25.0109987  25.4725006  31.7655017
  23.8139987  26.3995006  31.7655017  26.7639987  20.0445006  27.7915017
  27.7209987  20.0445006  27.7915017  26.5239987  20.9715006  27.7915017
  28.0109987  24.4225006  31.3985017  28.9679987  24.4225006  31.3985017
  27.7709987  25.3495006  31.3985017  22.1529987  23.3995006  31.4845017
  23.1099987  23.3995006  31.4845017  21.9129987  24.3265006  31.4845017
  26.9729987  19.4075006  30.4645017  27.9299987  19.4075006  30.4645017
  26.7329987  20.3345006  30.4645017  27.3189987  21.0115006  32.5935017
  28.2759987  21.0115006  32.5935017  27.0789987  21.9385006  32.5935017
  26.8459987  37.9595006  15.7445017  27.8029987  37.9595006  15.7445017
  26.6059987  38.8865006  15.7445017  20.4039987  32.5495006  15.2095017
  21.3609987  32.5495006  15.2095017  20.1639987  33.4765006  15.2095017
  19.1619987  37.9325006  20.2085017  20.1189987  37.9325006  20.2085017
  18.9219987  38.8595006  20.2085017  19.9979987  36.0475006  22.0475017
  20.9549987  36.0475006  22.0475017  19.7579987  36.9745006  22.0475017
  20.0269987  29.1115006  24.5385017  20.9839987  29.1115006  24.5385017
  19.7869987  30.0385006  24.5385017  35.1219987  23.0805006  14.0025017
  36.0789987  23.0805006  14.0025017  34.8819987  24.0075006  14.0025017
  19.6459987  24.4245006  30.6925017  20.6029987  24.4245006  30.6925017
  19.4059987  25.3515006  30.6925017  37.6549987  19.9275006  32.5285017
  38.6119987  19.9275006  32.5285017  37.4149987  20.8545006  32.5285017
  20.8569987  22.7155006  23.5525017  21.8139987  22.7155006  23.5525017
  20.6169987  23.6425006  23.5525017  19.1719987  25.6935006  24.6235017
  20.1289987  25.6935006  24.6235017  18.9319987  26.6205006  24.6235017
  37.1889987  22.0185006  30.8835017  38.1459987  22.0185006  30.8835017
  36.9489987  22.9455006  30.8835017  37.1989987  21.9275006  15.5775017
  38.1559987  21.9275006  15.5775017  36.9589987  22.8545006  15.5775017
  19.5099987  21.9795006  18.6735017  20.4669987  21.9795006  18.6735017
  19.2699987  22.9065006  18.6735017  19.4639987  20.6465006  26.9815017
  20.4209987  20.6465006  26.9815017  19.2239987  21.5735006  26.9815017
  21.6629987  33.8375006  31.1555017  22.6199987  33.8375006  31.1555017
  21.4229987  34.7645006  31.1555017  36.2109987  20.1685006  28.6945017
  37.1679987  20.1685006  28.6945017  35.9709987  21.0955006  28.6945017
  22.0139987  38.0575006  27.4165017  22.9709987  38.0575006  27.4165017
  21.7739987  38.9845006  27.4165017  21.4319987  36.6625006  24.3315017
  22.3889987  36.6625006  24.3315017  21.1919987  37.5895006  24.3315017
  29.6029987  21.5665006  22.9765017  30.5599987  21.5665006  22.9765017
  29.3629987  22.4935006  22.9765017  34.7329987  19.7315006  23.1955017
  35.6899987  19.7315006  23.1955017  34.4929987  20.6585006  23.1955017
  36.4279987  20.8005006  21.4345017  37.3849987  20.8005006  21.4345017
  36.1879987  21.7275006  21.4345017  21.9699987  20.2055006  20.8555017
  22.9269987  20.2055006  20.8555017  21.7299987  21.1325006  20.8555017
  20.7569987  19.9625006  16.6025017  21.7139987  19.9625006  16.6025017
  20.5169987  20.8895006  16.6025017  26.4739987  20.1255006  20.6455017
  27.4309987  20.1255006  20.6455017  26.2339987  21.0525006  20.6455017
  32.1569987  20.1455006  22.2955017  33.1139987  20.1455006  22.2955017
  31.9169987  21.0725006  22.2955017  33.4309987  20.1815006  17.9635017
  34.3879987  20.1815006  17.9635017  33.1909987  21.1085006  17.9635017
  20.6749987  35.9105006  17.5865017  21.6319987  35.9105006  17.5865017
  20.4349987  36.8375006  17.5865017  22.5909987  21.9035006  15.0885017
  23.5479987  21.9035006  15.0885017  22.3509987  22.8305006  15.0885017
  27.6189987  22.1555006  17.5035017  28.5759987  22.1555006  17.5035017
  27.3789987  23.0825006  17.5035017  29.5349987  37.2915006  16.0065017
  30.4919987  37.2915006  16.0065017  29.2949987  38.2185006  16.0065017
  21.8679987  20.7355006  30.3215017  22.8249987  20.7355006  30.3215017
  21.6279987  21.6625006  30.3215017  23.8749987  20.1115006  31.9335017
  24.8319987  20.1115006  31.9335017  23.6349987  21.0385006  31.9335017
  22.4639987  36.8825006  14.5475017  23.4209987  36.8825006  14.5475017
  22.2239987  37.8095006  14.5475017  32.2799987  19.3905006  32.0835017
  33.2369987  19.3905006  32.0835017  32.0399987  20.3175006  32.0835017
  52.4419987  31.5615006  22.4655017  53.3989987  31.5615006  22.4655017
  52.2019987  32.4885006  22.4655017  55.7889987  22.6855006  25.4375017
  56.7459987  22.6855006  25.4375017  55.5489987  23.6125006  25.4375017
  51.2129987  23.6195006  20.5675017  52.1699987  23.6195006  20.5675017
  50.9729987  24.5465006  20.5675017  56.2099987  24.0715006  27.7035017
  57.1669987  24.0715006  27.7035017  55.9699987  24.9985006  27.7035017
  53.0019987  22.9405006  22.5635017  53.9589987  22.9405006  22.5635017
  52.7619987  23.8675006  22.5635017  53.3219987  21.7345006  26.3115017
  54.2789987  21.7345006  26.3115017  53.0819987  22.6615006  26.3115017
  52.4529987  33.0755006  19.9785017  53.4099987  33.0755006  19.9785017
  52.2129987  34.0025006  19.9785017  48.6279987  27.0815006  15.2685017
  49.5849987  27.0815006  15.2685017  48.3879987  28.0085006  15.2685017
  54.6129987  19.7115006  16.7085017  55.5699987  19.7115006  16.7085017
  54.3729987  20.6385006  16.7085017  55.7449987  34.0785006  15.0665017
  56.7019987  34.0785006  15.0665017  55.5049987  35.0055006  15.0665017
  47.9689987  22.8945006  15.1715017  48.9259987  22.8945006  15.1715017
  47.7289987  23.8215006  15.1715017  44.7919987  23.2425006  14.2495017
  45.7489987  23.2425006  14.2495017  44.5519987  24.1695006  14.2495017
  39.2939987  23.7575006  16.6655017  40.2509987  23.7575006  16.6655017
  39.0539987  24.6845006  16.6655017  50.6419987  23.4375006  15.7825017
  51.5989987  23.4375006  15.7825017  50.4019987  24.3645006  15.7825017
  51.3749987  25.3665006  17.4055017  52.3319987  25.3665006  17.4055017
  51.1349987  26.2935006  17.4055017  56.2639987  25.5175006  17.1755017
  57.2209987  25.5175006  17.1755017  56.0239987  26.4445006  17.1755017
  56.2839987  31.4895006  29.9965017  57.2409987  31.4895006  29.9965017
  56.0439987  32.4165006  29.9965017  54.5459987  34.3595006  17.5935017
  55.5029987  34.3595006  17.5935017  54.3059987  35.2865006  17.5935017
  56.4669987  36.7645006  15.6905017  57.4239987  36.7645006  15.6905017
  56.2269987  37.6915006  15.6905017  40.5099987  23.1445006  28.1965017
  41.4669987  23.1445006  28.1965017  40.2699987  24.0715006  28.1965017
  43.7589987  22.4095006  16.6815017  44.7159987  22.4095006  16.6815017
  43.5189987  23.3365006  16.6815017  52.6299987  26.9125006  23.1255017
  53.5869987  26.9125006  23.1255017  52.3899987  27.8395006  23.1255017
  53.6989987  36.2055006  24.6785017  54.6559987  36.2055006  24.6785017
  53.4589987  37.1325006  24.6785017  52.6569987  35.0515006  14.2135017
  53.6139987  35.0515006  14.2135017  52.4169987  35.9785006  14.2135017
  55.3129987  29.5855006  14.0775017  56.2699987  29.5855006  14.0775017
  55.0729987  30.5125006  14.0775017  41.0149987  23.3705006  31.5045017
  41.9719987  23.3705006  31.5045017  40.7749987  24.2975006  31.5045017
  56.4159987  36.8205006  25.0305017  57.3729987  36.8205006  25.0305017
  56.1759987  37.7475006  25.0305017  55.7449987  30.4855006  18.0585017
  56.7019987  30.4855006  18.0585017  55.5049987  31.4125006  18.0585017
  56.0869987  28.5495006  19.9165017  57.0439987  28.5495006  19.9165017
  55.8469987  29.4765006  19.9165017  55.8589987  31.2955006  24.9265017
  56.8159987  31.2955006  24.9265017  55.6189987  32.2225006  24.9265017
  56.3929987  28.3995006  16.3205017  57.3499987  28.3995006  16.3205017
  56.1529987  29.3265006  16.3205017  54.7699987  25.6225006  14.8425017
  55.7269987  25.6225006  14.8425017  54.5299987  26.5495006  14.8425017
  53.9459987  27.0235006  20.5265017  54.9029987  27.0235006  20.5265017
  53.7059987  27.9505006  20.5265017  53.9849987  23.0775006  13.9715017
  54.9419987  23.0775006  13.9715017  53.7449987  24.0045006  13.9715017
  53.5709987  24.6165006  18.9445017  54.5279987  24.6165006  18.9445017
  53.3309987  25.5435006  18.9445017  54.2399987  21.8995006  18.9885017
  55.1969987  21.8995006  18.9885017  53.9999987  22.8265006  18.9885017
  56.0489987  21.9485006  15.5545017  57.0059987  21.9485006  15.5545017
  55.8089987  22.8755006  15.5545017  38.3069987  20.6545006  26.9795017
  39.2639987  20.6545006  26.9795017  38.0669987  21.5815006  26.9795017
  52.9699987  38.0085006  26.8995017  53.9269987  38.0085006  26.8995017
  52.7299987  38.9355006  26.8995017  53.6049987  19.6325006  23.0945017
  54.5619987  19.6325006  23.0945017  53.3649987  20.5595006  23.0945017
  55.2889987  20.8575006  21.3815017  56.2459987  20.8575006  21.3815017
  55.0489987  21.7845006  21.3815017  39.6219987  19.9625006  16.6055017
  40.5789987  19.9625006  16.6055017  39.3819987  20.8895006  16.6055017
  50.9639987  20.1525006  22.2865017  51.9209987  20.1525006  22.2865017
  50.7239987  21.0795006  22.2865017  52.2849987  20.1795006  17.9815017
  53.2419987  20.1795006  17.9815017  52.0449987  21.1065006  17.9815017
  39.5329987  35.9495006  17.5485017  40.4899987  35.9495006  17.5485017
  39.2929987  36.8765006  17.5485017  41.4499987  21.8825006  15.0995017
  42.4069987  21.8825006  15.0995017  41.2099987  22.8095006  15.0995017
  46.4699987  22.1585006  17.5135017  47.4269987  22.1585006  17.5135017
  46.2299987  23.0855006  17.5135017  55.1109987  36.7425006  18.6475017
  56.0679987  36.7425006  18.6475017  54.8709987  37.6695006  18.6475017
  40.7309987  20.7415006  30.3075017  41.6879987  20.7415006  30.3075017
  40.4909987  21.6685006  30.3075017  42.7439987  20.0655006  31.8995017
  43.7009987  20.0655006  31.8995017  42.5039987  20.9925006  31.8995017
  57.5659987  26.2755006  19.7515017  58.5229987  26.2755006  19.7515017
  57.3259987  27.2025006  19.7515017  58.2799987  28.5115006  21.8995017
  59.2369987  28.5115006  21.8995017  58.0399987  29.4385006  21.8995017
  74.6189987  22.6825006  25.4395017  75.5759987  22.6825006  25.4395017
  74.3789987  23.6095006  25.4395017  62.3189987  23.5405006  22.2335017
  63.2759987  23.5405006  22.2335017  62.0789987  24.4675006  22.2335017
  70.0539987  23.5955006  20.5725017  71.0109987  23.5955006  20.5725017
  69.8139987  24.5225006  20.5725017  58.9289987  25.9595006  22.9585017
  59.8859987  25.9595006  22.9585017  58.6889987  26.8865006  22.9585017
  75.0519987  24.0745006  27.6905017  76.0089987  24.0745006  27.6905017
  74.8119987  25.0015006  27.6905017  61.1589987  22.4295006  26.2415017
  62.1159987  22.4295006  26.2415017  60.9189987  23.3565006  26.2415017
  71.8069987  22.9525006  22.6105017  72.7639987  22.9525006  22.6105017
  71.5669987  23.8795006  22.6105017  60.7579987  24.3445006  24.2475017
  61.7149987  24.3445006  24.2475017  60.5179987  25.2715006  24.2475017
  58.2639987  31.7295006  18.1265017  59.2209987  31.7295006  18.1265017
  58.0239987  32.6565006  18.1265017  72.1569987  21.6905006  26.2875017
  73.1139987  21.6905006  26.2875017  71.9169987  22.6175006  26.2875017
  67.4969987  27.1035006  15.2265017  68.4539987  27.1035006  15.2265017
  67.2569987  28.0305006  15.2265017  69.7749987  27.9515006  16.8375017
  70.7319987  27.9515006  16.8375017  69.5349987  28.8785006  16.8375017
  73.4689987  19.7145006  16.7115017  74.4259987  19.7145006  16.7115017
  73.2289987  20.6415006  16.7115017  61.4779987  28.4715006  18.6365017
  62.4349987  28.4715006  18.6365017  61.2379987  29.3985006  18.6365017
  74.6009987  34.0635006  15.0495017  75.5579987  34.0635006  15.0495017
  74.3609987  34.9905006  15.0495017  57.6039987  30.8855006  27.4875017
  58.5609987  30.8855006  27.4875017  57.3639987  31.8125006  27.4875017
  57.3319987  33.6545006  24.3775017  58.2889987  33.6545006  24.3775017
  57.0919987  34.5815006  24.3775017  60.5749987  36.5155006  20.5255017
  61.5319987  36.5155006  20.5255017  60.3349987  37.4425006  20.5255017
  62.4959987  20.6805006  24.4505017  63.4529987  20.6805006  24.4505017
  62.2559987  21.6075006  24.4505017  67.1109987  20.2315006  27.8415017
  68.0679987  20.2315006  27.8415017  66.8709987  21.1585006  27.8415017
  71.2069987  29.0165006  14.5725017  72.1639987  29.0165006  14.5725017
  70.9669987  29.9435006  14.5725017  66.8009987  22.9255006  15.1525017
  67.7579987  22.9255006  15.1525017  66.5609987  23.8525006  15.1525017
  62.5559987  25.7615006  20.5685017  63.5129987  25.7615006  20.5685017
  62.3159987  26.6885006  20.5685017  63.6379987  23.3145006  14.2635017
  64.5949987  23.3145006  14.2635017  63.3979987  24.2415006  14.2635017
  56.8969987  23.0395006  21.3755017  57.8539987  23.0395006  21.3755017
  56.6569987  23.9665006  21.3755017  58.1709987  23.7545006  16.7515017
  59.1279987  23.7545006  16.7515017  57.9309987  24.6815006  16.7515017
  65.1409987  23.2495006  21.6105017  66.0979987  23.2495006  21.6105017
  64.9009987  24.1765006  21.6105017  59.9389987  24.8775006  20.4785017
  60.8959987  24.8775006  20.4785017  59.6989987  25.8045006  20.4785017
  63.5869987  24.8885006  18.0655017  64.5439987  24.8885006  18.0655017
  63.3469987  25.8155006  18.0655017  62.2809987  26.0955006  15.6825017
  63.2379987  26.0955006  15.6825017  62.0409987  27.0225006  15.6825017
  61.4359987  22.2185006  19.9345017  62.3929987  22.2185006  19.9345017
  61.1959987  23.1455006  19.9345017  69.4899987  23.4445006  15.7645017
  70.4469987  23.4445006  15.7645017  69.2499987  24.3715006  15.7645017
  70.2409987  25.3335006  17.3535017  71.1979987  25.3335006  17.3535017
  70.0009987  26.2605006  17.3535017  60.6889987  29.9315006  23.3005017
  61.6459987  29.9315006  23.3005017  60.4489987  30.8585006  23.3005017
  67.7119987  32.1335006  16.5415017  68.6689987  32.1335006  16.5415017
  67.4719987  33.0605006  16.5415017  75.0999987  25.5155006  17.1915017
  76.0569987  25.5155006  17.1915017  74.8599987  26.4425006  17.1915017
  58.8909987  28.3305006  15.3515017  59.8479987  28.3305006  15.3515017
  58.6509987  29.2575006  15.3515017  65.0129987  35.2895006  26.6645017
  65.9699987  35.2895006  26.6645017  64.7729987  36.2165006  26.6645017
  63.2029987  36.2275006  19.7775017  64.1599987  36.2275006  19.7775017
  62.9629987  37.1545006  19.7775017  70.8179987  32.3585006  15.4425017
  71.7749987  32.3585006  15.4425017  70.5779987  33.2855006  15.4425017
  59.3609987  23.2015006  28.2315017  60.3179987  23.2015006  28.2315017
  59.1209987  24.1285006  28.2315017  59.0959987  34.9865006  26.6175017
  60.0529987  34.9865006  26.6175017  58.8559987  35.9135006  26.6175017
  64.9599987  33.4685006  13.8965017  65.9169987  33.4685006  13.8965017
  64.7199987  34.3955006  13.8965017  63.8019987  33.0035006  16.3485017
  64.7589987  33.0035006  16.3485017  63.5619987  33.9305006  16.3485017
  60.2869987  30.2565006  16.8435017  61.2439987  30.2565006  16.8435017
  60.0469987  31.1835006  16.8435017  68.8849987  22.5225006  18.2525017
  69.8419987  22.5225006  18.2525017  68.6449987  23.4495006  18.2525017
  66.1019987  24.2985006  19.0815017  67.0589987  24.2985006  19.0815017
  65.8619987  25.2255006  19.0815017  66.9609987  21.3435006  20.0005017
  67.9179987  21.3435006  20.0005017  66.7209987  22.2705006  20.0005017
  63.8949987  35.7005006  17.0785017  64.8519987  35.7005006  17.0785017
  63.6549987  36.6275006  17.0785017  62.6139987  22.4295006  16.6785017
  63.5709987  22.4295006  16.6785017  62.3739987  23.3565006  16.6785017
  72.8259987  23.1945006  29.0815017  73.7829987  23.1945006  29.0815017
  72.5859987  24.1215006  29.0815017  60.8479987  32.8675006  15.7285017
  61.8049987  32.8675006  15.7285017  60.6079987  33.7945006  15.7285017
  59.1959987  25.5385006  14.8615017  60.1529987  25.5385006  14.8615017
  58.9559987  26.4655006  14.8615017  60.0009987  20.3375006  23.5825017
  60.9579987  20.3375006  23.5825017  59.7609987  21.2645006  23.5825017
  58.9569987  34.2485006  19.7345017  59.9139987  34.2485006  19.7345017
  58.7169987  35.1755006  19.7345017  62.8509987  35.8165006  32.6385017
  63.8079987  35.8165006  32.6385017  62.6109987  36.7435006  32.6385017
  66.9599987  35.3315006  14.0185017  67.9169987  35.3315006  14.0185017
  66.7199987  36.2585006  14.0185017  71.5169987  35.0735006  14.2405017
  72.4739987  35.0735006  14.2405017  71.2769987  36.0005006  14.2405017
  62.4229987  31.0165006  14.0835017  63.3799987  31.0165006  14.0835017
  62.1829987  31.9435006  14.0835017  67.8529987  32.1035006  13.8085017
  68.8099987  32.1035006  13.8085017  67.6129987  33.0305006  13.8085017
  63.5649987  29.0275006  16.3955017  64.5219987  29.0275006  16.3955017
  63.3249987  29.9545006  16.3955017  64.7089987  27.2255006  14.6985017
  65.6659987  27.2255006  14.6985017  64.4689987  28.1525006  14.6985017
  74.0639987  29.5815006  14.1145017  75.0209987  29.5815006  14.1145017
  73.8239987  30.5085006  14.1145017  69.6809987  25.8685006  32.3665017
  70.6379987  25.8685006  32.3665017  69.4409987  26.7955006  32.3665017
  70.1459987  22.1415006  32.4715017  71.1029987  22.1415006  32.4715017
  69.9059987  23.0685006  32.4715017  64.7359987  19.4215006  30.4465017
  65.6929987  19.4215006  30.4465017  64.4959987  20.3485006  30.4465017
  65.0509987  21.0245006  32.5625017  66.0079987  21.0245006  32.5625017
  64.8109987  21.9515006  32.5625017  64.5619987  38.0405006  15.8055017
  65.5189987  38.0405006  15.8055017  64.3219987  38.9675006  15.8055017
  58.1279987  32.5645006  15.1985017  59.0849987  32.5645006  15.1985017
  57.8879987  33.4915006  15.1985017  56.8769987  37.9255006  20.1915017
  57.8339987  37.9255006  20.1915017  56.6369987  38.8525006  20.1915017
  57.7049987  36.0545006  22.0405017  58.6619987  36.0545006  22.0405017
  57.4649987  36.9815006  22.0405017  74.5629987  30.4635006  18.0735017
  75.5199987  30.4635006  18.0735017  74.3229987  31.3905006  18.0735017
  74.9199987  28.5395006  19.9345017  75.8769987  28.5395006  19.9345017
  74.6799987  29.4665006  19.9345017  74.6519987  31.1985006  24.7905017
  75.6089987  31.1985006  24.7905017  74.4119987  32.1255006  24.7905017
  75.2179987  28.3805006  16.3415017  76.1749987  28.3805006  16.3415017
  74.9779987  29.3075006  16.3415017  73.5909987  25.6375006  14.8475017
  74.5479987  25.6375006  14.8475017  73.3509987  26.5645006  14.8475017
  57.7719987  29.1215006  24.5585017  58.7289987  29.1215006  24.5585017
  57.5319987  30.0485006  24.5585017  72.8349987  23.0875006  13.9705017
  73.7919987  23.0875006  13.9705017  72.5949987  24.0145006  13.9705017
  72.4049987  24.6185006  18.9015017  73.3619987  24.6185006  18.9015017
  72.1649987  25.5455006  18.9015017  75.3779987  19.9265006  32.5255017
  76.3349987  19.9265006  32.5255017  75.1379987  20.8535006  32.5255017
  73.0959987  21.8915006  18.9855017  74.0529987  21.8915006  18.9855017
  72.8559987  22.8185006  18.9855017  58.5709987  22.7175006  23.5575017
  59.5279987  22.7175006  23.5575017  58.3309987  23.6445006  23.5575017
  56.8669987  25.6785006  24.6445017  57.8239987  25.6785006  24.6445017
  56.6269987  26.6055006  24.6445017  74.9049987  22.0465006  30.8725017
  75.8619987  22.0465006  30.8725017  74.6649987  22.9735006  30.8725017
  74.9049987  21.9485006  15.5735017  75.8619987  21.9485006  15.5735017
  74.6649987  22.8755006  15.5735017  57.2199987  21.9865006  18.6745017
  58.1769987  21.9865006  18.6745017  56.9799987  22.9135006  18.6745017
  57.1649987  20.6585006  26.9885017  58.1219987  20.6585006  26.9885017
  56.9249987  21.5855006  26.9885017  62.2989987  34.8045006  27.3805017
  63.2559987  34.8045006  27.3805017  62.0589987  35.7315006  27.3805017
  73.9289987  20.1375006  28.7155017  74.8859987  20.1375006  28.7155017
  73.6889987  21.0645006  28.7155017  59.7259987  38.0855006  27.4345017
  60.6829987  38.0855006  27.4345017  59.4859987  39.0125006  27.4345017
  62.1859987  37.6365006  26.4665017  63.1429987  37.6365006  26.4665017
  61.9459987  38.5635006  26.4665017  59.1549987  36.7335006  24.3405017
  60.1119987  36.7335006  24.3405017  58.9149987  37.6605006  24.3405017
  61.2349987  35.4685006  23.0535017  62.1919987  35.4685006  23.0535017
  60.9949987  36.3955006  23.0535017  63.7789987  35.8785006  23.8615017
  64.7359987  35.8785006  23.8615017  63.5389987  36.8055006  23.8615017
  72.4549987  19.6685006  23.1275017  73.4119987  19.6685006  23.1275017
  72.2149987  20.5955006  23.1275017  74.1399987  20.8435006  21.4035017
  75.0969987  20.8435006  21.4035017  73.8999987  21.7705006  21.4035017
  59.6829987  20.2035006  20.8515017  60.6399987  20.2035006  20.8515017
  59.4429987  21.1305006  20.8515017  58.4669987  19.9625006  16.6035017
  59.4239987  19.9625006  16.6035017  58.2269987  20.8895006  16.6035017
  64.1849987  20.1395006  20.6595017  65.1419987  20.1395006  20.6595017
  63.9449987  21.0665006  20.6595017  69.8729987  20.1605006  22.2975017
  70.8299987  20.1605006  22.2975017  69.6329987  21.0875006  22.2975017
  71.1469987  20.1805006  17.9555017  72.1039987  20.1805006  17.9555017
  70.9069987  21.1075006  17.9555017  58.3909987  35.9115006  17.5735017
  59.3479987  35.9115006  17.5735017  58.1509987  36.8385006  17.5735017
  60.3029987  21.9035006  15.0885017  61.2599987  21.9035006  15.0885017
  60.0629987  22.8305006  15.0885017  65.3329987  22.1625006  17.5105017
  66.2899987  22.1625006  17.5105017  65.0929987  23.0895006  17.5105017
  67.2189987  37.2255006  15.9265017  68.1759987  37.2255006  15.9265017
  66.9789987  38.1525006  15.9265017  59.5979987  20.7515006  30.2965017
  60.5549987  20.7515006  30.2965017  59.3579987  21.6785006  30.2965017
  61.5749987  20.0905006  31.9175017  62.5319987  20.0905006  31.9175017
  61.3349987  21.0175006  31.9175017  60.1809987  36.8825006  14.5505017
  61.1379987  36.8825006  14.5505017  59.9409987  37.8095006  14.5505017
  69.9909987  19.3965006  32.0805017  70.9479987  19.3965006  32.0805017
  69.7509987  20.3235006  32.0805017  87.6339987  29.3465006  20.7385017
  88.5909987  29.3465006  20.7385017  87.3939987  30.2735006  20.7385017
  86.5739987  28.5785006  24.2175017  87.5309987  28.5785006  24.2175017
  86.3339987  29.5055006  24.2175017  90.1739987  31.5565006  22.4935017
  91.1309987  31.5565006  22.4935017  89.9339987  32.4835006  22.4935017
  76.4069987  26.2915006  19.7685017  77.3639987  26.2915006  19.7685017
  76.1669987  27.2185006  19.7685017  93.4939987  22.6465006  25.4315017
  94.4509987  22.6465006  25.4315017  93.2539987  23.5735006  25.4315017
  88.0709987  25.4505006  24.9855017  89.0279987  25.4505006  24.9855017
  87.8309987  26.3775006  24.9855017  81.1699987  23.5305006  22.2405017
  82.1269987  23.5305006  22.2405017  80.9299987  24.4575006  22.2405017
  88.8929987  23.6415006  20.5945017  89.8499987  23.6415006  20.5945017
  88.6529987  24.5685006  20.5945017  77.8059987  25.9425006  22.9705017
  78.7629987  25.9425006  22.9705017  77.5659987  26.8695006  22.9705017
  82.9459987  27.4945006  22.2445017  83.9029987  27.4945006  22.2445017
  82.7059987  28.4215006  22.2445017  93.9259987  24.0775006  27.6965017
  94.8829987  24.0775006  27.6965017  93.6859987  25.0045006  27.6965017
  80.0439987  22.4375006  26.2485017  81.0009987  22.4375006  26.2485017
  79.8039987  23.3645006  26.2485017  87.3279987  31.9335006  19.8315017
  88.2849987  31.9335006  19.8315017  87.0879987  32.8605006  19.8315017
  90.6799987  22.9735006  22.5925017  91.6369987  22.9735006  22.5925017
  90.4399987  23.9005006  22.5925017  79.6039987  24.3135006  24.2695017
  80.5609987  24.3135006  24.2695017  79.3639987  25.2405006  24.2695017
  90.7379987  33.3805006  24.8795017  91.6949987  33.3805006  24.8795017
  90.4979987  34.3075006  24.8795017  91.0339987  21.6685006  26.2685017
  91.9909987  21.6685006  26.2685017  90.7939987  22.5955006  26.2685017
  84.0149987  19.7795006  23.7295017  84.9719987  19.7795006  23.7295017
  83.7749987  20.7065006  23.7295017  88.9219987  35.1775006  21.4765017
  89.8789987  35.1775006  21.4765017  88.6819987  36.1045006  21.4765017
  90.1559987  33.0955006  19.9845017  91.1129987  33.0955006  19.9845017
  89.9159987  34.0225006  19.9845017  91.7859987  31.6735006  28.4735017
  92.7429987  31.6735006  28.4735017  91.5459987  32.6005006  28.4735017
  86.2819987  28.5795006  18.2465017  87.2389987  28.5795006  18.2465017
  86.0419987  29.5065006  18.2465017  86.3599987  27.1155006  15.2585017
  87.3169987  27.1155006  15.2585017  86.1199987  28.0425006  15.2585017
  93.6779987  27.9855006  26.5225017  94.6349987  27.9855006  26.5225017
  93.4379987  28.9125006  26.5225017  89.7279987  28.7985006  19.1545017
  90.6849987  28.7985006  19.1545017  89.4879987  29.7255006  19.1545017
  89.6609987  26.9705006  28.2655017  90.6179987  26.9705006  28.2655017
  89.4209987  27.8975006  28.2655017  82.8019987  32.9205006  23.7095017
  83.7589987  32.9205006  23.7095017  82.5619987  33.8475006  23.7095017
  87.9959987  33.7215006  25.4275017  88.9529987  33.7215006  25.4275017
  87.7559987  34.6485006  25.4275017  88.5999987  27.9795006  16.8395017
  89.5569987  27.9795006  16.8395017  88.3599987  28.9065006  16.8395017
  92.3269987  19.7135006  16.7095017  93.2839987  19.7135006  16.7095017
  92.0869987  20.6405006  16.7095017  93.4499987  34.0705006  15.0745017
  94.4069987  34.0705006  15.0745017  93.2099987  34.9975006  15.0745017
  94.4129987  34.3355006  30.0495017  95.3699987  34.3355006  30.0495017
  94.1729987  35.2625006  30.0495017  88.8679987  36.8285006  15.7065017
  89.8249987  36.8285006  15.7065017  88.6279987  37.7555006  15.7065017
  88.5679987  36.7455006  18.4605017  89.5249987  36.7455006  18.4605017
  88.3279987  37.6725006  18.4605017  91.5529987  25.8105006  30.5285017
  92.5099987  25.8105006  30.5285017  91.3129987  26.7375006  30.5285017
  81.3619987  20.6725006  24.4885017  82.3189987  20.6725006  24.4885017
  81.1219987  21.5995006  24.4885017  86.0079987  20.3665006  27.8535017
  86.9649987  20.3665006  27.8535017  85.7679987  21.2935006  27.8535017
  89.3129987  24.1915006  28.7495017  90.2699987  24.1915006  28.7495017
  89.0729987  25.1185006  28.7495017  90.0549987  29.0155006  14.5875017
  91.0119987  29.0155006  14.5875017  89.8149987  29.9425006  14.5875017
  85.6589987  22.9255006  15.1525017  86.6159987  22.9255006  15.1525017
  85.4189987  23.8525006  15.1525017  81.4239987  25.6465006  25.6515017
  82.3809987  25.6465006  25.6515017  81.1839987  26.5735006  25.6515017
  81.4359987  25.7735006  20.5935017  82.3929987  25.7735006  20.5935017
  81.1959987  26.7005006  20.5935017  86.9529987  26.2735006  19.3705017
  87.9099987  26.2735006  19.3705017  86.7129987  27.2005006  19.3705017
  86.0379987  26.4535006  30.8305017  86.9949987  26.4535006  30.8305017
  85.7979987  27.3805006  30.8305017  87.9799987  25.7505006  22.1925017
  88.9369987  25.7505006  22.1925017  87.7399987  26.6775006  22.1925017
  82.4919987  23.3145006  14.2685017  83.4489987  23.3145006  14.2685017
  82.2519987  24.2415006  14.2685017  75.7629987  23.0455006  21.3715017
  76.7199987  23.0455006  21.3715017  75.5229987  23.9725006  21.3715017
  77.0089987  23.7385006  16.7275017  77.9659987  23.7385006  16.7275017
  76.7689987  24.6655006  16.7275017  83.9959987  23.2905006  21.5965017
  84.9529987  23.2905006  21.5965017  83.7559987  24.2175006  21.5965017
  78.7929987  24.8565006  20.4815017  79.7499987  24.8565006  20.4815017
  78.5529987  25.7835006  20.4815017  82.4529987  24.9125006  18.0885017
  83.4099987  24.9125006  18.0885017  82.2129987  25.8395006  18.0885017
  88.3949987  22.5485006  24.8525017  89.3519987  22.5485006  24.8525017
  88.1549987  23.4755006  24.8525017  81.1479987  26.0935006  15.6785017
  82.1049987  26.0935006  15.6785017  80.9079987  27.0205006  15.6785017
  91.6109987  38.2055006  31.1625017  92.5679987  38.2055006  31.1625017
  91.3709987  39.1325006  31.1625017  85.2499987  26.0745006  23.4725017
  86.2069987  26.0745006  23.4725017  85.0099987  27.0015006  23.4725017
  80.2919987  22.2235006  19.9325017  81.2489987  22.2235006  19.9325017
  80.0519987  23.1505006  19.9325017  83.9199987  24.4155006  25.8855017
  84.8769987  24.4155006  25.8855017  83.6799987  25.3425006  25.8855017
  84.4949987  30.6695006  17.6085017  85.4519987  30.6695006  17.6085017
  84.2549987  31.5965006  17.6085017  91.6659987  29.8265006  26.4035017
  92.6229987  29.8265006  26.4035017  91.4259987  30.7535006  26.4035017
  88.3429987  23.4595006  15.7825017  89.2999987  23.4595006  15.7825017
  88.1029987  24.3865006  15.7825017  89.0719987  25.3605006  17.4255017
  90.0289987  25.3605006  17.4255017  88.8319987  26.2875006  17.4255017
  86.6219987  32.1075006  16.6455017  87.5789987  32.1075006  16.6455017
  86.3819987  33.0345006  16.6455017  88.2459987  33.3325006  28.7685017
  89.2029987  33.3325006  28.7685017  88.0059987  34.2595006  28.7685017
  93.9719987  25.5105006  17.1765017  94.9289987  25.5105006  17.1765017
  93.7319987  26.4375006  17.1765017  93.9519987  31.3755006  30.0055017
  94.9089987  31.3755006  30.0055017  93.7119987  32.3025006  30.0055017
  92.2389987  34.3445006  17.5925017  93.1959987  34.3445006  17.5925017
  91.9989987  35.2715006  17.5925017  89.4589987  29.1665006  24.6695017
  90.4159987  29.1665006  24.6695017  89.2189987  30.0935006  24.6695017
  77.7319987  28.3375006  15.3345017  78.6889987  28.3375006  15.3345017
  77.4919987  29.2645006  15.3345017  83.3779987  31.1585006  20.2885017
  84.3349987  31.1585006  20.2885017  83.1379987  32.0855006  20.2885017
  89.7009987  32.3815006  15.4205017  90.6579987  32.3815006  15.4205017
  89.4609987  33.3085006  15.4205017  90.1679987  35.9245006  28.8315017
  91.1249987  35.9245006  28.8315017  89.9279987  36.8515006  28.8315017
  94.1709987  36.7645006  15.6685017  95.1279987  36.7645006  15.6685017
  93.9309987  37.6915006  15.6685017  78.2529987  23.1725006  28.2005017
  79.2099987  23.1725006  28.2005017  78.0129987  24.0995006  28.2005017
  90.4879987  31.0325006  17.6605017  91.4449987  31.0325006  17.6605017
  90.2479987  31.9595006  17.6605017  83.8279987  33.4595006  13.9185017
  84.7849987  33.4595006  13.9185017  83.5879987  34.3865006  13.9185017
  82.6399987  32.9935006  16.3575017  83.5969987  32.9935006  16.3575017
  82.3999987  33.9205006  16.3575017  79.1279987  30.2455006  16.8575017
  80.0849987  30.2455006  16.8575017  78.8879987  31.1725006  16.8575017
  86.9709987  22.9425006  27.1595017  87.9279987  22.9425006  27.1595017
  86.7309987  23.8695006  27.1595017  87.7349987  22.5235006  18.2525017
  88.6919987  22.5235006  18.2525017  87.4949987  23.4505006  18.2525017
  85.3859987  34.6495006  17.0575017  86.3429987  34.6495006  17.0575017
  85.1459987  35.5765006  17.0575017  84.9619987  24.2675006  19.0745017
  85.9189987  24.2675006  19.0745017  84.7219987  25.1945006  19.0745017
  85.4599987  25.2455006  28.2805017  86.4169987  25.2455006  28.2805017
  85.2199987  26.1725006  28.2805017  85.8169987  21.3365006  19.9855017
  86.7739987  21.3365006  19.9855017  85.5769987  22.2635006  19.9855017
  81.4709987  22.4165006  16.6755017  82.4279987  22.4165006  16.6755017
  81.2309987  23.3435006  16.6755017  91.6999987  23.1635006  29.1115017
  92.6569987  23.1635006  29.1115017  91.4599987  24.0905006  29.1115017
  90.2839987  26.9485006  23.1515017  91.2409987  26.9485006  23.1515017
  90.0439987  27.8755006  23.1515017  79.7249987  32.8435006  15.7755017
  80.6819987  32.8435006  15.7755017  79.4849987  33.7705006  15.7755017
  78.0529987  25.5385006  14.8565017  79.0099987  25.5385006  14.8565017
  77.8129987  26.4655006  14.8565017  91.3399987  36.2225006  24.8135017
  92.2969987  36.2225006  24.8135017  91.0999987  37.1495006  24.8135017
  78.8659987  20.3285006  23.5865017  79.8229987  20.3285006  23.5865017
  78.6259987  21.2555006  23.5865017  85.8219987  35.3215006  14.0465017
  86.7789987  35.3215006  14.0465017  85.5819987  36.2485006  14.0465017
  88.2299987  34.1755006  31.3825017  89.1869987  34.1755006  31.3825017
  87.9899987  35.1025006  31.3825017  90.3919987  35.0865006  14.2365017
  91.3489987  35.0865006  14.2365017  90.1519987  36.0135006  14.2365017
  81.2959987  31.0305006  14.0975017  82.2529987  31.0305006  14.0975017
  81.0559987  31.9575006  14.0975017  86.7229987  32.1065006  13.8295017
  87.6799987  32.1065006  13.8295017  86.4829987  33.0335006  13.8295017
  89.3619987  30.5275006  28.8235017  90.3189987  30.5275006  28.8235017
  89.1219987  31.4545006  28.8235017  82.4929987  29.0305006  16.4605017
  83.4499987  29.0305006  16.4605017  82.2529987  29.9575006  16.4605017
  83.5599987  27.2505006  14.6795017  84.5169987  27.2505006  14.6795017
  83.3199987  28.1775006  14.6795017  86.8139987  29.4075006  32.0955017
  87.7709987  29.4075006  32.0955017  86.5739987  30.3345006  32.0955017
  92.9139987  29.5805006  14.1085017  93.8709987  29.5805006  14.1085017
  92.6739987  30.5075006  14.1085017  82.1049987  24.2415006  29.8585017
  83.0619987  24.2415006  29.8585017  81.8649987  25.1685006  29.8585017
  82.5549987  22.5955006  27.3675017  83.5119987  22.5955006  27.3675017
  82.3149987  23.5225006  27.3675017  88.4969987  25.8495006  32.6075017
  89.4539987  25.8495006  32.6075017  88.2569987  26.7765006  32.6075017
  89.8489987  28.6395006  30.7395017  90.8059987  28.6395006  30.7395017
  89.6089987  29.5665006  30.7395017  83.3489987  20.0455006  27.7815017
  84.3059987  20.0455006  27.7815017  83.1089987  20.9725006  27.7815017
  84.6199987  24.3375006  31.3725017  85.5769987  24.3375006  31.3725017
  84.3799987  25.2645006  31.3725017  87.3409987  23.5075006  30.4565017
  88.2979987  23.5075006  30.4565017  87.1009987  24.4345006  30.4565017
  88.9349987  22.1395006  32.3955017  89.8919987  22.1395006  32.3955017
  88.6949987  23.0665006  32.3955017  78.8029987  23.3945006  31.5285017
  79.7599987  23.3945006  31.5285017  78.5629987  24.3215006  31.5285017
  83.5599987  19.4125006  30.4705017  84.5169987  19.4125006  30.4705017
  83.3199987  20.3395006  30.4705017  83.9299987  21.0425006  32.5565017
  84.8869987  21.0425006  32.5565017  83.6899987  21.9695006  32.5565017
  76.9799987  32.5765006  15.1625017  77.9369987  32.5765006  15.1625017
  76.7399987  33.5035006  15.1625017  94.0849987  36.8465006  25.0045017
  95.0419987  36.8465006  25.0045017  93.8449987  37.7735006  25.0045017
  93.6659987  36.4415006  27.9525017  94.6229987  36.4415006  27.9525017
  93.4259987  37.3685006  27.9525017  92.1079987  32.1785006  32.6015017
  93.0649987  32.1785006  32.6015017  91.8679987  33.1055006  32.6015017
  93.4049987  30.4995006  18.0605017  94.3619987  30.4995006  18.0605017
  93.1649987  31.4265006  18.0605017  93.7519987  28.5965006  19.9345017
  94.7089987  28.5965006  19.9345017  93.5119987  29.5235006  19.9345017
  93.5489987  31.2765006  24.9065017  94.5059987  31.2765006  24.9065017
  93.3089987  32.2035006  24.9065017  92.0879987  34.1805006  27.1835017
  93.0449987  34.1805006  27.1835017  91.8479987  35.1075006  27.1835017
  94.0859987  28.3895006  16.3285017  95.0429987  28.3895006  16.3285017
  93.8459987  29.3165006  16.3285017  92.4539987  25.6335006  14.8465017
  93.4109987  25.6335006  14.8465017  92.2139987  26.5605006  14.8465017
  91.5799987  27.0495006  20.4965017  92.5369987  27.0495006  20.4965017
  91.3399987  27.9765006  20.4965017  92.4539987  29.0125006  30.1685017
  93.4109987  29.0125006  30.1685017  92.2139987  29.9395006  30.1685017
  93.9619987  26.9045006  30.8355017  94.9189987  26.9045006  30.8355017
  93.7219987  27.8315006  30.8355017  91.6919987  23.0895006  13.9765017
  92.6489987  23.0895006  13.9765017  91.4519987  24.0165006  13.9765017
  91.2649987  24.6275006  18.9245017  92.2219987  24.6275006  18.9245017
  91.0249987  25.5545006  18.9245017  91.8969987  25.1735006  24.4005017
  92.8539987  25.1735006  24.4005017  91.6569987  26.1005006  24.4005017
  91.9749987  25.9015006  27.1805017  92.9319987  25.9015006  27.1805017
  91.7349987  26.8285006  27.1805017  94.2339987  19.9325006  32.5315017
  95.1909987  19.9325006  32.5315017  93.9939987  20.8595006  32.5315017
  91.9369987  21.9115006  19.0025017  92.8939987  21.9115006  19.0025017
  91.6969987  22.8385006  19.0025017  77.4299987  22.7085006  23.5495017
  78.3869987  22.7085006  23.5495017  77.1899987  23.6355006  23.5495017
  75.6959987  25.6825006  24.5915017  76.6529987  25.6825006  24.5915017
  75.4559987  26.6095006  24.5915017  93.7669987  22.0455006  30.8825017
  94.7239987  22.0455006  30.8825017  93.5269987  22.9725006  30.8825017
  93.7619987  21.9485006  15.5575017  94.7189987  21.9485006  15.5575017
  93.5219987  22.8755006  15.5575017  76.0829987  21.9725006  18.6705017
  77.0399987  21.9725006  18.6705017  75.8429987  22.8995006  18.6705017
  90.7999987  36.9435006  20.6135017  91.7569987  36.9435006  20.6135017
  90.5599987  37.8705006  20.6135017  76.0279987  20.6315006  26.9775017
  76.9849987  20.6315006  26.9775017  75.7879987  21.5585006  26.9775017
  85.4849987  36.2325006  30.3045017  86.4419987  36.2325006  30.3045017
  85.2449987  37.1595006  30.3045017  87.7759987  37.5225006  29.6195017
  88.7329987  37.5225006  29.6195017  87.5359987  38.4495006  29.6195017
  92.7799987  20.1425006  28.7195017  93.7369987  20.1425006  28.7195017
  92.5399987  21.0695006  28.7195017  88.0759987  36.4145006  26.5905017
  89.0329987  36.4145006  26.5905017  87.8359987  37.3415006  26.5905017
  90.6399987  37.9735006  26.9055017  91.5969987  37.9735006  26.9055017
  90.3999987  38.9005006  26.9055017  86.1789987  21.5725006  23.0205017
  87.1359987  21.5725006  23.0205017  85.9389987  22.4995006  23.0205017
  91.3129987  19.6295006  23.1065017  92.2699987  19.6295006  23.1065017
  91.0729987  20.5565006  23.1065017  92.9879987  20.8365006  21.3915017
  93.9449987  20.8365006  21.3915017  92.7479987  21.7635006  21.3915017
  78.5419987  20.2035006  20.8565017  79.4989987  20.2035006  20.8565017
  78.3019987  21.1305006  20.8565017  77.3249987  19.9645006  16.6035017
  78.2819987  19.9645006  16.6035017  77.0849987  20.8915006  16.6035017
  83.0389987  20.1235006  20.6455017  83.9959987  20.1235006  20.6455017
  82.7989987  21.0505006  20.6455017  88.7079987  20.1455006  22.2835017
  89.6649987  20.1455006  22.2835017  88.4679987  21.0725006  22.2835017
  90.0039987  20.1805006  17.9665017  90.9609987  20.1805006  17.9665017
  89.7639987  21.1075006  17.9665017  79.1589987  21.9035006  15.0885017
  80.1159987  21.9035006  15.0885017  78.9189987  22.8305006  15.0885017
  84.1859987  22.1565006  17.5025017  85.1429987  22.1565006  17.5025017
  83.9459987  23.0835006  17.5025017  86.1029987  37.1425006  15.9685017
  87.0599987  37.1425006  15.9685017  85.8629987  38.0695006  15.9685017
  92.8069987  36.7195006  18.6575017  93.7639987  36.7195006  18.6575017
  92.5669987  37.6465006  18.6575017  78.4369987  20.7415006  30.3205017
  79.3939987  20.7415006  30.3205017  78.1969987  21.6685006  30.3205017
  80.4499987  20.1025006  31.9345017  81.4069987  20.1025006  31.9345017
  80.2099987  21.0295006  31.9345017  88.8429987  19.4155006  32.0915017
  89.7999987  19.4155006  32.0915017  88.6029987  20.3425006  32.0915017
  92.0469987  35.4565006  30.7475017  93.0039987  35.4565006  30.7475017
  91.8069987  36.3835006  30.7475017 106.4659987  29.3115006  20.7195017
 107.4229987  29.3115006  20.7195017 106.2259987  30.2385006  20.7195017
 105.2819987  28.6205006  24.2345017 106.2389987  28.6205006  24.2345017
 105.0419987  29.5475006  24.2345017  97.7119987  28.2605006  25.7935017
  98.6689987  28.2605006  25.7935017  97.4719987  29.1875006  25.7935017
  98.6329987  32.7045006  24.2975017  99.5899987  32.7045006  24.2975017
  98.3929987  33.6315006  24.2975017  94.9499987  26.0535006  19.8425017
  95.9069987  26.0535006  19.8425017  94.7099987  26.9805006  19.8425017
  95.9019987  28.6645006  22.2605017  96.8589987  28.6645006  22.2605017
  95.6619987  29.5915006  22.2605017 106.1839987  36.6595006  22.7215017
 107.1409987  36.6595006  22.7215017 105.9439987  37.5865006  22.7215017
 103.6949987  30.9965006  24.6535017 104.6519987  30.9965006  24.6535017
 103.4549987  31.9235006  24.6535017 106.2229987  25.2255006  24.9525017
 107.1799987  25.2255006  24.9525017 105.9829987  26.1525006  24.9525017
 100.0309987  23.5385006  22.2275017 100.9879987  23.5385006  22.2275017
  99.7909987  24.4655006  22.2275017 107.7199987  24.1285006  20.1975017
 108.6769987  24.1285006  20.1975017 107.4799987  25.0555006  20.1975017
  96.6169987  25.9285006  22.9855017  97.5739987  25.9285006  22.9855017
  96.3769987  26.8555006  22.9855017 101.7859987  27.5175006  22.2555017
 102.7429987  27.5175006  22.2555017 101.5459987  28.4445006  22.2555017
  98.9029987  22.4475006  26.2715017  99.8599987  22.4475006  26.2715017
  98.6629987  23.3745006  26.2715017 106.2339987  31.9445006  19.8125017
 107.1909987  31.9445006  19.8125017 105.9939987  32.8715006  19.8125017
 101.4369987  30.0995006  26.5265017 102.3939987  30.0995006  26.5265017
 101.1969987  31.0265006  26.5265017  98.4739987  24.2955006  24.2985017
  99.4309987  24.2955006  24.2985017  98.2339987  25.2225006  24.2985017
  99.8749987  32.0925006  27.3395017 100.8319987  32.0925006  27.3395017
  99.6349987  33.0195006  27.3395017  95.9499987  31.7305006  18.1225017
  96.9069987  31.7305006  18.1225017  95.7099987  32.6575006  18.1225017
 102.8779987  19.7805006  23.7365017 103.8349987  19.7805006  23.7365017
 102.6379987  20.7075006  23.7365017 107.4989987  34.9895006  21.0715017
 108.4559987  34.9895006  21.0715017 107.2589987  35.9165006  21.0715017
 105.1299987  28.5745006  18.2295017 106.0869987  28.5745006  18.2295017
 104.8899987  29.5015006  18.2295017 105.1939987  27.1065006  15.2515017
 106.1509987  27.1065006  15.2515017 104.9539987  28.0335006  15.2515017
 100.2339987  29.4655006  21.0675017 101.1909987  29.4655006  21.0675017
  99.9939987  30.3925006  21.0675017 101.5399987  32.8485006  23.7595017
 102.4969987  32.8485006  23.7595017 101.2999987  33.7755006  23.7595017
 100.5609987  28.1835006  24.7415017 101.5179987  28.1835006  24.7415017
 100.3209987  29.1105006  24.7415017 106.5699987  33.7655006  25.4685017
 107.5269987  33.7655006  25.4685017 106.3299987  34.6925006  25.4685017
 101.4869987  32.6185006  29.4315017 102.4439987  32.6185006  29.4315017
 101.2469987  33.5455006  29.4315017 107.4589987  27.9625006  16.8555017
 108.4159987  27.9625006  16.8555017 107.2189987  28.8895006  16.8555017
  98.4209987  28.7835006  28.6085017  99.3779987  28.7835006  28.6085017
  98.1809987  29.7105006  28.6085017 105.0819987  34.7015006  20.2945017
 106.0389987  34.7015006  20.2945017 104.8419987  35.6285006  20.2945017
  99.7259987  34.6675006  30.1855017 100.6829987  34.6675006  30.1855017
  99.4859987  35.5945006  30.1855017  99.3989987  28.4755006  18.4485017
 100.3559987  28.4755006  18.4485017  99.1589987  29.4025006  18.4485017
  95.2669987  30.9015006  27.5765017  96.2239987  30.9015006  27.5765017
  95.0269987  31.8285006  27.5765017  95.0349987  33.6305006  24.3575017
  95.9919987  33.6305006  24.3575017  94.7949987  34.5575006  24.3575017
 104.2649987  33.8995006  28.9245017 105.2219987  33.8995006  28.9245017
 104.0249987  34.8265006  28.9245017 104.6649987  37.6315006  18.7205017
 105.6219987  37.6315006  18.7205017 104.4249987  38.5585006  18.7205017
  98.3019987  36.4935006  20.5255017  99.2589987  36.4935006  20.5255017
  98.0619987  37.4205006  20.5255017 107.7399987  36.8155006  15.6815017
 108.6969987  36.8155006  15.6815017 107.4999987  37.7425006  15.6815017
 107.2489987  36.5925006  18.3205017 108.2059987  36.5925006  18.3205017
 107.0089987  37.5195006  18.3205017  97.5439987  32.2145006  28.5215017
  98.5009987  32.2145006  28.5215017  97.3039987  33.1415006  28.5215017
 100.2179987  20.6755006  24.4905017 101.1749987  20.6755006  24.4905017
  99.9779987  21.6025006  24.4905017 104.8999987  20.3505006  27.8635017
 105.8569987  20.3505006  27.8635017 104.6599987  21.2775006  27.8635017
 104.5249987  22.9215006  15.1725017 105.4819987  22.9215006  15.1725017
 104.2849987  23.8485006  15.1725017 100.3059987  25.6455006  25.6955017
 101.2629987  25.6455006  25.6955017 100.0659987  26.5725006  25.6955017
 100.3029987  25.7695006  20.5925017 101.2599987  25.7695006  20.5925017
 100.0629987  26.6965006  20.5925017 105.7879987  26.2805006  19.3695017
 106.7449987  26.2805006  19.3695017 105.5479987  27.2075006  19.3695017
 104.8989987  26.5075006  30.8435017 105.8559987  26.5075006  30.8435017
 104.6589987  27.4345006  30.8435017 106.7849987  25.7375006  22.1935017
 107.7419987  25.7375006  22.1935017 106.5449987  26.6645006  22.1935017
  97.9679987  25.9295006  27.4315017  98.9249987  25.9295006  27.4315017
  97.7279987  26.8565006  27.4315017 101.3479987  23.3145006  14.2675017
 102.3049987  23.3145006  14.2675017 101.1079987  24.2415006  14.2675017
  94.5889987  22.9905006  21.3905017  95.5459987  22.9905006  21.3905017
  94.3489987  23.9175006  21.3905017  95.8699987  23.7435006  16.7275017
  96.8269987  23.7435006  16.7275017  95.6299987  24.6705006  16.7275017
 106.0439987  27.3565006  26.8045017 107.0009987  27.3565006  26.8045017
 105.8039987  28.2835006  26.8045017 102.8469987  23.3075006  21.5965017
 103.8039987  23.3075006  21.5965017 102.6069987  24.2345006  21.5965017
  97.6559987  24.8305006  20.5075017  98.6129987  24.8305006  20.5075017
  97.4159987  25.7575006  20.5075017 101.3209987  24.8985006  18.0775017
 102.2779987  24.8985006  18.0775017 101.0809987  25.8255006  18.0775017
 107.2399987  22.5055006  24.9015017 108.1969987  22.5055006  24.9015017
 106.9999987  23.4325006  24.9015017 100.0169987  26.0905006  15.6725017
 100.9739987  26.0905006  15.6725017  99.7769987  27.0175006  15.6725017
  98.1329987  30.6725006  30.7365017  99.0899987  30.6725006  30.7365017
  97.8929987  31.5995006  30.7365017 104.0949987  26.0755006  23.4525017
 105.0519987  26.0755006  23.4525017 103.8549987  27.0025006  23.4525017
  99.1459987  22.2285006  19.9275017 100.1029987  22.2285006  19.9275017
  98.9059987  23.1555006  19.9275017 102.7579987  24.4195006  25.9095017
 103.7149987  24.4195006  25.9095017 102.5179987  25.3465006  25.9095017
 103.3659987  30.6505006  17.5975017 104.3229987  30.6505006  17.5975017
 103.1259987  31.5775006  17.5975017 107.1549987  23.4815006  15.7895017
 108.1119987  23.4815006  15.7895017 106.9149987  24.4085006  15.7895017
 104.8509987  30.8745006  28.8375017 105.8079987  30.8745006  28.8375017
 104.6109987  31.8015006  28.8375017   0.1189987  25.4665006  17.4885017
   1.0759987  25.4665006  17.4885017  -0.1210013  26.3935006  17.4885017
  98.4869987  30.0315006  23.4255017  99.4439987  30.0315006  23.4255017
  98.2469987  30.9585006  23.4255017 105.4569987  32.1005006  16.6195017
 106.4139987  32.1005006  16.6195017 105.2169987  33.0275006  16.6195017
  95.4589987  28.4335006  28.6765017  96.4159987  28.4335006  28.6765017
  95.2189987  29.3605006  28.6765017 102.4729987  27.9875006  30.8625017
 103.4299987  27.9875006  30.8625017 102.2329987  28.9145006  30.8625017
 107.0589987  33.1025006  28.9105017 108.0159987  33.1025006  28.9105017
 106.8189987  34.0295006  28.9105017 100.8359987  33.4805006  20.7865017
 101.7929987  33.4805006  20.7865017 100.5959987  34.4075006  20.7865017
  96.5939987  28.3465006  15.3125017  97.5509987  28.3465006  15.3125017
  96.3539987  29.2735006  15.3125017 102.2509987  31.1455006  20.3135017
 103.2079987  31.1455006  20.3135017 102.0109987  32.0725006  20.3135017
 102.7179987  35.3165006  26.6955017 103.6749987  35.3165006  26.6955017
 102.4779987  36.2435006  26.6955017 100.9359987  36.1495006  19.8535017
 101.8929987  36.1495006  19.8535017 100.6959987  37.0765006  19.8535017
 106.3059987  31.3525006  26.3785017 107.2629987  31.3525006  26.3785017
 106.0659987  32.2795006  26.3785017  97.1119987  23.1705006  28.2215017
  98.0689987  23.1705006  28.2215017  96.8719987  24.0975006  28.2215017
  96.7299987  34.9695006  26.6515017  97.6869987  34.9695006  26.6515017
  96.4899987  35.8965006  26.6515017 102.6639987  33.4765006  13.8975017
 103.6209987  33.4765006  13.8975017 102.4239987  34.4035006  13.8975017
 101.4919987  33.0045006  16.3605017 102.4489987  33.0045006  16.3605017
 101.2519987  33.9315006  16.3605017  97.9869987  30.2595006  16.8285017
  98.9439987  30.2595006  16.8285017  97.7469987  31.1865006  16.8285017
 105.8509987  22.9255006  27.1685017 106.8079987  22.9255006  27.1685017
 105.6109987  23.8525006  27.1685017 106.3259987  22.7445006  18.2275017
 107.2829987  22.7445006  18.2275017 106.0859987  23.6715006  18.2275017
 104.2859987  34.6705006  17.0855017 105.2429987  34.6705006  17.0855017
 104.0459987  35.5975006  17.0855017 103.7959987  24.2945006  19.0745017
 104.7529987  24.2945006  19.0745017 103.5559987  25.2215006  19.0745017
 104.3359987  25.2465006  28.2765017 105.2929987  25.2465006  28.2765017
 104.0959987  26.1735006  28.2765017 104.6999987  21.3355006  19.9855017
 105.6569987  21.3355006  19.9855017 104.4599987  22.2625006  19.9855017
 101.6349987  35.7095006  17.0835017 102.5919987  35.7095006  17.0835017
 101.3949987  36.6365006  17.0835017 100.3289987  22.4195006  16.6785017
 101.2859987  22.4195006  16.6785017 100.0889987  23.3465006  16.6785017
  98.5649987  32.8695006  15.7335017  99.5219987  32.8695006  15.7335017
  98.3249987  33.7965006  15.7335017  96.9109987  25.5345006  14.8425017
  97.8679987  25.5345006  14.8425017  96.6709987  26.4615006  14.8425017
  97.7249987  20.3285006  23.5875017  98.6819987  20.3285006  23.5875017
  97.4849987  21.2555006  23.5875017  96.6749987  34.2455006  19.7355017
  97.6319987  34.2455006  19.7355017  96.4349987  35.1725006  19.7355017
  95.8989987  36.8905006  31.0395017  96.8559987  36.8905006  31.0395017
  95.6589987  37.8175006  31.0395017 100.5529987  35.8165006  32.6485017
 101.5099987  35.8165006  32.6485017 100.3129987  36.7435006  32.6485017
 104.7059987  35.3145006  14.0335017 105.6629987  35.3145006  14.0335017
 104.4659987  36.2415006  14.0335017 107.1629987  34.1885006  31.3445017
 108.1199987  34.1885006  31.3445017 106.9229987  35.1155006  31.3445017
  95.8109987  30.6665006  32.0435017  96.7679987  30.6665006  32.0435017
  95.5709987  31.5935006  32.0435017 100.1399987  31.0195006  14.0715017
 101.0969987  31.0195006  14.0715017  99.8999987  31.9465006  14.0715017
 102.4969987  30.6565006  31.4245017 103.4539987  30.6565006  31.4245017
 102.2569987  31.5835006  31.4245017 105.5969987  32.0965006  13.8395017
 106.5539987  32.0965006  13.8395017 105.3569987  33.0235006  13.8395017
  96.7109987  27.9025006  31.4195017  97.6679987  27.9025006  31.4195017
  96.4709987  28.8295006  31.4195017 101.3599987  29.0285006  16.4535017
 102.3169987  29.0285006  16.4535017 101.1199987  29.9555006  16.4535017
 100.6189987  26.8545006  28.7725017 101.5759987  26.8545006  28.7725017
 100.3789987  27.7815006  28.7725017 102.4129987  27.2465006  14.6795017
 103.3699987  27.2465006  14.6795017 102.1729987  28.1735006  14.6795017
 105.6759987  29.3955006  32.1215017 106.6329987  29.3955006  32.1215017
 105.4359987  30.3225006  32.1215017 101.0099987  24.2275006  29.8425017
 101.9669987  24.2275006  29.8425017 100.7699987  25.1545006  29.8425017
 101.4079987  22.6025006  27.3745017 102.3649987  22.6025006  27.3745017
 101.1679987  23.5295006  27.3745017 102.9789987  28.0755006  27.6215017
 103.9359987  28.0755006  27.6215017 102.7389987  29.0025006  27.6215017
 107.3909987  25.8725006  32.6995017 108.3479987  25.8725006  32.6995017
 107.1509987  26.7995006  32.6995017  99.4639987  25.4695006  31.7605017
 100.4209987  25.4695006  31.7605017  99.2239987  26.3965006  31.7605017
 102.2149987  20.0495006  27.7815017 103.1719987  20.0495006  27.7815017
 101.9749987  20.9765006  27.7815017 103.4749987  24.3805006  31.3795017
 104.4319987  24.3805006  31.3795017 103.2349987  25.3075006  31.3795017
 106.1369987  23.4815006  30.4345017 107.0939987  23.4815006  30.4345017
 105.8969987  24.4085006  30.4345017 107.7729987  22.1795006  32.3745017
 108.7299987  22.1795006  32.3745017 107.5329987  23.1065006  32.3745017
  97.5659987  23.3965006  31.4895017  98.5229987  23.3965006  31.4895017
  97.3259987  24.3235006  31.4895017 102.4119987  19.4125006  30.4715017
 103.3689987  19.4125006  30.4715017 102.1719987  20.3395006  30.4715017
 102.7809987  21.0425006  32.5575017 103.7379987  21.0425006  32.5575017
 102.5409987  21.9695006  32.5575017 102.2629987  37.9505006  15.7405017
 103.2199987  37.9505006  15.7405017 102.0229987  38.8775006  15.7405017
  95.8229987  32.5495006  15.2085017  96.7799987  32.5495006  15.2085017
  95.5829987  33.4765006  15.2085017  94.5769987  37.9335006  20.2005017
  95.5339987  37.9335006  20.2005017  94.3369987  38.8605006  20.2005017
  95.4069987  36.0505006  22.0545017  96.3639987  36.0505006  22.0545017
  95.1669987  36.9775006  22.0545017  95.4439987  29.1555006  24.6635017
  96.4009987  29.1555006  24.6635017  95.2039987  30.0825006  24.6635017
  95.0739987  24.4265006  30.6925017  96.0309987  24.4265006  30.6925017
  94.8339987  25.3535006  30.6925017  96.2799987  22.7185006  23.5495017
  97.2369987  22.7185006  23.5495017  96.0399987  23.6455006  23.5495017
  94.5689987  25.7025006  24.6155017  95.5259987  25.7025006  24.6155017
  94.3289987  26.6295006  24.6155017  94.9339987  21.9825006  18.6735017
  95.8909987  21.9825006  18.6735017  94.6939987  22.9095006  18.6735017
  94.8849987  20.6555006  26.9775017  95.8419987  20.6555006  26.9775017
  94.6449987  21.5825006  26.9775017  97.1059987  33.8355006  31.1395017
  98.0629987  33.8355006  31.1395017  96.8659987  34.7625006  31.1395017
 100.0179987  34.8355006  27.4115017 100.9749987  34.8355006  27.4115017
  99.7779987  35.7625006  27.4115017 104.3479987  36.2615006  30.3415017
 105.3049987  36.2615006  30.3415017 104.1079987  37.1885006  30.3415017
 106.6969987  37.5395006  29.5645017 107.6539987  37.5395006  29.5645017
 106.4569987  38.4665006  29.5645017  97.4449987  38.0795006  27.4185017
  98.4019987  38.0795006  27.4185017  97.2049987  39.0065006  27.4185017
  99.9139987  37.6635006  26.4835017 100.8709987  37.6635006  26.4835017
  99.6739987  38.5905006  26.4835017 104.5649987  37.5605006  25.6755017
 105.5219987  37.5605006  25.6755017 104.3249987  38.4875006  25.6755017
 106.9249987  36.6865006  26.2665017 107.8819987  36.6865006  26.2665017
 106.6849987  37.6135006  26.2665017  96.8759987  36.7295006  24.3485017
  97.8329987  36.7295006  24.3485017  96.6359987  37.6565006  24.3485017
  98.9699987  35.4415006  23.0015017  99.9269987  35.4415006  23.0015017
  98.7299987  36.3685006  23.0015017 101.5219987  35.9165006  23.8685017
 102.4789987  35.9165006  23.8685017 101.2819987  36.8435006  23.8685017
 105.0119987  21.5635006  22.9985017 105.9689987  21.5635006  22.9985017
 104.7719987  22.4905006  22.9985017  97.3949987  20.2055006  20.8545017
  98.3519987  20.2055006  20.8545017  97.1549987  21.1325006  20.8545017
  96.1839987  19.9605006  16.6015017  97.1409987  19.9605006  16.6015017
  95.9439987  20.8875006  16.6015017 101.9029987  20.1075006  20.6435017
 102.8599987  20.1075006  20.6435017 101.6629987  21.0345006  20.6435017
 107.5019987  20.0525006  22.4405017 108.4589987  20.0525006  22.4405017
 107.2619987  20.9795006  22.4405017  96.0959987  35.9115006  17.5875017
  97.0529987  35.9115006  17.5875017  95.8559987  36.8385006  17.5875017
  98.0149987  21.9025006  15.0885017  98.9719987  21.9025006  15.0885017
  97.7749987  22.8295006  15.0885017 103.0459987  22.1535006  17.5035017
 104.0029987  22.1535006  17.5035017 102.8059987  23.0805006  17.5035017
 104.9369987  37.1955006  15.9385017 105.8939987  37.1955006  15.9385017
 104.6969987  38.1225006  15.9385017  97.2929987  20.7375006  30.3205017
  98.2499987  20.7375006  30.3205017  97.0529987  21.6645006  30.3205017
  99.2989987  20.1135006  31.9535017 100.2559987  20.1135006  31.9535017
  99.0589987  21.0405006  31.9535017  97.8909987  36.8825006  14.5505017
  98.8479987  36.8825006  14.5505017  97.6509987  37.8095006  14.5505017
  -0.0900013  19.4755006  32.1225017   0.8669987  19.4755006  32.1225017
  -0.3300013  20.4025006  32.1225017  12.2009987  48.1935006  20.7395017
  13.1579987  48.1935006  20.7395017  11.9609987  49.1205006  20.7395017
  11.0499987  47.4705006  24.2245017  12.0069987  47.4705006  24.2245017
  10.8099987  48.3975006  24.2245017   3.4769987  47.0915006  25.7545017
   4.4339987  47.0915006  25.7545017   3.2369987  48.0185006  25.7545017
  14.7719987  50.4025006  22.5005017  15.7289987  50.4025006  22.5005017
  14.5319987  51.3295006  22.5005017   4.3399987  51.5615006  24.3055017
   5.2969987  51.5615006  24.3055017   4.0999987  52.4885006  24.3055017
   1.0659987  45.2385006  19.7095017   2.0229987  45.2385006  19.7095017
   0.8259987  46.1655006  19.7095017   1.6879987  47.3285006  21.8885017
   2.6449987  47.3285006  21.8885017   1.4479987  48.2555006  21.8885017
  11.8729987  55.5425006  22.7345017  12.8299987  55.5425006  22.7345017
  11.6329987  56.4695006  22.7345017   9.4479987  49.8675006  24.6665017
  10.4049987  49.8675006  24.6665017   9.2079987  50.7945006  24.6665017
  18.1389987  41.4765006  25.4405017  19.0959987  41.4765006  25.4405017
  17.8989987  42.4035006  25.4405017  12.4119987  44.3215006  24.9465017
  13.3689987  44.3215006  24.9465017  12.1719987  45.2485006  24.9465017
   5.7349987  42.4005006  22.2145017   6.6919987  42.4005006  22.2145017
   5.4949987  43.3275006  22.2145017  13.4739987  42.4855006  20.5805017
  14.4309987  42.4855006  20.5805017  13.2339987  43.4125006  20.5805017
   2.5409987  44.8595006  22.8655017   3.4979987  44.8595006  22.8655017
   2.3009987  45.7865006  22.8655017   7.5109987  46.3715006  22.2465017
   8.4679987  46.3715006  22.2465017   7.2709987  47.2985006  22.2465017
  18.5199987  42.9205006  27.6865017  19.4769987  42.9205006  27.6865017
  18.2799987  43.8475006  27.6865017   4.6299987  41.3105006  26.2805017
   5.5869987  41.3105006  26.2805017   4.3899987  42.2375006  26.2805017
  11.9369987  50.7955006  19.8145017  12.8939987  50.7955006  19.8145017
  11.6969987  51.7225006  19.8145017   7.1539987  48.9535006  26.5255017
   8.1109987  48.9535006  26.5255017   6.9139987  49.8805006  26.5255017
  15.2959987  41.8165006  22.5685017  16.2529987  41.8165006  22.5685017
  15.0559987  42.7435006  22.5685017   4.2029987  43.1445006  24.2975017
   5.1599987  43.1445006  24.2975017   3.9629987  44.0715006  24.2975017
   5.5919987  50.9415006  27.3295017   6.5489987  50.9415006  27.3295017
   5.3519987  51.8685006  27.3295017   1.7049987  50.5965006  18.0995017
   2.6619987  50.5965006  18.0995017   1.4649987  51.5235006  18.0995017
  15.2919987  52.2335006  24.8675017  16.2489987  52.2335006  24.8675017
  15.0519987  53.1605006  24.8675017  15.6149987  40.4775006  26.2535017
  16.5719987  40.4775006  26.2535017  15.3749987  41.4045006  26.2535017
   8.5899987  38.6345006  23.7275017   9.5469987  38.6345006  23.7275017
   8.3499987  39.5615006  23.7275017  13.5499987  54.0225006  21.4745017
  14.5069987  54.0225006  21.4745017  13.3099987  54.9495006  21.4745017
  14.7479987  51.9465006  19.9825017  15.7049987  51.9465006  19.9825017
  14.5079987  52.8735006  19.9825017  16.3369987  50.5295006  28.4595017
  17.2939987  50.5295006  28.4595017  16.0969987  51.4565006  28.4595017
  10.8729987  47.4375006  18.2485017  11.8299987  47.4375006  18.2485017
  10.6329987  48.3645006  18.2485017  10.9359987  45.9685006  15.2555017
  11.8929987  45.9685006  15.2555017  10.6959987  46.8955006  15.2555017
  18.2909987  46.8755006  26.5275017  19.2479987  46.8755006  26.5275017
  18.0509987  47.8025006  26.5275017  14.3119987  47.6495006  19.1625017
  15.2689987  47.6495006  19.1625017  14.0719987  48.5765006  19.1625017
  14.2149987  45.8225006  28.3105017  15.1719987  45.8225006  28.3105017
  13.9749987  46.7495006  28.3105017   5.9519987  48.3205006  21.0765017
   6.9089987  48.3205006  21.0765017   5.7119987  49.2475006  21.0765017
   7.2589987  51.7045006  23.7565017   8.2159987  51.7045006  23.7565017
   7.0189987  52.6315006  23.7565017   6.2839987  47.0535006  24.7285017
   7.2409987  47.0535006  24.7285017   6.0439987  47.9805006  24.7285017
  12.6469987  52.6135006  25.4335017  13.6039987  52.6135006  25.4335017
  12.4069987  53.5405006  25.4335017   7.2049987  51.4715006  29.4315017
   8.1619987  51.4715006  29.4315017   6.9649987  52.3985006  29.4315017
  13.1769987  46.8355006  16.8395017  14.1339987  46.8355006  16.8395017
  12.9369987  47.7625006  16.8395017   4.1249987  47.6435006  28.6215017
   5.0819987  47.6435006  28.6215017   3.8849987  48.5705006  28.6215017
  10.8989987  53.5625006  20.3015017  11.8559987  53.5625006  20.3015017
  10.6589987  54.4895006  20.3015017   5.4409987  53.5215006  30.1865017
   6.3979987  53.5215006  30.1865017   5.2009987  54.4485006  30.1865017
  16.9029987  38.5695006  16.7095017  17.8599987  38.5695006  16.7095017
  16.6629987  39.4965006  16.7095017   4.9259987  47.3455006  18.6935017
   5.8829987  47.3455006  18.6935017   4.6859987  48.2725006  18.6935017
  18.0269987  52.9265006  15.0745017  18.9839987  52.9265006  15.0745017
  17.7869987  53.8535006  15.0745017   1.1249987  49.7295006  27.5095017
   2.0819987  49.7295006  27.5095017   0.8849987  50.6565006  27.5095017
   1.0109987  52.6245006  24.0865017   1.9679987  52.6245006  24.0865017
   0.7709987  53.5515006  24.0865017   9.9459987  52.7355006  28.9135017
  10.9029987  52.7355006  28.9135017   9.7059987  53.6625006  28.9135017
  10.3789987  56.4835006  18.7175017  11.3359987  56.4835006  18.7175017
  10.1389987  57.4105006  18.7175017   4.0209987  55.3435006  20.5085017
   4.9779987  55.3435006  20.5085017   3.7809987  56.2705006  20.5085017
  13.4449987  55.6905006  15.7025017  14.4019987  55.6905006  15.7025017
  13.2049987  56.6175006  15.7025017  13.1339987  55.6165006  18.4635017
  14.0909987  55.6165006  18.4635017  12.8939987  56.5435006  18.4635017
  16.1029987  44.6545006  30.5495017  17.0599987  44.6545006  30.5495017
  15.8629987  45.5815006  30.5495017   3.2619987  51.1005006  28.5395017
   4.2189987  51.1005006  28.5395017   3.0219987  52.0275006  28.5395017
   5.9369987  39.5415006  24.4795017   6.8939987  39.5415006  24.4795017
   5.6969987  40.4685006  24.4795017  10.5829987  39.2215006  27.8545017
  11.5399987  39.2215006  27.8545017  10.3429987  40.1485006  27.8545017
  13.8749987  43.0245006  28.8285017  14.8319987  43.0245006  28.8285017
  13.6349987  43.9515006  28.8285017  14.6339987  47.8675006  14.6005017
  15.5909987  47.8675006  14.6005017  14.3939987  48.7945006  14.6005017
  10.2349987  41.7805006  15.1515017  11.1919987  41.7805006  15.1515017
   9.9949987  42.7075006  15.1515017   6.0449987  44.5035006  25.7015017
   7.0019987  44.5035006  25.7015017   5.8049987  45.4305006  25.7015017
   5.9849987  44.6605006  20.5805017   6.9419987  44.6605006  20.5805017
   5.7449987  45.5875006  20.5805017  11.5249987  45.1315006  19.3695017
  12.4819987  45.1315006  19.3695017  11.2849987  46.0585006  19.3695017
  10.5989987  45.3375006  30.8105017  11.5559987  45.3375006  30.8105017
  10.3589987  46.2645006  30.8105017  12.5419987  44.6135006  22.1915017
  13.4989987  44.6135006  22.1915017  12.3019987  45.5405006  22.1915017
   3.7039987  44.7785006  27.4405017   4.6609987  44.7785006  27.4405017
   3.4639987  45.7055006  27.4405017   7.0789987  42.1685006  14.2625017
   8.0359987  42.1685006  14.2625017   6.8389987  43.0955006  14.2625017
   0.4279987  41.2025006  21.7115017   1.3849987  41.2025006  21.7115017
   0.1879987  42.1295006  21.7115017   1.8009987  42.6115006  16.8505017
   2.7579987  42.6115006  16.8505017   1.5609987  43.5385006  16.8505017
  11.7429987  46.2235006  26.7745017  12.6999987  46.2235006  26.7745017
  11.5029987  47.1505006  26.7745017   8.5599987  42.1715006  21.6015017
   9.5169987  42.1715006  21.6015017   8.3199987  43.0985006  21.6015017
   3.3929987  43.7245006  20.4535017   4.3499987  43.7245006  20.4535017
   3.1529987  44.6515006  20.4535017   7.0219987  43.7745006  18.0935017
   7.9789987  43.7745006  18.0935017   6.7819987  44.7015006  18.0935017
  12.9449987  41.3195006  24.8395017  13.9019987  41.3195006  24.8395017
  12.7049987  42.2465006  24.8395017   5.7079987  44.9665006  15.6755017
   6.6649987  44.9665006  15.6755017   5.4679987  45.8935006  15.6755017
  16.1929987  57.0425006  31.1685017  17.1499987  57.0425006  31.1685017
  15.9529987  57.9695006  31.1685017   3.8559987  49.5055006  30.7495017
   4.8129987  49.5055006  30.7495017   3.6159987  50.4325006  30.7495017
   9.8309987  44.9325006  23.4805017  10.7879987  44.9325006  23.4805017
   9.5909987  45.8595006  23.4805017   4.8559987  41.0905006  19.9135017
   5.8129987  41.0905006  19.9135017   4.6159987  42.0175006  19.9135017
   8.4959987  43.2755006  25.9095017   9.4529987  43.2755006  25.9095017
   8.2559987  44.2025006  25.9095017   9.0799987  49.5035006  17.5995017
  10.0369987  49.5035006  17.5995017   8.8399987  50.4305006  17.5995017
  16.2389987  48.6875006  26.4025017  17.1959987  48.6875006  26.4025017
  15.9989987  49.6145006  26.4025017  12.9189987  42.3155006  15.7825017
  13.8759987  42.3155006  15.7825017  12.6789987  43.2425006  15.7825017
  10.5669987  49.7415006  28.8425017  11.5239987  49.7415006  28.8425017
  10.3269987  50.6685006  28.8425017  13.6489987  44.2175006  17.4255017
  14.6059987  44.2175006  17.4255017  13.4089987  45.1445006  17.4255017
   4.1839987  48.8755006  23.4015017   5.1409987  48.8755006  23.4015017
   3.9439987  49.8025006  23.4015017  11.1849987  50.9685006  16.6315017
  12.1419987  50.9685006  16.6315017  10.9449987  51.8955006  16.6315017
   1.1629987  47.2945006  28.6805017   2.1199987  47.2945006  28.6805017
   0.9229987  48.2215006  28.6805017   8.1889987  46.8465006  30.8635017
   9.1459987  46.8465006  30.8635017   7.9489987  47.7735006  30.8635017
  12.8529987  52.1735006  28.7855017  13.8099987  52.1735006  28.7855017
  12.6129987  53.1005006  28.7855017  18.5519987  44.3735006  17.1805017
  19.5089987  44.3735006  17.1805017  18.3119987  45.3005006  17.1805017
  18.4899987  50.1165006  29.9925017  19.4469987  50.1165006  29.9925017
  18.2499987  51.0435006  29.9925017  16.8169987  53.2005006  17.5925017
  17.7739987  53.2005006  17.5925017  16.5769987  54.1275006  17.5925017
  14.0289987  48.0285006  24.6605017  14.9859987  48.0285006  24.6605017
  13.7889987  48.9555006  24.6605017   6.5689987  52.3305006  20.7855017
   7.5259987  52.3305006  20.7855017   6.3289987  53.2575006  20.7855017
   2.2869987  47.1755006  15.3835017   3.2439987  47.1755006  15.3835017
   2.0469987  48.1025006  15.3835017   7.9829987  50.0015006  20.3115017
   8.9399987  50.0015006  20.3115017   7.7429987  50.9285006  20.3115017
   8.4319987  54.1815006  26.7035017   9.3889987  54.1815006  26.7035017
   8.1919987  55.1085006  26.7035017   6.6629987  55.0015006  19.8475017
   7.6199987  55.0015006  19.8475017   6.4229987  55.9285006  19.8475017
  11.9769987  50.2095006  26.3445017  12.9339987  50.2095006  26.3445017
  11.7369987  51.1365006  26.3445017  14.2719987  51.2455006  15.4265017
  15.2289987  51.2455006  15.4265017  14.0319987  52.1725006  15.4265017
  14.7249987  54.7805006  28.8355017  15.6819987  54.7805006  28.8355017
  14.4849987  55.7075006  28.8355017  18.7379987  55.6195006  15.6565017
  19.6949987  55.6195006  15.6565017  18.4979987  56.5465006  15.6565017
   2.8069987  42.0275006  28.2255017   3.7639987  42.0275006  28.2255017
   2.5669987  42.9545006  28.2255017  15.0679987  49.8885006  17.6605017
  16.0249987  49.8885006  17.6605017  14.8279987  50.8155006  17.6605017
   2.4749987  53.8295006  26.6335017   3.4319987  53.8295006  26.6335017
   2.2349987  54.7565006  26.6335017   8.3909987  52.3295006  13.9045017
   9.3479987  52.3295006  13.9045017   8.1509987  53.2565006  13.9045017
   7.2229987  51.8615006  16.3585017   8.1799987  51.8615006  16.3585017
   6.9829987  52.7885006  16.3585017   3.6919987  49.0885006  16.8415017
   4.6489987  49.0885006  16.8415017   3.4519987  50.0155006  16.8415017
  11.5329987  41.8055006  27.1765017  12.4899987  41.8055006  27.1765017
  11.2929987  42.7325006  27.1765017  12.3149987  41.3785006  18.2505017
  13.2719987  41.3785006  18.2505017  12.0749987  42.3055006  18.2505017
   9.9969987  53.5315006  17.0795017  10.9539987  53.5315006  17.0795017
   9.7569987  54.4585006  17.0795017   9.5309987  43.1335006  19.0755017
  10.4879987  43.1335006  19.0755017   9.2909987  44.0605006  19.0755017
  10.0619987  44.1325006  28.2775017  11.0189987  44.1325006  28.2775017
   9.8219987  45.0595006  28.2775017  10.3919987  40.1905006  19.9785017
  11.3489987  40.1905006  19.9785017  10.1519987  41.1175006  19.9785017
   7.3789987  54.5675006  17.0895017   8.3359987  54.5675006  17.0895017
   7.1389987  55.4945006  17.0895017   6.0499987  41.2845006  16.6785017
   7.0069987  41.2845006  16.6785017   5.8099987  42.2115006  16.6785017
  16.2779987  42.0075006  29.1075017  17.2349987  42.0075006  29.1075017
  16.0379987  42.9345006  29.1075017  14.8689987  45.8165006  23.1245017
  15.8259987  45.8165006  23.1245017  14.6289987  46.7435006  23.1245017
   4.2909987  51.7295006  15.7245017   5.2479987  51.7295006  15.7245017
   4.0509987  52.6565006  15.7245017   2.5799987  44.4055006  14.9075017
   3.5369987  44.4055006  14.9075017   2.3399987  45.3325006  14.9075017
  15.9359987  55.0645006  24.8135017  16.8929987  55.0645006  24.8135017
  15.6959987  55.9915006  24.8135017   3.4669987  39.1815006  23.5725017
   4.4239987  39.1815006  23.5725017   3.2269987  40.1085006  23.5725017
   2.3869987  53.1135006  19.7465017   3.3439987  53.1135006  19.7465017
   2.1469987  54.0405006  19.7465017   1.7139987  55.6985006  30.9675017
   2.6709987  55.6985006  30.9675017   1.4739987  56.6255006  30.9675017
   6.2699987  54.6615006  32.6495017   7.2269987  54.6615006  32.6495017
   6.0299987  55.5885006  32.6495017  10.3969987  54.1845006  14.0385017
  11.3539987  54.1845006  14.0385017  10.1569987  55.1115006  14.0385017
  12.7919987  53.0535006  31.3875017  13.7489987  53.0535006  31.3875017
  12.5519987  53.9805006  31.3875017  14.9659987  53.9455006  14.2405017
  15.9229987  53.9455006  14.2405017  14.7259987  54.8725006  14.2405017
   1.5079987  49.5355006  32.0235017   2.4649987  49.5355006  32.0235017
   1.2679987  50.4625006  32.0235017   5.8669987  49.8765006  14.0715017
   6.8239987  49.8765006  14.0715017   5.6269987  50.8035006  14.0715017
   8.2309987  49.5145006  31.4175017   9.1879987  49.5145006  31.4175017
   7.9909987  50.4415006  31.4175017  11.2829987  50.9685006  13.8305017
  12.2399987  50.9685006  13.8305017  11.0429987  51.8955006  13.8305017
  13.9229987  49.3775006  28.8005017  14.8799987  49.3775006  28.8005017
  13.6829987  50.3045006  28.8005017   2.3659987  46.7375006  31.4005017
   3.3229987  46.7375006  31.4005017   2.1259987  47.6645006  31.4005017
   7.0619987  47.8845006  16.4565017   8.0189987  47.8845006  16.4565017
   6.8219987  48.8115006  16.4565017   6.3379987  45.7105006  28.7735017
   7.2949987  45.7105006  28.7735017   6.0979987  46.6375006  28.7735017
   8.1329987  46.1055006  14.6795017   9.0899987  46.1055006  14.6795017
   7.8929987  47.0325006  14.6795017  11.3899987  48.2515006  32.0855017
  12.3469987  48.2515006  32.0855017  11.1499987  49.1785006  32.0855017
  17.4959987  48.4405006  14.1245017  18.4529987  48.4405006  14.1245017
  17.2559987  49.3675006  14.1245017   6.7319987  43.0845006  29.8415017
   7.6889987  43.0845006  29.8415017   6.4919987  44.0115006  29.8415017
   7.1309987  41.4615006  27.3735017   8.0879987  41.4615006  27.3735017
   6.8909987  42.3885006  27.3735017   8.6809987  46.9305006  27.6205017
   9.6379987  46.9305006  27.6205017   8.4409987  47.8575006  27.6205017
  13.0869987  44.7105006  32.6065017  14.0439987  44.7105006  32.6065017
  12.8469987  45.6375006  32.6065017  14.4109987  47.4905006  30.7325017
  15.3679987  47.4905006  30.7325017  14.1709987  48.4175006  30.7325017
   5.1769987  44.3325006  31.7535017   6.1339987  44.3325006  31.7535017
   4.9369987  45.2595006  31.7535017   7.9129987  38.9075006  27.7855017
   8.8699987  38.9075006  27.7855017   7.6729987  39.8345006  27.7855017
   9.1959987  43.2315006  31.3795017  10.1529987  43.2315006  31.3795017
   8.9559987  44.1585006  31.3795017  11.8989987  42.3735006  30.4785017
  12.8559987  42.3735006  30.4785017  11.6589987  43.3005006  30.4785017
  13.5099987  40.9965006  32.3975017  14.4669987  40.9965006  32.3975017
  13.2699987  41.9235006  32.3975017   3.3029987  42.2545006  31.4975017
   4.2599987  42.2545006  31.4975017   3.0629987  43.1815006  31.4975017
   8.1359987  38.2685006  30.4715017   9.0929987  38.2685006  30.4715017
   7.8959987  39.1955006  30.4715017   8.5029987  39.9015006  32.5605017
   9.4599987  39.9015006  32.5605017   8.2629987  40.8285006  32.5605017
   7.9809987  56.8035006  15.7405017   8.9379987  56.8035006  15.7405017
   7.7409987  57.7305006  15.7405017   1.5899987  51.4155006  15.1945017
   2.5469987  51.4155006  15.1945017   1.3499987  52.3425006  15.1945017
 108.0929987  56.8405006  20.2145017 109.0499987  56.8405006  20.2145017
 107.8529987  57.7675006  20.2145017   1.5129987  55.0545006  22.1655017
   2.4699987  55.0545006  22.1655017   1.2729987  55.9815006  22.1655017
  18.6529987  55.7105006  25.0295017  19.6099987  55.7105006  25.0295017
  18.4129987  56.6375006  25.0295017  18.2169987  55.2935006  27.9525017
  19.1739987  55.2935006  27.9525017  17.9769987  56.2205006  27.9525017
  16.6719987  51.0085006  32.6175017  17.6289987  51.0085006  32.6175017
  16.4319987  51.9355006  32.6175017  17.9899987  49.3435006  18.0585017
  18.9469987  49.3435006  18.0585017  17.7499987  50.2705006  18.0585017
  18.3599987  47.4135006  19.9235017  19.3169987  47.4135006  19.9235017
  18.1199987  48.3405006  19.9235017  18.1119987  50.1415006  24.8755017
  19.0689987  50.1415006  24.8755017  17.8719987  51.0685006  24.8755017
  16.6529987  53.0185006  27.1685017  17.6099987  53.0185006  27.1685017
  16.4129987  53.9455006  27.1685017  18.6619987  47.2505006  16.3245017
  19.6189987  47.2505006  16.3245017  18.4219987  48.1775006  16.3245017
  17.0249987  44.4935006  14.8385017  17.9819987  44.4935006  14.8385017
  16.7849987  45.4205006  14.8385017  16.1649987  45.8965006  20.5025017
  17.1219987  45.8965006  20.5025017  15.9249987  46.8235006  20.5025017
   1.1829987  47.9705006  24.5535017   2.1399987  47.9705006  24.5535017
   0.9429987  48.8975006  24.5535017  17.0089987  47.8445006  30.1865017
  17.9659987  47.8445006  30.1865017  16.7689987  48.7715006  30.1865017
  18.5519987  45.7635006  30.8345017  19.5089987  45.7635006  30.8345017
  18.3119987  46.6905006  30.8345017  16.2689987  41.9455006  13.9775017
  17.2259987  41.9455006  13.9775017  16.0289987  42.8725006  13.9775017
  15.8379987  43.4815006  18.9295017  16.7949987  43.4815006  18.9295017
  15.5979987  44.4085006  18.9295017  16.6789987  44.1605006  24.1105017
  17.6359987  44.1605006  24.1105017  16.4389987  45.0875006  24.1105017
  16.7459987  44.9735006  27.6035017  17.7029987  44.9735006  27.6035017
  16.5059987  45.9005006  27.6035017   0.8759987  43.2435006  30.6275017
   1.8329987  43.2435006  30.6275017   0.6359987  44.1705006  30.6275017
  18.8049987  38.7825006  32.5275017  19.7619987  38.7825006  32.5275017
  18.5649987  39.7095006  32.5275017  16.5009987  40.7685006  18.9995017
  17.4579987  40.7685006  18.9995017  16.2609987  41.6955006  18.9995017
   2.0859987  41.5985006  23.5445017   3.0429987  41.5985006  23.5445017
   1.8459987  42.5255006  23.5445017   0.8909987  44.5325006  24.7565017
   1.8479987  44.5325006  24.7565017   0.6509987  45.4595006  24.7565017
  18.3289987  40.8965006  30.8975017  19.2859987  40.8965006  30.8975017
  18.0889987  41.8235006  30.8975017  18.3389987  40.8035006  15.5595017
  19.2959987  40.8035006  15.5595017  18.0989987  41.7305006  15.5595017
   0.8919987  40.7775006  18.6875017   1.8489987  40.7775006  18.6875017
   0.6519987  41.7045006  18.6875017  15.3879987  55.8015006  20.6155017
  16.3449987  55.8015006  20.6155017  15.1479987  56.7285006  20.6155017
 108.3119987  39.4555006  26.9945017 109.2689987  39.4555006  26.9945017
 108.0719987  40.3825006  26.9945017   2.8149987  52.7185006  31.1525017
   3.7719987  52.7185006  31.1525017   2.5749987  53.6455006  31.1525017
   5.7339987  53.6905006  27.4105017   6.6909987  53.6905006  27.4105017
   5.4939987  54.6175006  27.4105017  10.0579987  55.1165006  30.3255017
  11.0149987  55.1165006  30.3255017   9.8179987  56.0435006  30.3255017
  12.3659987  56.3935006  29.6075017  13.3229987  56.3935006  29.6075017
  12.1259987  57.3205006  29.6075017  17.3559987  38.9835006  28.7305017
  18.3129987  38.9835006  28.7305017  17.1159987  39.9105006  28.7305017
   3.1499987  56.9475006  27.4415017   4.1069987  56.9475006  27.4415017
   2.9099987  57.8745006  27.4415017   5.6469987  56.5295006  26.4855017
   6.6039987  56.5295006  26.4855017   5.4069987  57.4565006  26.4855017
  10.3219987  56.4215006  25.6555017  11.2789987  56.4215006  25.6555017
  10.0819987  57.3485006  25.6555017  12.6429987  55.2605006  26.6455017
  13.5999987  55.2605006  26.6455017  12.4029987  56.1875006  26.6455017
  15.2489987  56.8735006  26.8965017  16.2059987  56.8735006  26.8965017
  15.0089987  57.8005006  26.8965017   2.6379987  55.6055006  24.4065017
   3.5949987  55.6055006  24.4065017   2.3979987  56.5325006  24.4065017
   4.6819987  54.2955006  23.0015017   5.6389987  54.2955006  23.0015017
   4.4419987  55.2225006  23.0015017   7.2669987  54.7745006  23.8755017
   8.2239987  54.7745006  23.8755017   7.0269987  55.7015006  23.8755017
  10.7399987  40.4235006  23.0055017  11.6969987  40.4235006  23.0055017
  10.4999987  41.3505006  23.0055017  15.8939987  38.4745006  23.0825017
  16.8509987  38.4745006  23.0825017  15.6539987  39.4015006  23.0825017
  17.5799987  39.7145006  21.3995017  18.5369987  39.7145006  21.3995017
  17.3399987  40.6415006  21.3995017   3.1299987  39.0575006  20.8135017
   4.0869987  39.0575006  20.8135017   2.8899987  39.9845006  20.8135017
   1.9409987  38.8145006  16.6555017   2.8979987  38.8145006  16.6555017
   1.7009987  39.7415006  16.6555017   7.6149987  38.9805006  20.6455017
   8.5719987  38.9805006  20.6455017   7.3749987  39.9075006  20.6455017
  13.2809987  39.0085006  22.2855017  14.2379987  39.0085006  22.2855017
  13.0409987  39.9355006  22.2855017  14.5799987  39.0365006  17.9665017
  15.5369987  39.0365006  17.9665017  14.3399987  39.9635006  17.9665017
   1.9219987  54.7825006  17.5815017   2.8789987  54.7825006  17.5815017
   1.6819987  55.7095006  17.5815017   3.7349987  40.7685006  15.0895017
   4.6919987  40.7685006  15.0895017   3.4949987  41.6955006  15.0895017
   8.7599987  41.0145006  17.5035017   9.7169987  41.0145006  17.5035017
   8.5199987  41.9415006  17.5035017  10.6759987  56.0475006  15.9485017
  11.6329987  56.0475006  15.9485017  10.4359987  56.9745006  15.9485017
  17.3919987  55.5775006  18.6545017  18.3489987  55.5775006  18.6545017
  17.1519987  56.5045006  18.6545017   3.0009987  39.5965006  30.3095017
   3.9579987  39.5965006  30.3095017   2.7609987  40.5235006  30.3095017
   5.0119987  38.9745006  31.9305017   5.9689987  38.9745006  31.9305017
   4.7719987  39.9015006  31.9305017   3.5879987  55.7165006  14.5375017
   4.5449987  55.7165006  14.5375017   3.3479987  56.6435006  14.5375017
  13.4219987  38.2765006  32.0965017  14.3789987  38.2765006  32.0965017
  13.1819987  39.2035006  32.0965017  16.5919987  54.3165006  30.7885017
  17.5489987  54.3165006  30.7885017  16.3519987  55.2435006  30.7885017
  31.0549987  48.2095006  20.7715017  32.0119987  48.2095006  20.7715017
  30.8149987  49.1365006  20.7715017  22.3059987  47.0975006  25.7405017
  23.2629987  47.0975006  25.7405017  22.0659987  48.0245006  25.7405017
  33.6239987  50.4065006  22.4925017  34.5809987  50.4065006  22.4925017
  33.3839987  51.3335006  22.4925017  23.2279987  51.5495006  24.3505017
  24.1849987  51.5495006  24.3505017  22.9879987  52.4765006  24.3505017
  19.8399987  45.1375006  19.7795017  20.7969987  45.1375006  19.7795017
  19.5999987  46.0645006  19.7795017  20.5539987  47.3825006  21.8925017
  21.5109987  47.3825006  21.8925017  20.3139987  48.3095006  21.8925017
  30.6889987  55.5195006  22.7345017  31.6459987  55.5195006  22.7345017
  30.4489987  56.4465006  22.7345017  28.3249987  49.8925006  24.6545017
  29.2819987  49.8925006  24.6545017  28.0849987  50.8195006  24.6545017
  36.9219987  41.5235006  25.4865017  37.8789987  41.5235006  25.4865017
  36.6819987  42.4505006  25.4865017  21.2129987  44.7925006  22.9635017
  22.1699987  44.7925006  22.9635017  20.9729987  45.7195006  22.9635017
  37.3849987  43.0035006  27.7235017  38.3419987  43.0035006  27.7235017
  37.1449987  43.9305006  27.7235017  30.7859987  50.7945006  19.8275017
  31.7429987  50.7945006  19.8275017  30.5459987  51.7215006  19.8275017
  24.4199987  50.9555006  27.3375017  25.3769987  50.9555006  27.3375017
  24.1799987  51.8825006  27.3375017  20.5329987  50.5785006  18.1295017
  21.4899987  50.5785006  18.1295017  20.2929987  51.5055006  18.1295017
  34.1389987  52.2245006  24.8145017  35.0959987  52.2245006  24.8145017
  33.8989987  53.1515006  24.8145017  32.4319987  54.0245006  21.4775017
  33.3889987  54.0245006  21.4775017  32.1919987  54.9515006  21.4775017
  33.5979987  51.9335006  19.9855017  34.5549987  51.9335006  19.9855017
  33.3579987  52.8605006  19.9855017  29.7299987  47.4955006  18.2785017
  30.6869987  47.4955006  18.2785017  29.4899987  48.4225006  18.2785017
  29.7899987  45.9695006  15.2575017  30.7469987  45.9695006  15.2575017
  29.5499987  46.8965006  15.2575017  37.0799987  46.8065006  26.5085017
  38.0369987  46.8065006  26.5085017  36.8399987  47.7335006  26.5085017
  33.1769987  47.6955006  19.1735017  34.1339987  47.6955006  19.1735017
  32.9369987  48.6225006  19.1735017  24.7959987  48.3015006  21.0825017
  25.7529987  48.3015006  21.0825017  24.5559987  49.2285006  21.0825017
  26.1169987  51.6985006  23.7855017  27.0739987  51.6985006  23.7855017
  25.8769987  52.6255006  23.7855017  31.5089987  52.5865006  25.4545017
  32.4659987  52.5865006  25.4545017  31.2689987  53.5135006  25.4545017
  32.0299987  46.8385006  16.8425017  32.9869987  46.8385006  16.8425017
  31.7899987  47.7655006  16.8425017  22.9729987  47.6635006  28.6165017
  23.9299987  47.6635006  28.6165017  22.7329987  48.5905006  28.6165017
  29.7509987  53.5645006  20.3215017  30.7079987  53.5645006  20.3215017
  29.5109987  54.4915006  20.3215017  23.7639987  47.3475006  18.6665017
  24.7209987  47.3475006  18.6665017  23.5239987  48.2745006  18.6665017
  36.8979987  52.9275006  15.0755017  37.8549987  52.9275006  15.0755017
  36.6579987  53.8545006  15.0755017  19.8159987  49.7285006  27.5175017
  20.7729987  49.7285006  27.5175017  19.5759987  50.6555006  27.5175017
  19.6209987  52.4945006  24.3795017  20.5779987  52.4945006  24.3795017
  19.3809987  53.4215006  24.3795017  22.9039987  55.2945006  20.5015017
  23.8609987  55.2945006  20.5015017  22.6639987  56.2215006  20.5015017
  32.0889987  55.4735006  18.5465017  33.0459987  55.4735006  18.5465017
  31.8489987  56.4005006  18.5465017  33.4899987  47.8775006  14.5815017
  34.4469987  47.8775006  14.5815017  33.2499987  48.8045006  14.5815017
  29.0689987  41.7665006  15.1655017  30.0259987  41.7665006  15.1655017
  28.8289987  42.6935006  15.1655017  24.8329987  44.7395006  20.5155017
  25.7899987  44.7395006  20.5155017  24.5929987  45.6665006  20.5155017
  25.9279987  42.1745006  14.2855017  26.8849987  42.1745006  14.2855017
  25.6879987  43.1015006  14.2855017  19.1859987  41.8915006  21.3885017
  20.1429987  41.8915006  21.3885017  18.9459987  42.8185006  21.3885017
  20.4589987  42.6105006  16.7505017  21.4159987  42.6105006  16.7505017
  20.2189987  43.5375006  16.7505017  22.2139987  43.7505006  20.4625017
  23.1709987  43.7505006  20.4625017  21.9739987  44.6775006  20.4625017
  25.9129987  43.7315006  18.0665017  26.8699987  43.7315006  18.0665017
  25.6729987  44.6585006  18.0665017  24.5869987  44.9435006  15.6885017
  25.5439987  44.9435006  15.6885017  24.3469987  45.8705006  15.6885017
  22.6269987  49.5915006  30.7105017  23.5839987  49.5915006  30.7105017
  22.3869987  50.5185006  30.7105017  23.7159987  41.0775006  19.8795017
  24.6729987  41.0775006  19.8795017  23.4759987  42.0045006  19.8795017
  27.9329987  49.5005006  17.6105017  28.8899987  49.5005006  17.6105017
  27.6929987  50.4275006  17.6105017  35.0689987  48.5705006  26.3455017
  36.0259987  48.5705006  26.3455017  34.8289987  49.4975006  26.3455017
  31.7859987  42.3375006  15.7185017  32.7429987  42.3375006  15.7185017
  31.5459987  43.2645006  15.7185017  32.5189987  44.1805006  17.3835017
  33.4759987  44.1805006  17.3835017  32.2789987  45.1075006  17.3835017
  23.0349987  48.8525006  23.4005017  23.9919987  48.8525006  23.4005017
  22.7949987  49.7795006  23.4005017  30.0399987  50.9835006  16.6325017
  30.9969987  50.9835006  16.6325017  29.7999987  51.9105006  16.6325017
  20.0399987  47.2655006  28.6625017  20.9969987  47.2655006  28.6625017
  19.7999987  48.1925006  28.6625017  31.6849987  52.1695006  28.8085017
  32.6419987  52.1695006  28.8085017  31.4449987  53.0965006  28.8085017
  37.4969987  44.3725006  17.1285017  38.4539987  44.3725006  17.1285017
  37.2569987  45.2995006  17.1285017  35.7249987  53.1985006  17.6125017
  36.6819987  53.1985006  17.6125017  35.4849987  54.1255006  17.6125017
  32.8749987  47.9775006  24.6955017  33.8319987  47.9775006  24.6955017
  32.6349987  48.9045006  24.6955017  25.4239987  52.3215006  20.7515017
  26.3809987  52.3215006  20.7515017  25.1839987  53.2485006  20.7515017
  21.1749987  47.1835006  15.3575017  22.1319987  47.1835006  15.3575017
  20.9349987  48.1105006  15.3575017  26.8439987  49.9995006  20.3075017
  27.8009987  49.9995006  20.3075017  26.6039987  50.9265006  20.3075017
  25.5279987  55.0485006  19.8055017  26.4849987  55.0485006  19.8055017
  25.2879987  55.9755006  19.8055017  30.8119987  50.2075006  26.3425017
  31.7689987  50.2075006  26.3425017  30.5719987  51.1345006  26.3425017
  33.1359987  51.1825006  15.4005017  34.0929987  51.1825006  15.4005017
  32.8959987  52.1095006  15.4005017  21.6499987  42.0025006  28.2595017
  22.6069987  42.0025006  28.2595017  21.4099987  42.9295006  28.2595017
  33.9369987  49.8645006  17.6495017  34.8939987  49.8645006  17.6495017
  33.6969987  50.7915006  17.6495017  21.3619987  53.8285006  26.6135017
  22.3189987  53.8285006  26.6135017  21.1219987  54.7555006  26.6135017
  27.2139987  52.3105006  13.8865017  28.1709987  52.3105006  13.8865017
  26.9739987  53.2375006  13.8865017  26.0449987  51.8375006  16.3635017
  27.0019987  51.8375006  16.3635017  25.8049987  52.7645006  16.3635017
  22.5779987  49.1075006  16.8505017  23.5349987  49.1075006  16.8505017
  22.3379987  50.0345006  16.8505017  28.8409987  53.5045006  17.0775017
  29.7979987  53.5045006  17.0775017  28.6009987  54.4315006  17.0775017
  26.2209987  54.5815006  17.0515017  27.1779987  54.5815006  17.0515017
  25.9809987  55.5085006  17.0515017  24.8919987  41.3065006  16.6645017
  25.8489987  41.3065006  16.6645017  24.6519987  42.2335006  16.6645017
  23.1389987  51.7155006  15.7235017  24.0959987  51.7155006  15.7235017
  22.8989987  52.6425006  15.7235017  21.4839987  44.3925006  14.8665017
  22.4409987  44.3925006  14.8665017  21.2439987  45.3195006  14.8665017
  22.2249987  39.1995006  23.5855017  23.1819987  39.1995006  23.5855017
  21.9849987  40.1265006  23.5855017  21.2389987  53.0845006  19.7195017
  22.1959987  53.0845006  19.7195017  20.9989987  54.0115006  19.7195017
  29.2129987  54.1535006  13.9475017  30.1699987  54.1535006  13.9475017
  28.9729987  55.0805006  13.9475017  33.8259987  53.9405006  14.2315017
  34.7829987  53.9405006  14.2315017  33.5859987  54.8675006  14.2315017
  20.3809987  49.5025006  32.0645017  21.3379987  49.5025006  32.0645017
  20.1409987  50.4295006  32.0645017  24.7209987  49.8755006  14.0735017
  25.6779987  49.8755006  14.0735017  24.4809987  50.8025006  14.0735017
  30.1379987  50.9595006  13.8255017  31.0949987  50.9595006  13.8255017
  29.8979987  51.8865006  13.8255017  25.9299987  47.8765006  16.4615017
  26.8869987  47.8765006  16.4615017  25.6899987  48.8035006  16.4615017
  26.9909987  46.0835006  14.6875017  27.9479987  46.0835006  14.6875017
  26.7509987  47.0105006  14.6875017  36.3479987  48.4385006  14.1145017
  37.3049987  48.4385006  14.1145017  36.1079987  49.3655006  14.1145017
  20.3989987  51.4045006  15.2095017  21.3559987  51.4045006  15.2095017
  20.1589987  52.3315006  15.2095017  19.1569987  56.8065006  20.2285017
  20.1139987  56.8065006  20.2285017  18.9169987  57.7335006  20.2285017
  19.9559987  54.8995006  22.0355017  20.9129987  54.8995006  22.0355017
  19.7159987  55.8265006  22.0355017  36.8519987  49.3455006  18.0585017
  37.8089987  49.3455006  18.0585017  36.6119987  50.2725006  18.0585017
  37.2349987  47.3805006  19.9385017  38.1919987  47.3805006  19.9385017
  36.9949987  48.3075006  19.9385017  36.9499987  50.1185006  24.9055017
  37.9069987  50.1185006  24.9055017  36.7099987  51.0455006  24.9055017
  37.5309987  47.2515006  16.3205017  38.4879987  47.2515006  16.3205017
  37.2909987  48.1785006  16.3205017  35.8819987  44.5055006  14.8505017
  36.8389987  44.5055006  14.8505017  35.6419987  45.4325006  14.8505017
  35.0299987  45.9235006  20.5005017  35.9869987  45.9235006  20.5005017
  34.7899987  46.8505006  20.5005017  20.0289987  47.9835006  24.5405017
  20.9859987  47.9835006  24.5405017  19.7889987  48.9105006  24.5405017
  37.3619987  45.7575006  30.8125017  38.3189987  45.7575006  30.8125017
  37.1219987  46.6845006  30.8125017  35.1329987  41.9365006  13.9915017
  36.0899987  41.9365006  13.9915017  34.8929987  42.8635006  13.9915017
  35.3169987  44.0935006  24.4025017  36.2739987  44.0935006  24.4025017
  35.0769987  45.0205006  24.4025017  35.3609987  44.7735006  27.1925017
  36.3179987  44.7735006  27.1925017  35.1209987  45.7005006  27.1925017
  19.6409987  43.2745006  30.6705017  20.5979987  43.2745006  30.6705017
  19.4009987  44.2015006  30.6705017  19.1899987  44.5295006  24.6115017
  20.1469987  44.5295006  24.6115017  18.9499987  45.4565006  24.6115017
  37.2159987  40.8185006  15.5485017  38.1729987  40.8185006  15.5485017
  36.9759987  41.7455006  15.5485017  19.5009987  40.8425006  18.6705017
  20.4579987  40.8425006  18.6705017  19.2609987  41.7695006  18.6705017
  19.4449987  39.5035006  26.9735017  20.4019987  39.5035006  26.9735017
  19.2049987  40.4305006  26.9735017  29.1309987  56.3925006  25.7015017
  30.0879987  56.3925006  25.7015017  28.8909987  57.3195006  25.7015017
  21.4019987  55.5205006  24.3145017  22.3589987  55.5205006  24.3145017
  21.1619987  56.4475006  24.3145017  21.9509987  39.0645006  20.8545017
  22.9079987  39.0645006  20.8545017  21.7109987  39.9915006  20.8545017
  20.7479987  38.8185006  16.5925017  21.7049987  38.8185006  16.5925017
  20.5079987  39.7455006  16.5925017  20.6659987  54.7575006  17.5785017
  21.6229987  54.7575006  17.5785017  20.4259987  55.6845006  17.5785017
  22.5989987  40.7605006  15.0955017  23.5559987  40.7605006  15.0955017
  22.3589987  41.6875006  15.0955017  21.8739987  39.5995006  30.3125017
  22.8309987  39.5995006  30.3125017  21.6339987  40.5265006  30.3125017
  23.8749987  38.9065006  31.9575017  24.8319987  38.9065006  31.9575017
  23.6349987  39.8335006  31.9575017  22.4619987  55.7265006  14.5565017
  23.4189987  55.7265006  14.5565017  22.2219987  56.6535006  14.5565017
  49.9069987  48.1875006  20.7635017  50.8639987  48.1875006  20.7635017
  49.6669987  49.1145006  20.7635017  41.1269987  47.1075006  25.7795017
  42.0839987  47.1075006  25.7795017  40.8869987  48.0345006  25.7795017
  52.4949987  50.4105006  22.4985017  53.4519987  50.4105006  22.4985017
  52.2549987  51.3375006  22.4985017  42.0879987  51.5655006  24.2835017
  43.0449987  51.5655006  24.2835017  41.8479987  52.4925006  24.2835017
  39.4049987  47.3465006  21.8775017  40.3619987  47.3465006  21.8775017
  39.1649987  48.2735006  21.8775017  49.5989987  55.5645006  22.7465017
  50.5559987  55.5645006  22.7465017  49.3589987  56.4915006  22.7465017
  55.8469987  41.4995006  25.4795017  56.8039987  41.4995006  25.4795017
  55.6069987  42.4265006  25.4795017  45.2309987  46.3575006  22.2275017
  46.1879987  46.3575006  22.2275017  44.9909987  47.2845006  22.2275017
  49.6499987  50.7935006  19.8385017  50.6069987  50.7935006  19.8385017
  49.4099987  51.7205006  19.8385017  39.3909987  50.6015006  18.1305017
  40.3479987  50.6015006  18.1305017  39.1509987  51.5285006  18.1305017
  53.0389987  52.2445006  24.8605017  53.9959987  52.2445006  24.8605017
  52.7989987  53.1715006  24.8605017  53.2999987  40.5535006  26.2745017
  54.2569987  40.5535006  26.2745017  53.0599987  41.4805006  26.2745017
  51.2559987  54.0195006  21.4835017  52.2129987  54.0195006  21.4835017
  51.0159987  54.9465006  21.4835017  52.4589987  51.9455006  19.9855017
  53.4159987  51.9455006  19.9855017  52.2189987  52.8725006  19.9855017
  54.1289987  50.5085006  28.4675017  55.0859987  50.5085006  28.4675017
  53.8889987  51.4355006  28.4675017  48.6029987  47.4935006  18.2925017
  49.5599987  47.4935006  18.2925017  48.3629987  48.4205006  18.2925017
  48.6379987  45.9755006  15.2435017  49.5949987  45.9755006  15.2435017
  48.3979987  46.9025006  15.2435017  52.0429987  47.6775006  19.1765017
  52.9999987  47.6775006  19.1765017  51.8029987  48.6045006  19.1765017
  43.6559987  48.3485006  21.0705017  44.6129987  48.3485006  21.0705017
  43.4159987  49.2755006  21.0705017  44.9839987  51.7045006  23.7455017
  45.9409987  51.7045006  23.7455017  44.7439987  52.6315006  23.7455017
  44.0079987  47.0805006  24.7315017  44.9649987  47.0805006  24.7315017
  43.7679987  48.0075006  24.7315017  50.4739987  52.6875006  25.4905017
  51.4309987  52.6875006  25.4905017  50.2339987  53.6145006  25.4905017
  50.8679987  46.8315006  16.8565017  51.8249987  46.8315006  16.8565017
  50.6279987  47.7585006  16.8565017  41.8259987  47.6445006  28.6295017
  42.7829987  47.6445006  28.6295017  41.5859987  48.5715006  28.6295017
  48.6019987  53.5545006  20.3015017  49.5589987  53.5545006  20.3015017
  48.3619987  54.4815006  20.3015017  54.5949987  38.5925006  16.6965017
  55.5519987  38.5925006  16.6965017  54.3549987  39.5195006  16.6965017
  42.6179987  47.3565006  18.6965017  43.5749987  47.3565006  18.6965017
  42.3779987  48.2835006  18.6965017  55.7389987  52.9265006  15.0745017
  56.6959987  52.9265006  15.0745017  55.4989987  53.8535006  15.0745017
  38.7179987  49.7365006  27.4725017  39.6749987  49.7365006  27.4725017
  38.4779987  50.6635006  27.4725017  38.4719987  52.4805006  24.3775017
  39.4289987  52.4805006  24.3775017  38.2319987  53.4075006  24.3775017
  56.6709987  53.1745006  29.9745017  57.6279987  53.1745006  29.9745017
  56.4309987  54.1015006  29.9745017  48.0869987  56.4845006  18.7295017
  49.0439987  56.4845006  18.7295017  47.8469987  57.4115006  18.7295017
  51.1579987  55.6905006  15.7015017  52.1149987  55.6905006  15.7015017
  50.9179987  56.6175006  15.7015017  50.8459987  55.6175006  18.4655017
  51.8029987  55.6175006  18.4655017  50.6059987  56.5445006  18.4655017
  51.5499987  43.0345006  28.7225017  52.5069987  43.0345006  28.7225017
  51.3099987  43.9615006  28.7225017  52.3409987  47.8765006  14.5785017
  53.2979987  47.8765006  14.5785017  52.1009987  48.8035006  14.5785017
  43.6959987  44.4605006  25.6405017  44.6529987  44.4605006  25.6405017
  43.4559987  45.3875006  25.6405017  50.2249987  44.5515006  22.1865017
  51.1819987  44.5515006  22.1865017  49.9849987  45.4785006  22.1865017
  41.4329987  44.8065006  27.4805017  42.3899987  44.8065006  27.4805017
  41.1929987  45.7335006  27.4805017  44.7849987  42.1835006  14.2865017
  45.7419987  42.1835006  14.2865017  44.5449987  43.1105006  14.2865017
  44.7509987  43.7385006  18.0565017  45.7079987  43.7385006  18.0565017
  44.5109987  44.6655006  18.0565017  50.6429987  41.3535006  24.8835017
  51.5999987  41.3535006  24.8835017  50.4029987  42.2805006  24.8835017
  43.4259987  44.9405006  15.6865017  44.3829987  44.9405006  15.6865017
  43.1859987  45.8675006  15.6865017  47.5379987  44.9185006  23.4995017
  48.4949987  44.9185006  23.4995017  47.2979987  45.8455006  23.4995017
  46.7919987  49.5125006  17.6035017  47.7489987  49.5125006  17.6035017
  46.5519987  50.4395006  17.6035017  41.9099987  48.8585006  23.4135017
  42.8669987  48.8585006  23.4135017  41.6699987  49.7855006  23.4135017
  48.8939987  50.9785006  16.6255017  49.8509987  50.9785006  16.6255017
  48.6539987  51.9055006  16.6255017  38.9509987  47.2295006  28.6295017
  39.9079987  47.2295006  28.6295017  38.7109987  48.1565006  28.6295017
  56.3009987  44.3775006  17.1605017  57.2579987  44.3775006  17.1605017
  56.0609987  45.3045006  17.1605017  54.5339987  53.2015006  17.5915017
  55.4909987  53.2015006  17.5915017  54.2939987  54.1285006  17.5915017
  44.2879987  52.3145006  20.7685017  45.2449987  52.3145006  20.7685017
  44.0479987  53.2415006  20.7685017  40.0339987  47.1765006  15.3655017
  40.9909987  47.1765006  15.3655017  39.7939987  48.1035006  15.3655017
  45.6999987  49.9955006  20.3135017  46.6569987  49.9955006  20.3135017
  45.4599987  50.9225006  20.3135017  44.4099987  54.9685006  19.8635017
  45.3669987  54.9685006  19.8635017  44.1699987  55.8955006  19.8635017
  51.9829987  51.2425006  15.4265017  52.9399987  51.2425006  15.4265017
  51.7429987  52.1695006  15.4265017  52.4399987  54.7515006  28.8115017
  53.3969987  54.7515006  28.8115017  52.1999987  55.6785006  28.8115017
  56.4579987  55.6215006  15.6675017  57.4149987  55.6215006  15.6675017
  56.2179987  56.5485006  15.6675017  52.7829987  49.9045006  17.6585017
  53.7399987  49.9045006  17.6585017  52.5429987  50.8315006  17.6585017
  40.1729987  53.8295006  26.6365017  41.1299987  53.8295006  26.6365017
  39.9329987  54.7565006  26.6365017  46.1019987  52.3265006  13.9075017
  47.0589987  52.3265006  13.9075017  45.8619987  53.2535006  13.9075017
  44.9259987  51.8535006  16.3525017  45.8829987  51.8535006  16.3525017
  44.6859987  52.7805006  16.3525017  41.4329987  49.0975006  16.8625017
  42.3899987  49.0975006  16.8625017  41.1929987  50.0245006  16.8625017
  47.7079987  53.5335006  17.0805017  48.6649987  53.5335006  17.0805017
  47.4679987  54.4605006  17.0805017  45.1069987  54.5585006  17.0845017
  46.0639987  54.5585006  17.0845017  44.8669987  55.4855006  17.0845017
  43.7489987  41.3085006  16.6965017  44.7059987  41.3085006  16.6965017
  43.5089987  42.2355006  16.6965017  54.0159987  42.1465006  28.9725017
  54.9729987  42.1465006  28.9725017  53.7759987  43.0735006  28.9725017
  52.6089987  45.7795006  23.0635017  53.5659987  45.7795006  23.0635017
  52.3689987  46.7065006  23.0635017  41.9979987  51.7085006  15.7415017
  42.9549987  51.7085006  15.7415017  41.7579987  52.6355006  15.7415017
  40.3379987  44.3855006  14.8895017  41.2949987  44.3855006  14.8895017
  40.0979987  45.3125006  14.8895017  53.6449987  55.0645006  24.8275017
  54.6019987  55.0645006  24.8275017  53.4049987  55.9915006  24.8275017
  40.1079987  53.0695006  19.7045017  41.0649987  53.0695006  19.7045017
  39.8679987  53.9965006  19.7045017  48.1139987  54.1815006  14.0415017
  49.0709987  54.1815006  14.0415017  47.8739987  55.1085006  14.0415017
  52.6799987  53.9425006  14.2375017  53.6369987  53.9425006  14.2375017
  52.4399987  54.8695006  14.2375017  43.5759987  49.8675006  14.0685017
  44.5329987  49.8675006  14.0685017  43.3359987  50.7945006  14.0685017
  48.9949987  50.9705006  13.8315017  49.9519987  50.9705006  13.8315017
  48.7549987  51.8975006  13.8315017  40.0639987  46.6855006  31.3935017
  41.0209987  46.6855006  31.3935017  39.8239987  47.6125006  31.3935017
  44.7809987  47.8805006  16.4505017  45.7379987  47.8805006  16.4505017
  44.5409987  48.8075006  16.4505017  45.8419987  46.0955006  14.6815017
  46.7989987  46.0955006  14.6815017  45.6019987  47.0225006  14.6815017
  55.2119987  48.4395006  14.1055017  56.1689987  48.4395006  14.1055017
  54.9719987  49.3665006  14.1055017  46.4329987  46.9645006  27.6175017
  47.3899987  46.9645006  27.6175017  46.1929987  47.8915006  27.6175017
  45.7169987  56.7795006  15.7285017  46.6739987  56.7795006  15.7285017
  45.4769987  57.7065006  15.7285017  39.2599987  51.4105006  15.2045017
  40.2169987  51.4105006  15.2045017  39.0199987  52.3375006  15.2045017
  56.3669987  55.7075006  25.0005017  57.3239987  55.7075006  25.0005017
  56.1269987  56.6345006  25.0005017  55.9779987  55.2815006  27.9095017
  56.9349987  55.2815006  27.9095017  55.7379987  56.2085006  27.9095017
  55.7039987  49.3515006  18.0615017  56.6609987  49.3515006  18.0615017
  55.4639987  50.2785006  18.0615017  56.0699987  47.4185006  19.9195017
  57.0269987  47.4185006  19.9195017  55.8299987  48.3455006  19.9195017
  55.7129987  50.1905006  24.7455017  56.6699987  50.1905006  24.7455017
  55.4729987  51.1175006  24.7455017  54.3539987  53.0385006  27.2025017
  55.3109987  53.0385006  27.2025017  54.1139987  53.9655006  27.2025017
  56.3759987  47.2555006  16.3205017  57.3329987  47.2555006  16.3205017
  56.1359987  48.1825006  16.3205017  54.7289987  44.4925006  14.8375017
  55.6859987  44.4925006  14.8375017  54.4889987  45.4195006  14.8375017
  53.8849987  45.8975006  20.4965017  54.8419987  45.8975006  20.4965017
  53.6449987  46.8245006  20.4965017  38.8859987  47.9805006  24.5445017
  39.8429987  47.9805006  24.5445017  38.6459987  48.9075006  24.5445017
  54.1949987  44.0155006  24.3835017  55.1519987  44.0155006  24.3835017
  53.9549987  44.9425006  24.3835017  54.2809987  40.6775006  18.9155017
  55.2379987  40.6775006  18.9155017  54.0409987  41.6045006  18.9155017
  38.0079987  44.5825006  24.5745017  38.9649987  44.5825006  24.5745017
  37.7679987  45.5095006  24.5745017  56.0519987  40.8015006  15.5565017
  57.0089987  40.8015006  15.5565017  55.8119987  41.7285006  15.5565017
  53.1009987  55.7815006  20.6255017  54.0579987  55.7815006  20.6255017
  52.8609987  56.7085006  20.6255017  43.3499987  56.6125006  26.4955017
  44.3069987  56.6125006  26.4955017  43.1099987  57.5395006  26.4955017
  52.9679987  56.8765006  26.8995017  53.9249987  56.8765006  26.8995017
  52.7279987  57.8035006  26.8995017  42.4489987  54.2735006  22.9685017
  43.4059987  54.2735006  22.9685017  42.2089987  55.2005006  22.9685017
  55.2759987  39.7135006  21.3805017  56.2329987  39.7135006  21.3805017
  55.0359987  40.6405006  21.3805017  39.6349987  38.8455006  16.6385017
  40.5919987  38.8455006  16.6385017  39.3949987  39.7725006  16.6385017
  39.5499987  54.7495006  17.5565017  40.5069987  54.7495006  17.5565017
  39.3099987  55.6765006  17.5565017  41.4659987  40.7545006  15.0765017
  42.4229987  40.7545006  15.0765017  41.2259987  41.6815006  15.0765017
  48.3969987  56.0425006  15.9565017  49.3539987  56.0425006  15.9565017
  48.1569987  56.9695006  15.9565017  55.1019987  55.5755006  18.6525017
  56.0589987  55.5755006  18.6525017  54.8619987  56.5025006  18.6525017
  54.3219987  54.3085006  30.7415017  55.2789987  54.3085006  30.7415017
  54.0819987  55.2355006  30.7415017  60.2759987  46.8525006  25.7105017
  61.2329987  46.8525006  25.7105017  60.0359987  47.7795006  25.7105017
  57.5579987  45.1495006  19.7375017  58.5149987  45.1495006  19.7375017
  57.3179987  46.0765006  19.7375017  58.2589987  47.3615006  21.8635017
  59.2159987  47.3615006  21.8635017  58.0189987  48.2885006  21.8635017
  68.4499987  55.5385006  22.7525017  69.4069987  55.5385006  22.7525017
  68.2099987  56.4655006  22.7525017  66.0309987  49.8545006  24.6445017
  66.9879987  49.8545006  24.6445017  65.7909987  50.7815006  24.6445017
  58.9229987  44.8035006  22.9785017  59.8799987  44.8035006  22.9785017
  58.6829987  45.7305006  22.9785017  61.1489987  41.2995006  26.2835017
  62.1059987  41.2995006  26.2835017  60.9089987  42.2265006  26.2835017
  60.7609987  43.1435006  24.2875017  61.7179987  43.1435006  24.2875017
  60.5209987  44.0705006  24.2875017  58.2469987  50.5775006  18.1275017
  59.2039987  50.5775006  18.1275017  58.0069987  51.5045006  18.1275017
  65.1809987  38.5865006  23.7585017  66.1379987  38.5865006  23.7585017
  64.9409987  39.5135006  23.7585017  70.0909987  54.0245006  21.4255017
  71.0479987  54.0245006  21.4255017  69.8509987  54.9515006  21.4255017
  67.4639987  45.8935006  15.2965017  68.4209987  45.8935006  15.2965017
  67.2239987  46.8205006  15.2965017  62.4889987  48.2875006  21.0985017
  63.4459987  48.2875006  21.0985017  62.2489987  49.2145006  21.0985017
  63.8499987  51.7305006  23.7585017  64.8069987  51.7305006  23.7585017
  63.6099987  52.6575006  23.7585017  63.7069987  51.4305006  29.4265017
  64.6639987  51.4305006  29.4265017  63.4669987  52.3575006  29.4265017
  61.4769987  47.3405006  18.6625017  62.4339987  47.3405006  18.6625017
  61.2369987  48.2675006  18.6625017  74.5779987  52.9525006  15.0665017
  75.5349987  52.9525006  15.0665017  74.3379987  53.8795006  15.0665017
  66.9619987  56.4705006  18.7025017  67.9189987  56.4705006  18.7025017
  66.7219987  57.3975006  18.7025017  60.6089987  55.3155006  20.5155017
  61.5659987  55.3155006  20.5155017  60.3689987  56.2425006  20.5155017
  69.9819987  55.6805006  15.6865017  70.9389987  55.6805006  15.6865017
  69.7419987  56.6075006  15.6865017  69.6989987  55.6195006  18.4625017
  70.6559987  55.6195006  18.4625017  69.4589987  56.5465006  18.4625017
  62.4689987  39.5115006  24.5365017  63.4259987  39.5115006  24.5365017
  62.2289987  40.4385006  24.5365017  66.7899987  41.7545006  15.1545017
  67.7469987  41.7545006  15.1545017  66.5499987  42.6815006  15.1545017
  62.5599987  44.5045006  25.6745017  63.5169987  44.5045006  25.6745017
  62.3199987  45.4315006  25.6745017  62.5439987  44.7465006  20.5225017
  63.5009987  44.7465006  20.5225017  62.3039987  45.6735006  20.5225017
  60.3459987  44.7845006  27.4865017  61.3029987  44.7845006  27.4865017
  60.1059987  45.7115006  27.4865017  63.6489987  42.1745006  14.2975017
  64.6059987  42.1745006  14.2975017  63.4089987  43.1015006  14.2975017
  56.8959987  41.9065006  21.3705017  57.8529987  41.9065006  21.3705017
  56.6559987  42.8335006  21.3705017  58.1699987  42.6095006  16.7515017
  59.1269987  42.6095006  16.7515017  57.9299987  43.5365006  16.7515017
  59.9339987  43.7455006  20.4565017  60.8909987  43.7455006  20.4565017
  59.6939987  44.6725006  20.4565017  63.6319987  43.7025006  18.0475017
  64.5889987  43.7025006  18.0475017  63.3919987  44.6295006  18.0475017
  62.2999987  44.9325006  15.6875017  63.2569987  44.9325006  15.6875017
  62.0599987  45.8595006  15.6875017  61.4099987  41.0725006  19.8855017
  62.3669987  41.0725006  19.8855017  61.1699987  41.9995006  19.8855017
  69.5059987  42.3455006  15.8185017  70.4629987  42.3455006  15.8185017
  69.2659987  43.2725006  15.8185017  60.7579987  48.8395006  23.3635017
  61.7149987  48.8395006  23.3635017  60.5179987  49.7665006  23.3635017
  73.3529987  53.2135006  17.5855017  74.3099987  53.2135006  17.5855017
  73.1129987  54.1405006  17.5855017  63.0869987  52.3575006  20.8115017
  64.0439987  52.3575006  20.8115017  62.8469987  53.2845006  20.8115017
  58.8879987  47.1845006  15.3575017  59.8449987  47.1845006  15.3575017
  58.6479987  48.1115006  15.3575017  65.0469987  54.1545006  26.6175017
  66.0039987  54.1545006  26.6175017  64.8069987  55.0815006  26.6175017
  63.2199987  55.0275006  19.8525017  64.1769987  55.0275006  19.8525017
  62.9799987  55.9545006  19.8525017  68.5669987  50.2145006  26.3155017
  69.5239987  50.2145006  26.3155017  68.3269987  51.1415006  26.3155017
  75.3109987  55.6145006  15.6635017  76.2679987  55.6145006  15.6635017
  75.0709987  56.5415006  15.6635017  64.9569987  52.3355006  13.8835017
  65.9139987  52.3355006  13.8835017  64.7169987  53.2625006  13.8835017
  63.7909987  51.8685006  16.3545017  64.7479987  51.8685006  16.3545017
  63.5509987  52.7955006  16.3545017  60.2929987  49.1085006  16.8475017
  61.2499987  49.1085006  16.8475017  60.0529987  50.0355006  16.8475017
  63.9069987  54.5705006  17.0935017  64.8639987  54.5705006  17.0935017
  63.6669987  55.4975006  17.0935017  62.6049987  41.2895006  16.6945017
  63.5619987  41.2895006  16.6945017  62.3649987  42.2165006  16.6945017
  60.8409987  51.7195006  15.7175017  61.7979987  51.7195006  15.7175017
  60.6009987  52.6465006  15.7175017  59.1889987  44.3905006  14.8605017
  60.1459987  44.3905006  14.8605017  58.9489987  45.3175006  14.8605017
  72.5169987  55.0055006  24.7725017  73.4739987  55.0055006  24.7725017
  72.2769987  55.9325006  24.7725017  59.9979987  39.1785006  23.5905017
  60.9549987  39.1785006  23.5905017  59.7579987  40.1055006  23.5905017
  58.9519987  53.1045006  19.7305017  59.9089987  53.1045006  19.7305017
  58.7119987  54.0315006  19.7305017  71.5289987  53.9695006  14.2375017
  72.4859987  53.9695006  14.2375017  71.2889987  54.8965006  14.2375017
  62.4259987  49.8655006  14.0645017  63.3829987  49.8655006  14.0645017
  62.1859987  50.7925006  14.0645017  63.6129987  47.8745006  16.4245017
  64.5699987  47.8745006  16.4245017  63.3729987  48.8015006  16.4245017
  64.7009987  46.0535006  14.6895017  65.6579987  46.0535006  14.6895017
  64.4609987  46.9805006  14.6895017  63.1749987  43.0565006  29.8025017
  64.1319987  43.0565006  29.8025017  62.9349987  43.9835006  29.8025017
  63.6839987  41.5115006  27.3725017  64.6409987  41.5115006  27.3725017
  63.4439987  42.4385006  27.3725017  64.4749987  38.8885006  27.7655017
  65.4319987  38.8885006  27.7655017  64.2349987  39.8155006  27.7655017
  64.5569987  56.7865006  15.7025017  65.5139987  56.7865006  15.7025017
  64.3169987  57.7135006  15.7025017  58.1099987  51.4055006  15.2095017
  59.0669987  51.4055006  15.2095017  57.8699987  52.3325006  15.2095017
  56.8539987  56.7895006  20.2085017  57.8109987  56.7895006  20.2085017
  56.6139987  57.7165006  20.2085017  57.6859987  54.9035006  22.0415017
  58.6429987  54.9035006  22.0415017  57.4459987  55.8305006  22.0415017
  75.2189987  55.7145006  25.0155017  76.1759987  55.7145006  25.0155017
  74.9789987  56.6415006  25.0155017  58.5559987  41.5545006  23.5685017
  59.5129987  41.5545006  23.5685017  58.3159987  42.4815006  23.5685017
  57.2169987  40.8225006  18.6505017  58.1739987  40.8225006  18.6505017
  56.9769987  41.7495006  18.6505017  71.9549987  55.8005006  20.6055017
  72.9119987  55.8005006  20.6055017  71.7149987  56.7275006  20.6055017
  57.1619987  39.4805006  26.9585017  58.1189987  39.4805006  26.9585017
  56.9219987  40.4075006  26.9585017  66.9069987  56.4415006  25.6535017
  67.8639987  56.4415006  25.6535017  66.6669987  57.3685006  25.6535017
  69.2189987  55.3125006  26.6215017  70.1759987  55.3125006  26.6215017
  68.9789987  56.2395006  26.6215017  59.1249987  55.5135006  24.3265017
  60.0819987  55.5135006  24.3265017  58.8849987  56.4405006  24.3265017
  61.2449987  54.3035006  23.0285017  62.2019987  54.3035006  23.0285017
  61.0049987  55.2305006  23.0285017  63.8299987  54.7825006  23.8605017
  64.7869987  54.7825006  23.8605017  63.5899987  55.7095006  23.8605017
  59.6879987  39.0615006  20.8355017  60.6449987  39.0615006  20.8355017
  59.4479987  39.9885006  20.8355017  58.4729987  38.8115006  16.6075017
  59.4299987  38.8115006  16.6075017  58.2329987  39.7385006  16.6075017
  58.3839987  54.7675006  17.5865017  59.3409987  54.7675006  17.5865017
  58.1439987  55.6945006  17.5865017  60.3159987  40.7555006  15.0925017
  61.2729987  40.7555006  15.0925017  60.0759987  41.6825006  15.0925017
  67.2419987  56.0285006  15.9245017  68.1989987  56.0285006  15.9245017
  67.0019987  56.9555006  15.9245017  73.9469987  55.5915006  18.6625017
  74.9039987  55.5915006  18.6625017  73.7069987  56.5185006  18.6625017
  61.5799987  38.9245006  31.8845017  62.5369987  38.9245006  31.8845017
  61.3399987  39.8515006  31.8845017  60.1839987  55.7355006  14.5485017
  61.1409987  55.7355006  14.5485017  59.9439987  56.6625006  14.5485017
  90.2209987  50.3855006  22.4985017  91.1779987  50.3855006  22.4985017
  89.9809987  51.3125006  22.4985017  79.8179987  51.6715006  24.2455017
  80.7749987  51.6715006  24.2455017  79.5779987  52.5985006  24.2455017
  87.3109987  55.5645006  22.7505017  88.2679987  55.5645006  22.7505017
  87.0709987  56.4915006  22.7505017  93.4779987  41.5195006  25.4295017
  94.4349987  41.5195006  25.4295017  93.2379987  42.4465006  25.4295017
  93.9269987  42.9295006  27.7025017  94.8839987  42.9295006  27.7025017
  93.6869987  43.8565006  27.7025017  87.3919987  50.7985006  19.8205017
  88.3489987  50.7985006  19.8205017  87.1519987  51.7255006  19.8205017
  90.6769987  41.8265006  22.6065017  91.6339987  41.8265006  22.6065017
  90.4369987  42.7535006  22.6065017  90.7279987  52.2495006  24.8775017
  91.6849987  52.2495006  24.8775017  90.4879987  53.1765006  24.8775017
  91.0419987  40.5405006  26.2915017  91.9989987  40.5405006  26.2915017
  90.8019987  41.4675006  26.2915017  88.9789987  54.0215006  21.4895017
  89.9359987  54.0215006  21.4895017  88.7389987  54.9485006  21.4895017
  90.1809987  51.9455006  20.0025017  91.1379987  51.9455006  20.0025017
  89.9409987  52.8725006  20.0025017  91.8879987  50.5245006  28.4755017
  92.8449987  50.5245006  28.4755017  91.6479987  51.4515006  28.4755017
  86.3729987  45.9615006  15.2595017  87.3299987  45.9615006  15.2595017
  86.1329987  46.8885006  15.2595017  93.6779987  46.8575006  26.5645017
  94.6349987  46.8575006  26.5645017  93.4379987  47.7845006  26.5645017
  89.7669987  47.6905006  19.2215017  90.7239987  47.6905006  19.2215017
  89.5269987  48.6175006  19.2215017  88.5849987  46.8255006  16.8385017
  89.5419987  46.8255006  16.8385017  88.3449987  47.7525006  16.8385017
  86.3529987  53.5695006  20.2745017  87.3099987  53.5695006  20.2745017
  86.1129987  54.4965006  20.2745017  92.3249987  38.5675006  16.7085017
  93.2819987  38.5675006  16.7085017  92.0849987  39.4945006  16.7085017
  93.4509987  52.9265006  15.0755017  94.4079987  52.9265006  15.0755017
  93.2109987  53.8535006  15.0755017  94.5409987  53.0815006  30.5885017
  95.4979987  53.0815006  30.5885017  94.3009987  54.0085006  30.5885017
  85.8079987  56.4825006  18.7195017  86.7649987  56.4825006  18.7195017
  85.5679987  57.4095006  18.7195017  79.4479987  55.3445006  20.5275017
  80.4049987  55.3445006  20.5275017  79.2079987  56.2715006  20.5275017
  88.8679987  55.6905006  15.7025017  89.8249987  55.6905006  15.7025017
  88.6279987  56.6175006  15.7025017  88.5659987  55.6205006  18.4695017
  89.5229987  55.6205006  18.4695017  88.3259987  56.5475006  18.4695017
  91.5709987  44.6745006  30.5235017  92.5279987  44.6745006  30.5235017
  91.3309987  45.6015006  30.5235017  85.9569987  39.1895006  27.8615017
  86.9139987  39.1895006  27.8615017  85.7169987  40.1165006  27.8615017
  90.0719987  47.8805006  14.5845017  91.0289987  47.8805006  14.5845017
  89.8319987  48.8075006  14.5845017  85.6949987  41.7555006  15.1695017
  86.6519987  41.7555006  15.1695017  85.4549987  42.6825006  15.1695017
  79.1399987  44.7695006  27.4905017  80.0969987  44.7695006  27.4905017
  78.8999987  45.6965006  27.4905017  91.7089987  57.0035006  31.1605017
  92.6659987  57.0035006  31.1605017  91.4689987  57.9305006  31.1605017
  88.3589987  42.3045006  15.7535017  89.3159987  42.3045006  15.7535017
  88.1189987  43.2315006  15.7535017  89.0849987  44.1905006  17.3825017
  90.0419987  44.1905006  17.3825017  88.8449987  45.1175006  17.3825017
  86.6019987  50.9755006  16.6515017  87.5589987  50.9755006  16.6515017
  86.3619987  51.9025006  16.6515017  93.9819987  44.3805006  17.1875017
  94.9389987  44.3805006  17.1875017  93.7419987  45.3075006  17.1875017
  93.9819987  50.2795006  29.9945017  94.9389987  50.2795006  29.9945017
  93.7419987  51.2065006  29.9945017  92.2369987  53.2025006  17.5915017
  93.1939987  53.2025006  17.5915017  91.9969987  54.1295006  17.5915017
  81.9459987  52.3545006  20.7995017  82.9029987  52.3545006  20.7995017
  81.7059987  53.2815006  20.7995017  82.0829987  55.0285006  19.8275017
  83.0399987  55.0285006  19.8275017  81.8429987  55.9555006  19.8275017
  89.6809987  51.2405006  15.4305017  90.6379987  51.2405006  15.4305017
  89.4409987  52.1675006  15.4305017  90.2719987  54.6975006  28.7625017
  91.2289987  54.6975006  28.7625017  90.0319987  55.6245006  28.7625017
  94.1719987  55.6205006  15.6685017  95.1289987  55.6205006  15.6685017
  93.9319987  56.5475006  15.6685017  90.5129987  49.8985006  17.6615017
  91.4699987  49.8985006  17.6615017  90.2729987  50.8255006  17.6615017
  77.8939987  53.8315006  26.6025017  78.8509987  53.8315006  26.6025017
  77.6539987  54.7585006  26.6025017  83.8329987  52.3275006  13.9035017
  84.7899987  52.3275006  13.9035017  83.5929987  53.2545006  13.9035017
  82.7899987  51.8675006  16.3505017  83.7469987  51.8675006  16.3505017
  82.5499987  52.7945006  16.3505017  85.4269987  53.5335006  17.0905017
  86.3839987  53.5335006  17.0905017  85.1869987  54.4605006  17.0905017
  82.8429987  54.5725006  17.1105017  83.7999987  54.5725006  17.1105017
  82.6029987  55.4995006  17.1105017  91.6689987  42.0365006  29.0915017
  92.6259987  42.0365006  29.0915017  91.4289987  42.9635006  29.0915017
  91.3709987  55.0345006  24.7925017  92.3279987  55.0345006  24.7925017
  91.1309987  55.9615006  24.7925017  77.8249987  53.1515006  19.7965017
  78.7819987  53.1515006  19.7965017  77.5849987  54.0785006  19.7965017
  85.8219987  54.1875006  14.0375017  86.7789987  54.1875006  14.0375017
  85.5819987  55.1145006  14.0375017  90.3919987  53.9425006  14.2375017
  91.3489987  53.9425006  14.2375017  90.1519987  54.8695006  14.2375017
  81.3269987  49.8245006  14.0185017  82.2839987  49.8245006  14.0185017
  81.0869987  50.7515006  14.0185017  86.7079987  50.9695006  13.8325017
  87.6649987  50.9695006  13.8325017  86.4679987  51.8965006  13.8325017
  82.4959987  47.8525006  16.4235017  83.4529987  47.8525006  16.4235017
  82.2559987  48.7795006  16.4235017  92.9169987  48.4345006  14.1225017
  93.8739987  48.4345006  14.1225017  92.6769987  49.3615006  14.1225017
  88.5419987  44.7235006  32.5625017  89.4989987  44.7235006  32.5625017
  88.3019987  45.6505006  32.5625017  87.3139987  42.3155006  30.4565017
  88.2709987  42.3155006  30.4565017  87.0739987  43.2425006  30.4565017
  88.9549987  41.0175006  32.4445017  89.9119987  41.0175006  32.4445017
  88.7149987  41.9445006  32.4445017  83.4079987  56.8115006  15.7445017
  84.3649987  56.8115006  15.7445017  83.1679987  57.7385006  15.7445017
  75.7299987  56.7885006  20.2005017  76.6869987  56.7885006  20.2005017
  75.4899987  57.7155006  20.2005017  76.5689987  54.8935006  22.0265017
  77.5259987  54.8935006  22.0265017  76.3289987  55.8205006  22.0265017
  94.1159987  55.6625006  25.0315017  95.0729987  55.6625006  25.0315017
  93.8759987  56.5895006  25.0315017  93.6809987  55.4635006  27.8435017
  94.6379987  55.4635006  27.8435017  93.4409987  56.3905006  27.8435017
  92.0999987  51.0545006  32.5795017  93.0569987  51.0545006  32.5795017
  91.8599987  51.9815006  32.5795017  93.4209987  49.3285006  18.0775017
  94.3779987  49.3285006  18.0775017  93.1809987  50.2555006  18.0775017
  93.5679987  50.1395006  24.9345017  94.5249987  50.1395006  24.9345017
  93.3279987  51.0665006  24.9345017  91.9279987  53.0365006  27.1095017
  92.8849987  53.0365006  27.1095017  91.6879987  53.9635006  27.1095017
  94.0679987  47.2445006  16.3485017  95.0249987  47.2445006  16.3485017
  93.8279987  48.1715006  16.3485017  92.4469987  44.5035006  14.8625017
  93.4039987  44.5035006  14.8625017  92.2069987  45.4305006  14.8625017
  92.4359987  47.8945006  30.1525017  93.3929987  47.8945006  30.1525017
  92.1959987  48.8215006  30.1525017  93.9619987  45.7615006  30.8105017
  94.9189987  45.7615006  30.8105017  93.7219987  46.6885006  30.8105017
  91.6849987  41.9455006  13.9805017  92.6419987  41.9455006  13.9805017
  91.4449987  42.8725006  13.9805017  91.2939987  43.5165006  18.9365017
  92.2509987  43.5165006  18.9365017  91.0539987  44.4435006  18.9365017
  91.9669987  44.7615006  27.2155017  92.9239987  44.7615006  27.2155017
  91.7269987  45.6885006  27.2155017  94.2369987  38.7965006  32.5305017
  95.1939987  38.7965006  32.5305017  93.9969987  39.7235006  32.5305017
  91.9539987  40.7515006  18.9855017  92.9109987  40.7515006  18.9855017
  91.7139987  41.6785006  18.9855017  93.7649987  40.9085006  30.8755017
  94.7219987  40.9085006  30.8755017  93.5249987  41.8355006  30.8755017
  93.7639987  40.8055006  15.5615017  94.7209987  40.8055006  15.5615017
  93.5239987  41.7325006  15.5615017  90.8099987  55.7905006  20.6185017
  91.7669987  55.7905006  20.6185017  90.5699987  56.7175006  20.6185017
  92.7839987  39.0045006  28.7185017  93.7409987  39.0045006  28.7185017
  92.5439987  39.9315006  28.7185017  85.7199987  56.4225006  25.6295017
  86.6769987  56.4225006  25.6295017  85.4799987  57.3495006  25.6295017
  90.7149987  56.8185006  26.9035017  91.6719987  56.8185006  26.9035017
  90.4749987  57.7455006  26.9035017  78.0499987  55.6315006  24.3485017
  79.0069987  55.6315006  24.3485017  77.8099987  56.5585006  24.3485017
  80.0909987  54.3185006  23.0435017  81.0479987  54.3185006  23.0435017
  79.8509987  55.2455006  23.0435017  82.6179987  54.7435006  23.8635017
  83.5749987  54.7435006  23.8635017  82.3779987  55.6705006  23.8635017
  91.3019987  38.5245006  23.1215017  92.2589987  38.5245006  23.1215017
  91.0619987  39.4515006  23.1215017  92.9979987  39.6965006  21.4075017
  93.9549987  39.6965006  21.4075017  92.7579987  40.6235006  21.4075017
  88.6729987  39.0185006  22.2965017  89.6299987  39.0185006  22.2965017
  88.4329987  39.9455006  22.2965017  90.0049987  39.0325006  17.9735017
  90.9619987  39.0325006  17.9735017  89.7649987  39.9595006  17.9735017
  77.2069987  54.8075006  17.6395017  78.1639987  54.8075006  17.6395017
  76.9669987  55.7345006  17.6395017  86.1009987  56.0475006  15.9475017
  87.0579987  56.0475006  15.9475017  85.8609987  56.9745006  15.9475017
  92.8159987  55.5755006  18.6525017  93.7729987  55.5755006  18.6525017
  92.5759987  56.5025006  18.6525017  79.0629987  55.7815006  14.5535017
  80.0199987  55.7815006  14.5535017  78.8229987  56.7085006  14.5535017
  88.8499987  38.2835006  32.1055017  89.8069987  38.2835006  32.1055017
  88.6099987  39.2105006  32.1055017  92.1119987  54.3135006  30.6465017
  93.0689987  54.3135006  30.6465017  91.8719987  55.2405006  30.6465017
 106.4689987  48.1645006  20.7105017 107.4259987  48.1645006  20.7105017
 106.2289987  49.0915006  20.7105017 105.2819987  47.4755006  24.2335017
 106.2389987  47.4755006  24.2335017 105.0419987  48.4025006  24.2335017
  97.7169987  47.1115006  25.7655017  98.6739987  47.1115006  25.7655017
  97.4769987  48.0385006  25.7655017  98.6349987  51.5635006  24.3005017
  99.5919987  51.5635006  24.3005017  98.3949987  52.4905006  24.3005017
  95.2269987  45.1565006  19.8045017  96.1839987  45.1565006  19.8045017
  94.9869987  46.0835006  19.8045017  95.9499987  47.3275006  21.8785017
  96.9069987  47.3275006  21.8785017  95.7099987  48.2545006  21.8785017
 106.1809987  55.5155006  22.7165017 107.1379987  55.5155006  22.7165017
 105.9409987  56.4425006  22.7165017 103.7009987  49.8555006  24.6595017
 104.6579987  49.8555006  24.6595017 103.4609987  50.7825006  24.6595017
 106.2229987  44.0815006  24.9535017 107.1799987  44.0815006  24.9535017
 105.9829987  45.0085006  24.9535017 100.0169987  42.4065006  22.2265017
 100.9739987  42.4065006  22.2265017  99.7769987  43.3335006  22.2265017
 107.7189987  42.9885006  20.1955017 108.6759987  42.9885006  20.1955017
 107.4789987  43.9155006  20.1955017  96.6339987  44.8165006  22.9525017
  97.5909987  44.8165006  22.9525017  96.3939987  45.7435006  22.9525017
 101.7899987  46.3745006  22.2545017 102.7469987  46.3745006  22.2545017
 101.5499987  47.3015006  22.2545017  98.9019987  41.3055006  26.2695017
  99.8589987  41.3055006  26.2695017  98.6619987  42.2325006  26.2695017
 106.2339987  50.7995006  19.8125017 107.1909987  50.7995006  19.8125017
 105.9939987  51.7265006  19.8125017 101.4369987  48.9545006  26.5255017
 102.3939987  48.9545006  26.5255017 101.1969987  49.8815006  26.5255017
  98.4649987  43.1765006  24.2735017  99.4219987  43.1765006  24.2735017
  98.2249987  44.1035006  24.2735017  99.8629987  50.9365006  27.3275017
 100.8199987  50.9365006  27.3275017  99.6229987  51.8635006  27.3275017
  95.9439987  50.5755006  18.1335017  96.9009987  50.5755006  18.1335017
  95.7039987  51.5025006  18.1335017 102.8819987  38.6355006  23.7365017
 103.8389987  38.6355006  23.7365017 102.6419987  39.5625006  23.7365017
 107.5019987  53.8425006  21.0705017 108.4589987  53.8425006  21.0705017
 107.2619987  54.7695006  21.0705017 105.1289987  47.4305006  18.2295017
 106.0859987  47.4305006  18.2295017 104.8889987  48.3575006  18.2295017
 105.2059987  45.9655006  15.2605017 106.1629987  45.9655006  15.2605017
 104.9659987  46.8925006  15.2605017 100.2069987  48.3065006  21.0775017
 101.1639987  48.3065006  21.0775017  99.9669987  49.2335006  21.0775017
 101.5249987  51.7055006  23.7675017 102.4819987  51.7055006  23.7675017
 101.2849987  52.6325006  23.7675017 100.5469987  47.0505006  24.7275017
 101.5039987  47.0505006  24.7275017 100.3069987  47.9775006  24.7275017
 106.5349987  52.6345006  25.4795017 107.4919987  52.6345006  25.4795017
 106.2949987  53.5615006  25.4795017 101.4859987  51.4725006  29.4305017
 102.4429987  51.4725006  29.4305017 101.2459987  52.3995006  29.4305017
 107.4599987  46.8185006  16.8555017 108.4169987  46.8185006  16.8555017
 107.2199987  47.7455006  16.8555017  98.4179987  47.6415006  28.6055017
  99.3749987  47.6415006  28.6055017  98.1779987  48.5685006  28.6055017
 105.0829987  53.5575006  20.2925017 106.0399987  53.5575006  20.2925017
 104.8429987  54.4845006  20.2925017  99.7419987  53.5255006  30.1865017
 100.6989987  53.5255006  30.1865017  99.5019987  54.4525006  30.1865017
  99.1749987  47.3335006  18.6955017 100.1319987  47.3335006  18.6955017
  98.9349987  48.2605006  18.6955017  95.2569987  49.7675006  27.5645017
  96.2139987  49.7675006  27.5645017  95.0169987  50.6945006  27.5645017
  95.0289987  52.4745006  24.4275017  95.9859987  52.4745006  24.4275017
  94.7889987  53.4015006  24.4275017 104.2459987  52.7365006  28.9335017
 105.2029987  52.7365006  28.9335017 104.0059987  53.6635006  28.9335017
 104.6649987  56.4875006  18.7205017 105.6219987  56.4875006  18.7205017
 104.4249987  57.4145006  18.7205017  98.3009987  55.3495006  20.5255017
  99.2579987  55.3495006  20.5255017  98.0609987  56.2765006  20.5255017
 107.7399987  55.6715006  15.6815017 108.6969987  55.6715006  15.6815017
 107.4999987  56.5985006  15.6815017 107.2489987  55.4485006  18.3205017
 108.2059987  55.4485006  18.3205017 107.0089987  56.3755006  18.3205017
  97.4989987  51.1105006  28.5325017  98.4559987  51.1105006  28.5325017
  97.2589987  52.0375006  28.5325017 100.2179987  39.5315006  24.4905017
 101.1749987  39.5315006  24.4905017  99.9779987  40.4585006  24.4905017
 104.9029987  39.1965006  27.8685017 105.8599987  39.1965006  27.8685017
 104.6629987  40.1235006  27.8685017 104.5479987  41.7685006  15.1835017
 105.5049987  41.7685006  15.1835017 104.3079987  42.6955006  15.1835017
 100.3059987  44.4985006  25.6985017 101.2629987  44.4985006  25.6985017
 100.0659987  45.4255006  25.6985017 100.2819987  44.6605006  20.5785017
 101.2389987  44.6605006  20.5785017 100.0419987  45.5875006  20.5785017
 105.7879987  45.1365006  19.3695017 106.7449987  45.1365006  19.3695017
 105.5479987  46.0635006  19.3695017 104.8989987  45.3515006  30.8425017
 105.8559987  45.3515006  30.8425017 104.6589987  46.2785006  30.8425017
 106.7849987  44.5935006  22.1935017 107.7419987  44.5935006  22.1935017
 106.5449987  45.5205006  22.1935017  97.9669987  44.7855006  27.4315017
  98.9239987  44.7855006  27.4315017  97.7269987  45.7125006  27.4315017
 101.3599987  42.1505006  14.2575017 102.3169987  42.1505006  14.2575017
 101.1199987  43.0775006  14.2575017  94.6109987  41.9215006  21.3665017
  95.5679987  41.9215006  21.3665017  94.3709987  42.8485006  21.3665017
  95.8899987  42.6105006  16.7465017  96.8469987  42.6105006  16.7465017
  95.6499987  43.5375006  16.7465017 106.0439987  46.2115006  26.8055017
 107.0009987  46.2115006  26.8055017 105.8039987  47.1385006  26.8055017
 102.8459987  42.1645006  21.5965017 103.8029987  42.1645006  21.5965017
 102.6059987  43.0915006  21.5965017  97.6599987  43.7505006  20.4655017
  98.6169987  43.7505006  20.4655017  97.4199987  44.6775006  20.4655017
 101.3089987  43.7795006  18.0875017 102.2659987  43.7795006  18.0875017
 101.0689987  44.7065006  18.0875017 107.2409987  41.3645006  24.9025017
 108.1979987  41.3645006  24.9025017 107.0009987  42.2915006  24.9025017
 100.0029987  44.9755006  15.6875017 100.9599987  44.9755006  15.6875017
  99.7629987  45.9025006  15.6875017  98.1339987  49.5335006  30.7325017
  99.0909987  49.5335006  30.7325017  97.8939987  50.4605006  30.7325017
 104.0949987  44.9315006  23.4525017 105.0519987  44.9315006  23.4525017
 103.8549987  45.8585006  23.4525017  99.1449987  41.0845006  19.9305017
 100.1019987  41.0845006  19.9305017  98.9049987  42.0115006  19.9305017
 102.7579987  43.2765006  25.9085017 103.7149987  43.2765006  25.9085017
 102.5179987  44.2035006  25.9085017 103.3669987  49.5065006  17.5975017
 104.3239987  49.5065006  17.5975017 103.1269987  50.4335006  17.5975017
 107.1599987  42.3375006  15.7905017 108.1169987  42.3375006  15.7905017
 106.9199987  43.2645006  15.7905017 104.8409987  49.7225006  28.8365017
 105.7979987  49.7225006  28.8365017 104.6009987  50.6495006  28.8365017
   0.1189987  44.3225006  17.4885017   1.0759987  44.3225006  17.4885017
  -0.1210013  45.2495006  17.4885017  98.4429987  48.8585006  23.3885017
  99.3999987  48.8585006  23.3885017  98.2029987  49.7855006  23.3885017
 105.4569987  50.9565006  16.6205017 106.4139987  50.9565006  16.6205017
 105.2169987  51.8835006  16.6205017  95.4639987  47.3045006  28.6795017
  96.4209987  47.3045006  28.6795017  95.2239987  48.2315006  28.6795017
 102.4719987  46.8455006  30.8605017 103.4289987  46.8455006  30.8605017
 102.2319987  47.7725006  30.8605017 107.1539987  52.2185006  28.7715017
 108.1109987  52.2185006  28.7715017 106.9139987  53.1455006  28.7715017
 100.8369987  52.3365006  20.7865017 101.7939987  52.3365006  20.7865017
 100.5969987  53.2635006  20.7865017  96.5869987  47.1815006  15.3765017
  97.5439987  47.1815006  15.3765017  96.3469987  48.1085006  15.3765017
 102.2549987  50.0045006  20.3125017 103.2119987  50.0045006  20.3125017
 102.0149987  50.9315006  20.3125017 102.6939987  54.1785006  26.7045017
 103.6509987  54.1785006  26.7045017 102.4539987  55.1055006  26.7045017
 100.9349987  55.0055006  19.8525017 101.8919987  55.0055006  19.8525017
 100.6949987  55.9325006  19.8525017 106.2749987  50.1885006  26.3595017
 107.2319987  50.1885006  26.3595017 106.0349987  51.1155006  26.3595017
  97.1109987  42.0245006  28.2185017  98.0679987  42.0245006  28.2185017
  96.8709987  42.9515006  28.2185017  96.6829987  53.7905006  26.6865017
  97.6399987  53.7905006  26.6865017  96.4429987  54.7175006  26.6865017
 102.6649987  52.3325006  13.8965017 103.6219987  52.3325006  13.8965017
 102.4249987  53.2595006  13.8965017 101.4919987  51.8595006  16.3605017
 102.4489987  51.8595006  16.3605017 101.2519987  52.7865006  16.3605017
  97.9969987  49.1045006  16.8535017  98.9539987  49.1045006  16.8535017
  97.7569987  50.0315006  16.8535017 105.8499987  41.7845006  27.1645017
 106.8069987  41.7845006  27.1645017 105.6099987  42.7115006  27.1645017
 106.3259987  41.6025006  18.2295017 107.2829987  41.6025006  18.2295017
 106.0859987  42.5295006  18.2295017 104.2859987  53.5265006  17.0855017
 105.2429987  53.5265006  17.0855017 104.0459987  54.4535006  17.0855017
 103.7919987  43.1545006  19.0725017 104.7489987  43.1545006  19.0725017
 103.5519987  44.0815006  19.0725017 104.3299987  44.1055006  28.2725017
 105.2869987  44.1055006  28.2725017 104.0899987  45.0325006  28.2725017
 104.6999987  40.1905006  19.9845017 105.6569987  40.1905006  19.9845017
 104.4599987  41.1175006  19.9845017 101.6349987  54.5655006  17.0835017
 102.5919987  54.5655006  17.0835017 101.3949987  55.4925006  17.0835017
 100.3269987  41.2805006  16.6825017 101.2839987  41.2805006  16.6825017
 100.0869987  42.2075006  16.6825017  98.5649987  51.7235006  15.7335017
  99.5219987  51.7235006  15.7335017  98.3249987  52.6505006  15.7335017
  96.8739987  44.3895006  14.8885017  97.8309987  44.3895006  14.8885017
  96.6339987  45.3165006  14.8885017  97.7229987  39.1855006  23.5875017
  98.6799987  39.1855006  23.5875017  97.4829987  40.1125006  23.5875017
  96.6739987  53.1025006  19.7335017  97.6309987  53.1025006  19.7335017
  96.4339987  54.0295006  19.7335017  95.8979987  55.7325006  31.0205017
  96.8549987  55.7325006  31.0205017  95.6579987  56.6595006  31.0205017
 100.5439987  54.6565006  32.6675017 101.5009987  54.6565006  32.6675017
 100.3039987  55.5835006  32.6675017 104.7059987  54.1705006  14.0335017
 105.6629987  54.1705006  14.0335017 104.4659987  55.0975006  14.0335017
 107.1349987  53.0545006  31.3805017 108.0919987  53.0545006  31.3805017
 106.8949987  53.9815006  31.3805017  95.8219987  49.5495006  32.0055017
  96.7789987  49.5495006  32.0055017  95.5819987  50.4765006  32.0055017
 100.1399987  49.8655006  14.0645017 101.0969987  49.8655006  14.0645017
  99.8999987  50.7925006  14.0645017 102.4989987  49.5145006  31.4235017
 103.4559987  49.5145006  31.4235017 102.2589987  50.4415006  31.4235017
 105.6029987  50.9575006  13.8405017 106.5599987  50.9575006  13.8405017
 105.3629987  51.8845006  13.8405017  96.7049987  46.7535006  31.4065017
  97.6619987  46.7535006  31.4065017  96.4649987  47.6805006  31.4065017
 101.3509987  47.8875006  16.4645017 102.3079987  47.8875006  16.4645017
 101.1109987  48.8145006  16.4645017 100.6179987  45.7115006  28.7735017
 101.5749987  45.7115006  28.7735017 100.3779987  46.6385006  28.7735017
 102.4219987  46.1095006  14.6855017 103.3789987  46.1095006  14.6855017
 102.1819987  47.0365006  14.6855017 105.6749987  48.2515006  32.1205017
 106.6319987  48.2515006  32.1205017 105.4349987  49.1785006  32.1205017
 101.0139987  43.0865006  29.8405017 101.9709987  43.0865006  29.8405017
 100.7739987  44.0135006  29.8405017 101.4069987  41.4585006  27.3735017
 102.3639987  41.4585006  27.3735017 101.1669987  42.3855006  27.3735017
 102.9779987  46.9305006  27.6225017 103.9349987  46.9305006  27.6225017
 102.7379987  47.8575006  27.6225017 107.3889987  44.7105006  32.7155017
 108.3459987  44.7105006  32.7155017 107.1489987  45.6375006  32.7155017
  99.4529987  44.3355006  31.7485017 100.4099987  44.3355006  31.7485017
  99.2129987  45.2625006  31.7485017 102.2179987  38.9035006  27.7775017
 103.1749987  38.9035006  27.7775017 101.9779987  39.8305006  27.7775017
 103.4959987  43.1885006  31.3925017 104.4529987  43.1885006  31.3925017
 103.2559987  44.1155006  31.3925017 106.1319987  42.3425006  30.4575017
 107.0889987  42.3425006  30.4575017 105.8919987  43.2695006  30.4575017
 107.8079987  41.0345006  32.3535017 108.7649987  41.0345006  32.3535017
 107.5679987  41.9615006  32.3535017  97.5719987  42.2505006  31.4875017
  98.5289987  42.2505006  31.4875017  97.3319987  43.1775006  31.4875017
 102.4289987  38.2875006  30.4725017 103.3859987  38.2875006  30.4725017
 102.1889987  39.2145006  30.4725017 102.8439987  39.9335006  32.5325017
 103.8009987  39.9335006  32.5325017 102.6039987  40.8605006  32.5325017
 102.2629987  56.8065006  15.7415017 103.2199987  56.8065006  15.7415017
 102.0229987  57.7335006  15.7415017  95.8229987  51.4045006  15.2105017
  96.7799987  51.4045006  15.2105017  95.5829987  52.3315006  15.2105017
  94.5829987  56.7785006  20.2025017  95.5399987  56.7785006  20.2025017
  94.3429987  57.7055006  20.2025017  95.4079987  54.9055006  22.0565017
  96.3649987  54.9055006  22.0565017  95.1679987  55.8325006  22.0565017
  95.4609987  47.9635006  24.5305017  96.4179987  47.9635006  24.5305017
  95.2209987  48.8905006  24.5305017  95.0829987  43.2745006  30.6915017
  96.0399987  43.2745006  30.6915017  94.8429987  44.2015006  30.6915017
  96.2769987  41.5735006  23.5505017  97.2339987  41.5735006  23.5505017
  96.0369987  42.5005006  23.5505017  94.5639987  44.5835006  24.5815017
  95.5209987  44.5835006  24.5815017  94.3239987  45.5105006  24.5815017
  94.9359987  40.8315006  18.6695017  95.8929987  40.8315006  18.6695017
  94.6959987  41.7585006  18.6695017  94.8859987  39.5035006  26.9785017
  95.8429987  39.5035006  26.9785017  94.6459987  40.4305006  26.9785017
  97.1239987  52.6925006  31.1255017  98.0809987  52.6925006  31.1255017
  96.8839987  53.6195006  31.1255017 100.0159987  53.6895006  27.4065017
 100.9729987  53.6895006  27.4065017  99.7759987  54.6165006  27.4065017
 104.3349987  55.1225006  30.3495017 105.2919987  55.1225006  30.3495017
 104.0949987  56.0495006  30.3495017 106.6889987  56.4255006  29.5765017
 107.6459987  56.4255006  29.5765017 106.4489987  57.3525006  29.5765017
  97.4239987  56.9155006  27.4145017  98.3809987  56.9155006  27.4145017
  97.1839987  57.8425006  27.4145017  99.9119987  56.5255006  26.4895017
 100.8689987  56.5255006  26.4895017  99.6719987  57.4525006  26.4895017
 104.5959987  56.4275006  25.6555017 105.5529987  56.4275006  25.6555017
 104.3559987  57.3545006  25.6555017 106.9359987  55.2945006  26.6655017
 107.8929987  55.2945006  26.6655017 106.6959987  56.2215006  26.6655017
  96.8669987  55.5755006  24.3495017  97.8239987  55.5755006  24.3495017
  96.6269987  56.5025006  24.3495017  98.9709987  54.2985006  23.0025017
  99.9279987  54.2985006  23.0025017  98.7309987  55.2255006  23.0025017
 101.5369987  54.7825006  23.8705017 102.4939987  54.7825006  23.8705017
 101.2969987  55.7095006  23.8705017 105.0109987  40.4205006  22.9975017
 105.9679987  40.4205006  22.9975017 104.7709987  41.3475006  22.9975017
  97.3999987  39.0625006  20.8545017  98.3569987  39.0625006  20.8545017
  97.1599987  39.9895006  20.8545017  96.1849987  38.8235006  16.5985017
  97.1419987  38.8235006  16.5985017  95.9449987  39.7505006  16.5985017
 101.9009987  38.9705006  20.6445017 102.8579987  38.9705006  20.6445017
 101.6609987  39.8975006  20.6445017 107.4669987  38.9275006  22.4455017
 108.4239987  38.9275006  22.4455017 107.2269987  39.8545006  22.4455017
  96.0959987  54.7675006  17.5875017  97.0529987  54.7675006  17.5875017
  95.8559987  55.6945006  17.5875017  98.0109987  40.7495006  15.0945017
  98.9679987  40.7495006  15.0945017  97.7709987  41.6765006  15.0945017
 103.0449987  41.0095006  17.5035017 104.0019987  41.0095006  17.5035017
 102.8049987  41.9365006  17.5035017 104.9369987  56.0505006  15.9385017
 105.8939987  56.0505006  15.9385017 104.6969987  56.9775006  15.9385017
  97.2909987  39.5935006  30.3195017  98.2479987  39.5935006  30.3195017
  97.0509987  40.5205006  30.3195017  99.2949987  38.9665006  31.9325017
 100.2519987  38.9665006  31.9325017  99.0549987  39.8935006  31.9325017
  97.8909987  55.7385006  14.5505017  98.8479987  55.7385006  14.5505017
  97.6509987  56.6655006  14.5505017  -0.0990013  38.3455006  32.1205017
   0.8579987  38.3455006  32.1205017  -0.3390013  39.2725006  32.1205017
  12.1889987  67.0375006  20.7455017  13.1459987  67.0375006  20.7455017
  11.9489987  67.9645006  20.7455017  11.0809987  66.3135006  24.2255017
  12.0379987  66.3135006  24.2255017  10.8409987  67.2405006  24.2255017
   3.4769987  65.9475006  25.7545017   4.4339987  65.9475006  25.7545017
   3.2369987  66.8745006  25.7545017  14.7609987  69.2575006  22.4915017
  15.7179987  69.2575006  22.4915017  14.5209987  70.1845006  22.4915017
   4.3409987  70.4175006  24.3055017   5.2979987  70.4175006  24.3055017
   4.1009987  71.3445006  24.3055017   1.0659987  64.0945006  19.7105017
   2.0229987  64.0945006  19.7105017   0.8259987  65.0215006  19.7105017
   1.6879987  66.1855006  21.8885017   2.6449987  66.1855006  21.8885017
   1.4479987  67.1125006  21.8885017  11.8289987  74.3675006  22.7245017
  12.7859987  74.3675006  22.7245017  11.5889987  75.2945006  22.7245017
   9.4499987  68.7315006  24.6615017  10.4069987  68.7315006  24.6615017
   9.2099987  69.6585006  24.6615017  12.6399987  63.1815006  24.9765017
  13.5969987  63.1815006  24.9765017  12.3999987  64.1085006  24.9765017
   5.7359987  61.2565006  22.2145017   6.6929987  61.2565006  22.2145017
   5.4959987  62.1835006  22.2145017   2.5409987  63.7165006  22.8655017
   3.4979987  63.7165006  22.8655017   2.3009987  64.6435006  22.8655017
   7.5179987  65.2245006  22.2545017   8.4749987  65.2245006  22.2545017
   7.2779987  66.1515006  22.2545017   4.6289987  60.1675006  26.2815017
   5.5859987  60.1675006  26.2815017   4.3889987  61.0945006  26.2815017
  11.9279987  69.6515006  19.8235017  12.8849987  69.6515006  19.8235017
  11.6879987  70.5785006  19.8235017   7.1539987  67.8115006  26.5255017
   8.1109987  67.8115006  26.5255017   6.9139987  68.7385006  26.5255017
   4.2039987  62.0025006  24.2965017   5.1609987  62.0025006  24.2965017
   3.9639987  62.9295006  24.2965017   5.5919987  69.7975006  27.3285017
   6.5489987  69.7975006  27.3285017   5.3519987  70.7245006  27.3285017
   1.7049987  69.4525006  18.0995017   2.6619987  69.4525006  18.0995017
   1.4649987  70.3795006  18.0995017  15.2959987  71.1005006  24.9175017
  16.2529987  71.1005006  24.9175017  15.0559987  72.0275006  24.9175017
   8.5899987  57.4915006  23.7265017   9.5469987  57.4915006  23.7265017
   8.3499987  58.4185006  23.7265017  13.5159987  72.8825006  21.4595017
  14.4729987  72.8825006  21.4595017  13.2759987  73.8095006  21.4595017
  14.7469987  70.7955006  19.9835017  15.7039987  70.7955006  19.9835017
  14.5069987  71.7225006  19.9835017  16.7019987  69.2795006  28.3775017
  17.6589987  69.2795006  28.3775017  16.4619987  70.2065006  28.3775017
  10.8699987  66.2985006  18.2485017  11.8269987  66.2985006  18.2485017
  10.6299987  67.2255006  18.2485017  10.9369987  64.8265006  15.2605017
  11.8939987  64.8265006  15.2605017  10.6969987  65.7535006  15.2605017
  14.2919987  66.5195006  19.1535017  15.2489987  66.5195006  19.1535017
  14.0519987  67.4465006  19.1535017  14.2309987  64.6755006  28.2755017
  15.1879987  64.6755006  28.2755017  13.9909987  65.6025006  28.2755017
   5.9529987  67.1775006  21.0765017   6.9099987  67.1775006  21.0765017
   5.7129987  68.1045006  21.0765017   7.2859987  70.5925006  23.7345017
   8.2429987  70.5925006  23.7345017   7.0459987  71.5195006  23.7345017
   6.2829987  65.9095006  24.7285017   7.2399987  65.9095006  24.7285017
   6.0429987  66.8365006  24.7285017  12.6779987  71.4705006  25.4475017
  13.6349987  71.4705006  25.4475017  12.4379987  72.3975006  25.4475017
   7.2069987  70.3265006  29.4295017   8.1639987  70.3265006  29.4295017
   6.9669987  71.2535006  29.4295017  13.1679987  65.6845006  16.8365017
  14.1249987  65.6845006  16.8365017  12.9279987  66.6115006  16.8365017
   4.1249987  66.4995006  28.6215017   5.0819987  66.4995006  28.6215017
   3.8849987  67.4265006  28.6215017  10.8799987  72.3915006  20.3205017
  11.8369987  72.3915006  20.3205017  10.6399987  73.3185006  20.3205017
   5.4419987  72.3775006  30.1865017   6.3989987  72.3775006  30.1865017
   5.2019987  73.3045006  30.1865017  16.8949987  57.4235006  16.7015017
  17.8519987  57.4235006  16.7015017  16.6549987  58.3505006  16.7015017
   4.9259987  66.2015006  18.6935017   5.8829987  66.2015006  18.6935017
   4.6859987  67.1285006  18.6935017  18.0259987  71.7815006  15.0745017
  18.9829987  71.7815006  15.0745017  17.7859987  72.7085006  15.0745017
   1.1249987  68.5855006  27.5095017   2.0819987  68.5855006  27.5095017
   0.8849987  69.5125006  27.5095017   1.0089987  71.4825006  24.0855017
   1.9659987  71.4825006  24.0855017   0.7689987  72.4095006  24.0855017
  18.9639987  72.0395006  30.0345017  19.9209987  72.0395006  30.0345017
  18.7239987  72.9665006  30.0345017   9.9529987  71.5845006  28.9245017
  10.9099987  71.5845006  28.9245017   9.7129987  72.5115006  28.9245017
  10.3659987  75.3435006  18.7435017  11.3229987  75.3435006  18.7435017
  10.1259987  76.2705006  18.7435017   4.0359987  74.1955006  20.5105017
   4.9929987  74.1955006  20.5105017   3.7959987  75.1225006  20.5105017
  13.4439987  74.5465006  15.6955017  14.4009987  74.5465006  15.6955017
  13.2039987  75.4735006  15.6955017  13.1349987  74.4795006  18.4795017
  14.0919987  74.4795006  18.4795017  12.8949987  75.4065006  18.4795017
  16.0859987  63.5285006  30.5455017  17.0429987  63.5285006  30.5455017
  15.8459987  64.4555006  30.5455017   3.2629987  69.9565006  28.5395017
   4.2199987  69.9565006  28.5395017   3.0229987  70.8835006  28.5395017
   5.9369987  58.3975006  24.4795017   6.8939987  58.3975006  24.4795017
   5.6969987  59.3245006  24.4795017  10.5909987  58.0765006  27.8515017
  11.5479987  58.0765006  27.8515017  10.3509987  59.0035006  27.8515017
  13.8659987  61.8845006  28.7185017  14.8229987  61.8845006  28.7185017
  13.6259987  62.8115006  28.7185017  14.6369987  66.7175006  14.5955017
  15.5939987  66.7175006  14.5955017  14.3969987  67.6445006  14.5955017
  10.2349987  60.6365006  15.1495017  11.1919987  60.6365006  15.1495017
   9.9949987  61.5635006  15.1495017   6.0449987  63.3595006  25.7015017
   7.0019987  63.3595006  25.7015017   5.8049987  64.2865006  25.7015017
   5.9849987  63.5165006  20.5805017   6.9419987  63.5165006  20.5805017
   5.7449987  64.4435006  20.5805017  11.5409987  63.9835006  19.3775017
  12.4979987  63.9835006  19.3775017  11.3009987  64.9105006  19.3775017
  10.5989987  64.1935006  30.8105017  11.5559987  64.1935006  30.8105017
  10.3589987  65.1205006  30.8105017  12.6259987  63.4445006  22.1745017
  13.5829987  63.4445006  22.1745017  12.3859987  64.3715006  22.1745017
   3.7039987  63.6345006  27.4405017   4.6609987  63.6345006  27.4405017
   3.4639987  64.5615006  27.4405017   7.0789987  61.0245006  14.2625017
   8.0359987  61.0245006  14.2625017   6.8389987  61.9515006  14.2625017
   0.4279987  60.0575006  21.7125017   1.3849987  60.0575006  21.7125017
   0.1879987  60.9845006  21.7125017   1.8009987  61.4675006  16.8505017
   2.7579987  61.4675006  16.8505017   1.5609987  62.3945006  16.8505017
  11.7599987  65.0665006  26.7705017  12.7169987  65.0665006  26.7705017
  11.5199987  65.9935006  26.7705017   8.5659987  61.0285006  21.6005017
   9.5229987  61.0285006  21.6005017   8.3259987  61.9555006  21.6005017
   3.3929987  62.5815006  20.4525017   4.3499987  62.5815006  20.4525017
   3.1529987  63.5085006  20.4525017   7.0239987  62.6285006  18.0895017
   7.9809987  62.6285006  18.0895017   6.7839987  63.5555006  18.0895017
  12.9579987  60.2815006  24.8225017  13.9149987  60.2815006  24.8225017
  12.7179987  61.2085006  24.8225017   5.7079987  63.8225006  15.6755017
   6.6649987  63.8225006  15.6755017   5.4679987  64.7495006  15.6755017
  16.1949987  75.9105006  31.1565017  17.1519987  75.9105006  31.1565017
  15.9549987  76.8375006  31.1565017   3.8569987  68.3615006  30.7505017
   4.8139987  68.3615006  30.7505017   3.6169987  69.2885006  30.7505017
   9.8579987  63.7995006  23.5025017  10.8149987  63.7995006  23.5025017
   9.6179987  64.7265006  23.5025017   4.8559987  59.9465006  19.9135017
   5.8129987  59.9465006  19.9135017   4.6159987  60.8735006  19.9135017
   8.4949987  62.1305006  25.9075017   9.4519987  62.1305006  25.9075017
   8.2549987  63.0575006  25.9075017   9.0809987  68.3615006  17.6005017
  10.0379987  68.3615006  17.6005017   8.8409987  69.2885006  17.6005017
  16.2059987  67.5815006  26.4295017  17.1629987  67.5815006  26.4295017
  15.9659987  68.5085006  26.4295017  12.9139987  61.1685006  15.7905017
  13.8709987  61.1685006  15.7905017  12.6739987  62.0955006  15.7905017
  10.6329987  68.6125006  28.8655017  11.5899987  68.6125006  28.8655017
  10.3929987  69.5395006  28.8655017  13.6379987  63.0655006  17.4435017
  14.5949987  63.0655006  17.4435017  13.3979987  63.9925006  17.4435017
   4.1859987  67.7335006  23.4025017   5.1429987  67.7335006  23.4025017
   3.9459987  68.6605006  23.4025017  11.1879987  69.8185006  16.6275017
  12.1449987  69.8185006  16.6275017  10.9479987  70.7455006  16.6275017
   1.1629987  66.1505006  28.6805017   2.1199987  66.1505006  28.6805017
   0.9229987  67.0775006  28.6805017   8.1899987  65.7025006  30.8635017
   9.1469987  65.7025006  30.8635017   7.9499987  66.6295006  30.8635017
  12.6769987  71.1305006  28.7455017  13.6339987  71.1305006  28.7455017
  12.4369987  72.0575006  28.7455017  18.5379987  63.2255006  17.1705017
  19.4949987  63.2255006  17.1705017  18.2979987  64.1525006  17.1705017
  18.5669987  69.0705006  30.0455017  19.5239987  69.0705006  30.0455017
  18.3269987  69.9975006  30.0455017  16.8149987  72.0585006  17.5905017
  17.7719987  72.0585006  17.5905017  16.5749987  72.9855006  17.5905017
  14.0229987  66.8815006  24.7205017  14.9799987  66.8815006  24.7205017
  13.7829987  67.8085006  24.7205017   6.5659987  71.1915006  20.8045017
   7.5229987  71.1915006  20.8045017   6.3259987  72.1185006  20.8045017
   2.2869987  66.0315006  15.3835017   3.2439987  66.0315006  15.3835017
   2.0469987  66.9585006  15.3835017   7.9909987  68.8705006  20.3215017
   8.9479987  68.8705006  20.3215017   7.7509987  69.7975006  20.3215017
   8.4439987  73.0315006  26.6805017   9.4009987  73.0315006  26.6805017
   8.2039987  73.9585006  26.6805017   6.6869987  73.8555006  19.8985017
   7.6439987  73.8555006  19.8985017   6.4469987  74.7825006  19.8985017
  12.0319987  69.0915006  26.3825017  12.9889987  69.0915006  26.3825017
  11.7919987  70.0185006  26.3825017  14.2719987  70.1005006  15.4245017
  15.2289987  70.1005006  15.4245017  14.0319987  71.0275006  15.4245017
  14.7639987  73.5805006  28.8195017  15.7209987  73.5805006  28.8195017
  14.5239987  74.5075006  28.8195017  18.7389987  74.4775006  15.6535017
  19.6959987  74.4775006  15.6535017  18.4989987  75.4045006  15.6535017
   2.8079987  60.8835006  28.2255017   3.7649987  60.8835006  28.2255017
   2.5679987  61.8105006  28.2255017  15.0699987  68.7415006  17.6585017
  16.0269987  68.7415006  17.6585017  14.8299987  69.6685006  17.6585017
   2.4799987  72.6865006  26.6375017   3.4369987  72.6865006  26.6375017
   2.2399987  73.6135006  26.6375017   8.3909987  71.1855006  13.9045017
   9.3479987  71.1855006  13.9045017   8.1509987  72.1125006  13.9045017
   7.2219987  70.7135006  16.3555017   8.1789987  70.7135006  16.3555017
   6.9819987  71.6405006  16.3555017   3.6919987  67.9445006  16.8415017
   4.6489987  67.9445006  16.8415017   3.4519987  68.8715006  16.8415017
  11.5479987  60.6505006  27.1575017  12.5049987  60.6505006  27.1575017
  11.3079987  61.5775006  27.1575017  12.3149987  60.2505006  18.2765017
  13.2719987  60.2505006  18.2765017  12.0749987  61.1775006  18.2765017
  10.0069987  72.4025006  17.1075017  10.9639987  72.4025006  17.1075017
   9.7669987  73.3295006  17.1075017   9.5389987  61.9825006  19.0795017
  10.4959987  61.9825006  19.0795017   9.2989987  62.9095006  19.0795017
  10.0849987  62.9995006  28.2655017  11.0419987  62.9995006  28.2655017
   9.8449987  63.9265006  28.2655017  10.4099987  59.0495006  20.0045017
  11.3669987  59.0495006  20.0045017  10.1699987  59.9765006  20.0045017
   7.3939987  73.4245006  17.1015017   8.3509987  73.4245006  17.1015017
   7.1539987  74.3515006  17.1015017   6.0509987  60.1405006  16.6785017
   7.0079987  60.1405006  16.6785017   5.8109987  61.0675006  16.6785017
  16.2779987  60.8945006  29.0855017  17.2349987  60.8945006  29.0855017
  16.0379987  61.8215006  29.0855017  14.8679987  64.6595006  23.1035017
  15.8249987  64.6595006  23.1035017  14.6279987  65.5865006  23.1035017
   4.2929987  70.5835006  15.7225017   5.2499987  70.5835006  15.7225017
   4.0529987  71.5105006  15.7225017   2.5799987  63.2615006  14.9075017
   3.5369987  63.2615006  14.9075017   2.3399987  64.1885006  14.9075017
  15.9429987  73.9005006  24.8155017  16.8999987  73.9005006  24.8155017
  15.7029987  74.8275006  24.8155017   3.4639987  58.0385006  23.5725017
   4.4209987  58.0385006  23.5725017   3.2239987  58.9655006  23.5725017
   2.3859987  71.9695006  19.7465017   3.3429987  71.9695006  19.7465017
   2.1459987  72.8965006  19.7465017   1.7139987  74.5515006  30.9585017
   2.6709987  74.5515006  30.9585017   1.4739987  75.4785006  30.9585017
   6.2809987  73.5095006  32.6475017   7.2379987  73.5095006  32.6475017
   6.0409987  74.4365006  32.6475017  10.3979987  73.0405006  14.0485017
  11.3549987  73.0405006  14.0485017  10.1579987  73.9675006  14.0485017
  12.8699987  71.8525006  31.3245017  13.8269987  71.8525006  31.3245017
  12.6299987  72.7795006  31.3245017  14.9679987  72.7985006  14.2375017
  15.9249987  72.7985006  14.2375017  14.7279987  73.7255006  14.2375017
   1.5089987  68.3945006  32.0225017   2.4659987  68.3945006  32.0225017
   1.2689987  69.3215006  32.0225017   5.8659987  68.7325006  14.0705017
   6.8229987  68.7325006  14.0705017   5.6259987  69.6595006  14.0705017
   8.2309987  68.3705006  31.4175017   9.1879987  68.3705006  31.4175017
   7.9909987  69.2975006  31.4175017  11.2829987  69.8255006  13.8315017
  12.2399987  69.8255006  13.8315017  11.0429987  70.7525006  13.8315017
  13.8579987  68.1055006  28.7795017  14.8149987  68.1055006  28.7795017
  13.6179987  69.0325006  28.7795017   2.3639987  65.5885006  31.4015017
   3.3209987  65.5885006  31.4015017   2.1239987  66.5155006  31.4015017
   7.0769987  66.7355006  16.4645017   8.0339987  66.7355006  16.4645017
   6.8369987  67.6625006  16.4645017   6.3379987  64.5665006  28.7735017
   7.2949987  64.5665006  28.7735017   6.0979987  65.4935006  28.7735017
   8.1329987  64.9615006  14.6785017   9.0899987  64.9615006  14.6785017
   7.8929987  65.8885006  14.6785017  11.3959987  67.1155006  32.0775017
  12.3529987  67.1155006  32.0775017  11.1559987  68.0425006  32.0775017
  17.4899987  67.2915006  14.1225017  18.4469987  67.2915006  14.1225017
  17.2499987  68.2185006  14.1225017   6.7329987  61.9405006  29.8415017
   7.6899987  61.9405006  29.8415017   6.4929987  62.8675006  29.8415017
   7.1309987  60.3175006  27.3735017   8.0879987  60.3175006  27.3735017
   6.8909987  61.2445006  27.3735017   8.6819987  65.7865006  27.6205017
   9.6389987  65.7865006  27.6205017   8.4419987  66.7135006  27.6205017
  13.0789987  63.5595006  32.6145017  14.0359987  63.5595006  32.6145017
  12.8389987  64.4865006  32.6145017  14.4279987  66.3585006  30.7435017
  15.3849987  66.3585006  30.7435017  14.1879987  67.2855006  30.7435017
   5.1809987  63.1895006  31.7505017   6.1379987  63.1895006  31.7505017
   4.9409987  64.1165006  31.7505017   7.9139987  57.7635006  27.7855017
   8.8709987  57.7635006  27.7855017   7.6739987  58.6905006  27.7855017
   9.1959987  62.0875006  31.3815017  10.1529987  62.0875006  31.3815017
   8.9559987  63.0145006  31.3815017  11.9139987  61.2135006  30.4435017
  12.8709987  61.2135006  30.4435017  11.6739987  62.1405006  30.4435017
  13.4919987  59.8505006  32.3875017  14.4489987  59.8505006  32.3875017
  13.2519987  60.7775006  32.3875017   3.3269987  61.1145006  31.4975017
   4.2839987  61.1145006  31.4975017   3.0869987  62.0415006  31.4975017
   8.1359987  57.1245006  30.4715017   9.0929987  57.1245006  30.4715017
   7.8959987  58.0515006  30.4715017   8.5029987  58.7575006  32.5605017
   9.4599987  58.7575006  32.5605017   8.2629987  59.6845006  32.5605017
   7.9799987  75.6575006  15.7395017   8.9369987  75.6575006  15.7395017
   7.7399987  76.5845006  15.7395017   1.5899987  70.2715006  15.1945017
   2.5469987  70.2715006  15.1945017   1.3499987  71.1985006  15.1945017
 108.0929987  75.6965006  20.2145017 109.0499987  75.6965006  20.2145017
 107.8529987  76.6235006  20.2145017   1.5139987  73.9105006  22.1655017
   2.4709987  73.9105006  22.1655017   1.2739987  74.8375006  22.1655017
  18.6959987  74.5335006  25.0075017  19.6529987  74.5335006  25.0075017
  18.4559987  75.4605006  25.0075017  18.2339987  74.1525006  27.9575017
  19.1909987  74.1525006  27.9575017  17.9939987  75.0795006  27.9575017
  16.6569987  69.9175006  32.5495017  17.6139987  69.9175006  32.5495017
  16.4169987  70.8445006  32.5495017  17.9839987  68.1895006  18.0815017
  18.9409987  68.1895006  18.0815017  17.7439987  69.1165006  18.0815017
  18.1459987  68.9825006  24.9335017  19.1029987  68.9825006  24.9335017
  17.9059987  69.9095006  24.9335017  16.6329987  71.8295006  27.2325017
  17.5899987  71.8295006  27.2325017  16.3929987  72.7565006  27.2325017
  18.6609987  66.1095006  16.3325017  19.6179987  66.1095006  16.3325017
  18.4209987  67.0365006  16.3325017  17.0259987  63.3475006  14.8525017
  17.9829987  63.3475006  14.8525017  16.7859987  64.2745006  14.8525017
  16.1639987  64.7545006  20.4875017  17.1209987  64.7545006  20.4875017
  15.9239987  65.6815006  20.4875017   1.1829987  66.8265006  24.5535017
   2.1399987  66.8265006  24.5535017   0.9429987  67.7535006  24.5535017
  17.0349987  66.7305006  30.1545017  17.9919987  66.7305006  30.1545017
  16.7949987  67.6575006  30.1545017  18.4519987  64.5905006  31.0045017
  19.4089987  64.5905006  31.0045017  18.2119987  65.5175006  31.0045017
  16.2689987  60.8015006  13.9795017  17.2259987  60.8015006  13.9795017
  16.0289987  61.7285006  13.9795017  15.8489987  62.3415006  18.9845017
  16.8059987  62.3415006  18.9845017  15.6089987  63.2685006  18.9845017
  16.5189987  63.6205006  27.1295017  17.4759987  63.6205006  27.1295017
  16.2789987  64.5475006  27.1295017   0.8809987  62.0985006  30.6125017
   1.8379987  62.0985006  30.6125017   0.6409987  63.0255006  30.6125017
  18.8079987  57.6275006  32.5305017  19.7649987  57.6275006  32.5305017
  18.5679987  58.5545006  32.5305017  16.4689987  59.6475006  19.0335017
  17.4259987  59.6475006  19.0335017  16.2289987  60.5745006  19.0335017
   2.0859987  60.4565006  23.5435017   3.0429987  60.4565006  23.5435017
   1.8459987  61.3835006  23.5435017   0.8909987  63.3885006  24.7565017
   1.8479987  63.3885006  24.7565017   0.6509987  64.3155006  24.7565017
  18.3389987  59.6615006  15.5475017  19.2959987  59.6615006  15.5475017
  18.0989987  60.5885006  15.5475017   0.8919987  59.6335006  18.6875017
   1.8489987  59.6335006  18.6875017   0.6519987  60.5605006  18.6875017
  15.3829987  74.6445006  20.6235017  16.3399987  74.6445006  20.6235017
  15.1429987  75.5715006  20.6235017 108.3289987  58.3465006  27.0035017
 109.2859987  58.3465006  27.0035017 108.0889987  59.2735006  27.0035017
   2.8129987  71.5675006  31.1515017   3.7699987  71.5675006  31.1515017
   2.5729987  72.4945006  31.1515017   5.7359987  72.5475006  27.4115017
   6.6929987  72.5475006  27.4115017   5.4959987  73.4745006  27.4115017
  10.0519987  73.9715006  30.3255017  11.0089987  73.9715006  30.3255017
   9.8119987  74.8985006  30.3255017  12.3549987  75.2265006  29.6205017
  13.3119987  75.2265006  29.6205017  12.1149987  76.1535006  29.6205017
  17.3179987  57.8365006  28.7315017  18.2749987  57.8365006  28.7315017
  17.0779987  58.7635006  28.7315017   3.1489987  75.8035006  27.4355017
   4.1059987  75.8035006  27.4355017   2.9089987  76.7305006  27.4355017
   5.6489987  75.3815006  26.4825017   6.6059987  75.3815006  26.4825017
   5.4089987  76.3085006  26.4825017  10.3329987  75.2885006  25.6345017
  11.2899987  75.2885006  25.6345017  10.0929987  76.2155006  25.6345017
  12.6429987  74.1045006  26.6365017  13.5999987  74.1045006  26.6365017
  12.4029987  75.0315006  26.6365017  15.2239987  75.6755006  26.9125017
  16.1809987  75.6755006  26.9125017  14.9839987  76.6025006  26.9125017
   2.6399987  74.4615006  24.4065017   3.5969987  74.4615006  24.4065017
   2.3999987  75.3885006  24.4065017   4.7019987  73.1485006  22.9875017
   5.6589987  73.1485006  22.9875017   4.4619987  74.0755006  22.9875017
   7.3389987  73.6385006  23.8445017   8.2959987  73.6385006  23.8445017
   7.0989987  74.5655006  23.8445017  10.7749987  59.2845006  23.0235017
  11.7319987  59.2845006  23.0235017  10.5349987  60.2115006  23.0235017
  15.8839987  57.3835006  23.1245017  16.8409987  57.3835006  23.1245017
  15.6439987  58.3105006  23.1245017  17.5569987  58.5745006  21.3895017
  18.5139987  58.5745006  21.3895017  17.3169987  59.5015006  21.3895017
   3.1309987  57.9135006  20.8125017   4.0879987  57.9135006  20.8125017
   2.8909987  58.8405006  20.8125017   1.9419987  57.6695006  16.6545017
   2.8989987  57.6695006  16.6545017   1.7019987  58.5965006  16.6545017
   7.6089987  57.8345006  20.6455017   8.5659987  57.8345006  20.6455017
   7.3689987  58.7615006  20.6455017  13.2819987  57.8735006  22.2765017
  14.2389987  57.8735006  22.2765017  13.0419987  58.8005006  22.2765017
  14.5789987  57.9025006  17.9905017  15.5359987  57.9025006  17.9905017
  14.3389987  58.8295006  17.9905017   1.9229987  73.6385006  17.5815017
   2.8799987  73.6385006  17.5815017   1.6829987  74.5655006  17.5815017
   3.7349987  59.6245006  15.0895017   4.6919987  59.6245006  15.0895017
   3.4949987  60.5515006  15.0895017   8.7829987  59.8725006  17.5045017
   9.7399987  59.8725006  17.5045017   8.5429987  60.7995006  17.5045017
  10.6769987  74.8985006  15.9695017  11.6339987  74.8985006  15.9695017
  10.4369987  75.8255006  15.9695017  17.3859987  74.4345006  18.6615017
  18.3429987  74.4345006  18.6615017  17.1459987  75.3615006  18.6615017
   2.9949987  58.4515006  30.3145017   3.9519987  58.4515006  30.3145017
   2.7549987  59.3785006  30.3145017   5.0119987  57.8305006  31.9305017
   5.9689987  57.8305006  31.9305017   4.7719987  58.7575006  31.9305017
   3.5879987  74.5725006  14.5355017   4.5449987  74.5725006  14.5355017
   3.3479987  75.4995006  14.5355017  13.4109987  57.1215006  32.0955017
  14.3679987  57.1215006  32.0955017  13.1709987  58.0485006  32.0955017
  16.5949987  73.1315006  30.7385017  17.5519987  73.1315006  30.7385017
  16.3549987  74.0585006  30.7385017  20.5629987  69.4425006  18.1415017
  21.5199987  69.4425006  18.1415017  20.3229987  70.3695006  18.1415017
  22.9549987  66.5215006  28.6325017  23.9119987  66.5215006  28.6325017
  22.7149987  67.4485006  28.6325017  24.2649987  72.3475006  30.1755017
  25.2219987  72.3475006  30.1755017  24.0249987  73.2745006  30.1755017
  36.8689987  71.8095006  14.9765017  37.8259987  71.8095006  14.9765017
  36.6289987  72.7365006  14.9765017  19.8309987  68.6055006  27.5685017
  20.7879987  68.6055006  27.5685017  19.5909987  69.5325006  27.5685017
  19.6369987  71.3915006  24.3195017  20.5939987  71.3915006  24.3195017
  19.3969987  72.3185006  24.3195017  32.4679987  74.5595006  15.6995017
  33.4249987  74.5595006  15.6995017  32.2279987  75.4865006  15.6995017
  22.1409987  69.9435006  28.5385017  23.0979987  69.9435006  28.5385017
  21.9009987  70.8705006  28.5385017  19.1679987  60.7475006  21.3365017
  20.1249987  60.7475006  21.3365017  18.9279987  61.6745006  21.3365017
  20.4339987  61.4465006  16.7385017  21.3909987  61.4465006  16.7385017
  20.1939987  62.3735006  16.7385017  22.7139987  68.4205006  30.7175017
  23.6709987  68.4205006  30.7175017  22.4739987  69.3475006  30.7175017
  21.1589987  66.0595006  15.3245017  22.1159987  66.0595006  15.3245017
  20.9189987  66.9865006  15.3245017  37.5309987  74.5025006  15.5595017
  38.4879987  74.5025006  15.5595017  37.2909987  75.4295006  15.5595017
  21.3279987  72.6965006  26.6715017  22.2849987  72.6965006  26.6715017
  21.0879987  73.6235006  26.6715017  22.5509987  67.9525006  16.8365017
  23.5079987  67.9525006  16.8365017  22.3109987  68.8795006  16.8365017
  24.9079987  60.1255006  16.6615017  25.8649987  60.1255006  16.6615017
  24.6679987  61.0525006  16.6615017  23.1559987  70.5565006  15.6915017
  24.1129987  70.5565006  15.6915017  22.9159987  71.4835006  15.6915017
  21.4679987  63.2435006  14.8745017  22.4249987  63.2435006  14.8745017
  21.2279987  64.1705006  14.8745017  20.4439987  74.5855006  31.0595017
  21.4009987  74.5855006  31.0595017  20.2039987  75.5125006  31.0595017
  29.2669987  73.0285006  14.0235017  30.2239987  73.0285006  14.0235017
  29.0269987  73.9555006  14.0235017  20.3799987  68.3925006  32.0375017
  21.3369987  68.3925006  32.0375017  20.1399987  69.3195006  32.0375017
  21.1419987  65.5745006  31.3155017  22.0989987  65.5745006  31.3155017
  20.9019987  66.5015006  31.3155017  26.8539987  75.6645006  15.7615017
  27.8109987  75.6645006  15.7615017  26.6139987  76.5915006  15.7615017
  20.4009987  70.2675006  15.2025017  21.3579987  70.2675006  15.2025017
  20.1609987  71.1945006  15.2025017  19.1529987  75.6485006  20.2155017
  20.1099987  75.6485006  20.2155017  18.9129987  76.5755006  20.2155017
  20.0739987  73.7425006  22.0845017  21.0309987  73.7425006  22.0845017
  19.8339987  74.6695006  22.0845017  36.8609987  68.1315006  18.0925017
  37.8179987  68.1315006  18.0925017  36.6209987  69.0585006  18.0925017
  37.5349987  66.1385006  16.2885017  38.4919987  66.1385006  16.2885017
  37.2949987  67.0655006  16.2885017  19.4999987  59.7015006  18.6825017
  20.4569987  59.7015006  18.6825017  19.2599987  60.6285006  18.6825017
  21.6559987  71.5535006  31.1255017  22.6129987  71.5535006  31.1255017
  21.4159987  72.4805006  31.1255017  20.7469987  57.6745006  16.5975017
  21.7039987  57.6745006  16.5975017  20.5069987  58.6015006  16.5975017
  20.6779987  73.6215006  17.5615017  21.6349987  73.6215006  17.5615017
  20.4379987  74.5485006  17.5615017  22.6009987  59.5835006  15.1245017
  23.5579987  59.5835006  15.1245017  22.3609987  60.5105006  15.1245017
  22.4729987  74.5865006  14.5415017  23.4299987  74.5865006  14.5415017
  22.2329987  75.5135006  14.5415017  49.9149987  67.0465006  20.7535017
  50.8719987  67.0465006  20.7535017  49.6749987  67.9735006  20.7535017
  48.8269987  66.3035006  24.2385017  49.7839987  66.3035006  24.2385017
  48.5869987  67.2305006  24.2385017  52.5009987  69.2575006  22.4885017
  53.4579987  69.2575006  22.4885017  52.2609987  70.1845006  22.4885017
  42.0729987  70.3785006  24.3675017  43.0299987  70.3785006  24.3675017
  41.8329987  71.3055006  24.3675017  49.5969987  74.4125006  22.7655017
  50.5539987  74.4125006  22.7655017  49.3569987  75.3395006  22.7655017
  47.1639987  68.7455006  24.6595017  48.1209987  68.7455006  24.6595017
  46.9239987  69.6725006  24.6595017  51.1819987  61.3575006  20.5855017
  52.1389987  61.3575006  20.5855017  50.9419987  62.2845006  20.5855017
  49.6519987  69.6445006  19.8175017  50.6089987  69.6445006  19.8175017
  49.4119987  70.5715006  19.8175017  44.8879987  67.8185006  26.5625017
  45.8449987  67.8185006  26.5625017  44.6479987  68.7455006  26.5625017
  52.9519987  60.7025006  22.6225017  53.9089987  60.7025006  22.6225017
  52.7119987  61.6295006  22.6225017  43.2909987  69.8105006  27.3855017
  44.2479987  69.8105006  27.3855017  43.0509987  70.7375006  27.3855017
  52.9929987  71.0665006  24.8025017  53.9499987  71.0665006  24.8025017
  52.7529987  71.9935006  24.8025017  51.2529987  72.8775006  21.4655017
  52.2099987  72.8775006  21.4655017  51.0129987  73.8045006  21.4655017
  52.4589987  70.7875006  19.9655017  53.4159987  70.7875006  19.9655017
  52.2189987  71.7145006  19.9655017  48.5709987  66.3045006  18.2485017
  49.5279987  66.3045006  18.2485017  48.3309987  67.2315006  18.2485017
  48.6459987  64.8265006  15.2585017  49.6029987  64.8265006  15.2585017
  48.4059987  65.7535006  15.2585017  55.9829987  65.6585006  26.5185017
  56.9399987  65.6585006  26.5185017  55.7429987  66.5855006  26.5185017
  52.0299987  66.5265006  19.1595017  52.9869987  66.5265006  19.1595017
  51.7899987  67.4535006  19.1595017  45.0209987  70.5805006  23.7495017
  45.9779987  70.5805006  23.7495017  44.7809987  71.5075006  23.7495017
  50.3709987  71.4825006  25.4665017  51.3279987  71.4825006  25.4665017
  50.1309987  72.4095006  25.4665017  44.9199987  70.3195006  29.4505017
  45.8769987  70.3195006  29.4505017  44.6799987  71.2465006  29.4505017
  50.8779987  65.6885006  16.8385017  51.8349987  65.6885006  16.8385017
  50.6379987  66.6155006  16.8385017  48.5959987  72.4195006  20.2985017
  49.5529987  72.4195006  20.2985017  48.3559987  73.3465006  20.2985017
  54.6149987  57.4245006  16.7095017  55.5719987  57.4245006  16.7095017
  54.3749987  58.3515006  16.7095017  55.7589987  71.7915006  15.0935017
  56.7159987  71.7915006  15.0935017  55.5189987  72.7185006  15.0935017
  47.6339987  71.6535006  28.8635017  48.5909987  71.6535006  28.8635017
  47.3939987  72.5805006  28.8635017  48.1139987  75.3295006  18.7135017
  49.0709987  75.3295006  18.7135017  47.8739987  76.2565006  18.7135017
  51.1339987  74.5425006  15.7015017  52.0909987  74.5425006  15.7015017
  50.8939987  75.4695006  15.7015017  50.8449987  74.4615006  18.4615017
  51.8019987  74.4615006  18.4615017  50.6049987  75.3885006  18.4615017
  52.3519987  66.6985006  14.5905017  53.3089987  66.6985006  14.5905017
  52.1119987  67.6255006  14.5905017  47.9629987  60.6395006  15.1635017
  48.9199987  60.6395006  15.1635017  47.7229987  61.5665006  15.1635017
  43.7089987  63.3505006  25.6265017  44.6659987  63.3505006  25.6265017
  43.4689987  64.2775006  25.6265017  49.2339987  63.9905006  19.3765017
  50.1909987  63.9905006  19.3765017  48.9939987  64.9175006  19.3765017
  50.2759987  63.4645006  22.1965017  51.2329987  63.4645006  22.1965017
  50.0359987  64.3915006  22.1965017  44.7949987  61.0235006  14.2485017
  45.7519987  61.0235006  14.2485017  44.5549987  61.9505006  14.2485017
  46.2999987  60.9885006  21.5865017  47.2569987  60.9885006  21.5865017
  46.0599987  61.9155006  21.5865017  44.7299987  62.6275006  18.0845017
  45.6869987  62.6275006  18.0845017  44.4899987  63.5545006  18.0845017
  43.4239987  63.8335006  15.6755017  44.3809987  63.8335006  15.6755017
  43.1839987  64.7605006  15.6755017  47.5759987  63.7895006  23.5115017
  48.5329987  63.7895006  23.5115017  47.3359987  64.7165006  23.5115017
  46.2309987  62.1315006  25.9045017  47.1879987  62.1315006  25.9045017
  45.9909987  63.0585006  25.9045017  46.7649987  68.3755006  17.6155017
  47.7219987  68.3755006  17.6155017  46.5249987  69.3025006  17.6155017
  53.9349987  67.4985006  26.3805017  54.8919987  67.4985006  26.3805017
  53.6949987  68.4255006  26.3805017  50.6329987  61.1715006  15.7805017
  51.5899987  61.1715006  15.7805017  50.3929987  62.0985006  15.7805017
  48.2469987  68.5915006  28.7965017  49.2039987  68.5915006  28.7965017
  48.0069987  69.5185006  28.7965017  51.3499987  63.0695006  17.4165017
  52.3069987  63.0695006  17.4165017  51.1099987  63.9965006  17.4165017
  48.8929987  69.8205006  16.6365017  49.8499987  69.8205006  16.6365017
  48.6529987  70.7475006  16.6365017  56.2559987  63.2155006  17.1615017
  57.2129987  63.2155006  17.1615017  56.0159987  64.1425006  17.1615017
  54.5219987  72.0635006  17.5845017  55.4789987  72.0635006  17.5845017
  54.2819987  72.9905006  17.5845017  51.7149987  66.8775006  24.6605017
  52.6719987  66.8775006  24.6605017  51.4749987  67.8045006  24.6605017
  44.2739987  71.1575006  20.6745017  45.2309987  71.1575006  20.6745017
  44.0339987  72.0845006  20.6745017  40.0319987  66.0565006  15.3495017
  40.9889987  66.0565006  15.3495017  39.7919987  66.9835006  15.3495017
  45.6169987  68.8365006  20.2395017  46.5739987  68.8365006  20.2395017
  45.3769987  69.7635006  20.2395017  46.1329987  73.0815006  26.7335017
  47.0899987  73.0815006  26.7335017  45.8929987  74.0085006  26.7335017
  49.7109987  69.0835006  26.3535017  50.6679987  69.0835006  26.3535017
  49.4709987  70.0105006  26.3535017  51.9769987  70.0965006  15.4315017
  52.9339987  70.0965006  15.4315017  51.7369987  71.0235006  15.4315017
  52.8039987  68.7045006  17.6315017  53.7609987  68.7045006  17.6315017
  52.5639987  69.6315006  17.6315017  46.1089987  71.1885006  13.9055017
  47.0659987  71.1885006  13.9055017  45.8689987  72.1155006  13.9055017
  44.9169987  70.6885006  16.3665017  45.8739987  70.6885006  16.3665017
  44.6769987  71.6155006  16.3665017  50.0199987  60.2385006  18.2475017
  50.9769987  60.2385006  18.2475017  49.7799987  61.1655006  18.2475017
  47.6999987  72.3835006  17.0805017  48.6569987  72.3835006  17.0805017
  47.4599987  73.3105006  17.0805017  47.2599987  61.9775006  19.0755017
  48.2169987  61.9775006  19.0755017  47.0199987  62.9045006  19.0755017
  48.1259987  59.0475006  19.9915017  49.0829987  59.0475006  19.9915017
  47.8859987  59.9745006  19.9915017  45.0919987  73.4185006  17.1045017
  46.0489987  73.4185006  17.1045017  44.8519987  74.3455006  17.1045017
  43.7939987  60.1475006  16.6725017  44.7509987  60.1475006  16.6725017
  43.5539987  61.0745006  16.6725017  52.5839987  64.6605006  23.1465017
  53.5409987  64.6605006  23.1465017  52.3439987  65.5875006  23.1465017
  42.0279987  70.5595006  15.7605017  42.9849987  70.5595006  15.7605017
  41.7879987  71.4865006  15.7605017  40.3549987  63.2475006  14.8555017
  41.3119987  63.2475006  14.8555017  40.1149987  64.1745006  14.8555017
  53.6579987  73.8895006  24.7945017  54.6149987  73.8895006  24.7945017
  53.4179987  74.8165006  24.7945017  43.9379987  73.4925006  32.6575017
  44.8949987  73.4925006  32.6575017  43.6979987  74.4195006  32.6575017
  48.1119987  73.0405006  14.0405017  49.0689987  73.0405006  14.0405017
  47.8719987  73.9675006  14.0405017  52.6769987  72.8265006  14.2405017
  53.6339987  72.8265006  14.2405017  52.4369987  73.7535006  14.2405017
  43.5789987  68.7315006  14.0905017  44.5359987  68.7315006  14.0905017
  43.3389987  69.6585006  14.0905017  45.9359987  68.3815006  31.4005017
  46.8929987  68.3815006  31.4005017  45.6959987  69.3085006  31.4005017
  48.9919987  69.8235006  13.8315017  49.9489987  69.8235006  13.8315017
  48.7519987  70.7505006  13.8315017  44.7599987  66.7495006  16.4815017
  45.7169987  66.7495006  16.4815017  44.5199987  67.6765006  16.4815017
  44.0119987  64.5545006  28.7155017  44.9689987  64.5545006  28.7155017
  43.7719987  65.4815006  28.7155017  45.8379987  64.9905006  14.6805017
  46.7949987  64.9905006  14.6805017  45.5979987  65.9175006  14.6805017
  46.4089987  65.7425006  27.5765017  47.3659987  65.7425006  27.5765017
  46.1689987  66.6695006  27.5765017  45.7149987  75.6225006  15.6945017
  46.6719987  75.6225006  15.6945017  45.4749987  76.5495006  15.6945017
  39.2999987  70.2805006  15.1575017  40.2569987  70.2805006  15.1575017
  39.0599987  71.2075006  15.1575017  54.7579987  63.3565006  14.8615017
  55.7149987  63.3565006  14.8615017  54.5179987  64.2835006  14.8615017
  53.8359987  64.7445006  20.4855017  54.7929987  64.7445006  20.4855017
  53.5959987  65.6715006  20.4855017  53.9809987  60.8035006  13.9795017
  54.9379987  60.8035006  13.9795017  53.7409987  61.7305006  13.9795017
  53.5459987  62.3285006  18.9315017  54.5029987  62.3285006  18.9315017
  53.3059987  63.2555006  18.9315017  54.2289987  59.6265006  19.0035017
  55.1859987  59.6265006  19.0035017  53.9889987  60.5535006  19.0035017
  56.0459987  59.6495006  15.5535017  57.0029987  59.6495006  15.5535017
  55.8059987  60.5765006  15.5535017  53.1129987  74.6385006  20.6215017
  54.0699987  74.6385006  20.6215017  52.8729987  75.5655006  20.6215017
  43.4589987  72.5655006  27.4375017  44.4159987  72.5655006  27.4375017
  43.2189987  73.4925006  27.4375017  55.0559987  57.8185006  28.7035017
  56.0129987  57.8185006  28.7035017  54.8159987  58.7455006  28.7035017
  47.9839987  75.2475006  25.6515017  48.9409987  75.2475006  25.6515017
  47.7439987  76.1745006  25.6515017  52.9659987  75.7555006  26.8685017
  53.9229987  75.7555006  26.8685017  52.7259987  76.6825006  26.8685017
  45.0029987  73.6275006  23.8815017  45.9599987  73.6275006  23.8815017
  44.7629987  74.5545006  23.8815017  48.4589987  59.2815006  23.0015017
  49.4159987  59.2815006  23.0015017  48.2189987  60.2085006  23.0015017
  53.5979987  57.3905006  23.1435017  54.5549987  57.3905006  23.1435017
  53.3579987  58.3175006  23.1435017  55.2549987  58.5415006  21.4025017
  56.2119987  58.5415006  21.4025017  55.0149987  59.4685006  21.4025017
  45.3729987  57.7955006  20.6705017  46.3299987  57.7955006  20.6705017
  45.1329987  58.7225006  20.6705017  51.0119987  57.8535006  22.2905017
  51.9689987  57.8535006  22.2905017  50.7719987  58.7805006  22.2905017
  52.2949987  57.8975006  17.9665017  53.2519987  57.8975006  17.9665017
  52.0549987  58.8245006  17.9665017  46.5029987  59.8865006  17.4945017
  47.4599987  59.8865006  17.4945017  46.2629987  60.8135006  17.4945017
  48.3779987  74.8925006  15.9625017  49.3349987  74.8925006  15.9625017
  48.1379987  75.8195006  15.9625017  55.1349987  74.4495006  18.6385017
  56.0919987  74.4495006  18.6385017  54.8949987  75.3765006  18.6385017
  41.3289987  74.6055006  14.5385017  42.2859987  74.6055006  14.5385017
  41.0889987  75.5325006  14.5385017  74.7089987  60.3695006  25.4765017
  75.6659987  60.3695006  25.4765017  74.4689987  61.2965006  25.4765017
  69.2219987  63.1825006  24.9665017  70.1789987  63.1825006  24.9665017
  68.9819987  64.1095006  24.9665017  62.4889987  61.2145006  22.2065017
  63.4459987  61.2145006  22.2065017  62.2489987  62.1415006  22.2065017
  70.0449987  61.3665006  20.5585017  71.0019987  61.3665006  20.5585017
  69.8049987  62.2935006  20.5585017  58.9569987  63.7145006  22.9715017
  59.9139987  63.7145006  22.9715017  58.7169987  64.6415006  22.9715017
  71.8199987  60.6635006  22.5795017  72.7769987  60.6635006  22.5795017
  71.5799987  61.5905006  22.5795017  60.7449987  62.0735006  24.2715017
  61.7019987  62.0735006  24.2715017  60.5049987  63.0005006  24.2715017
  72.1829987  59.3795006  26.2735017  73.1399987  59.3795006  26.2735017
  71.9429987  60.3065006  26.2735017  65.1629987  57.4945006  23.6965017
  66.1199987  57.4945006  23.6965017  64.9229987  58.4215006  23.6965017
  67.4819987  64.7665006  15.2785017  68.4389987  64.7665006  15.2785017
  67.2419987  65.6935006  15.2785017  74.8129987  65.6315006  26.4695017
  75.7699987  65.6315006  26.4695017  74.5729987  66.5585006  26.4695017
  70.7909987  64.6935006  28.2345017  71.7479987  64.6935006  28.2345017
  70.5509987  65.6205006  28.2345017  62.7979987  65.8855006  24.7385017
  63.7549987  65.8855006  24.7385017  62.5579987  66.8125006  24.7385017
  73.4749987  57.4215006  16.7075017  74.4319987  57.4215006  16.7075017
  73.2349987  58.3485006  16.7075017  74.5919987  71.7825006  15.0135017
  75.5489987  71.7825006  15.0135017  74.3519987  72.7095006  15.0135017
  72.6469987  63.5355006  30.5315017  73.6039987  63.5355006  30.5315017
  72.4069987  64.4625006  30.5315017  70.4749987  61.8865006  28.7535017
  71.4319987  61.8865006  28.7535017  70.2349987  62.8135006  28.7535017
  71.2029987  66.6945006  14.5425017  72.1599987  66.6945006  14.5425017
  70.9629987  67.6215006  14.5425017  66.8079987  60.6415006  15.1575017
  67.7649987  60.6415006  15.1575017  66.5679987  61.5685006  15.1575017
  62.6059987  63.3465006  25.6935017  63.5629987  63.3465006  25.6935017
  62.3659987  64.2735006  25.6935017  62.5579987  63.5515006  20.5615017
  63.5149987  63.5515006  20.5615017  62.3179987  64.4785006  20.5615017
  63.6339987  61.0235006  14.2655017  64.5909987  61.0235006  14.2655017
  63.3939987  61.9505006  14.2655017  56.7789987  60.7145006  21.3565017
  57.7359987  60.7145006  21.3565017  56.5389987  61.6415006  21.3565017
  58.1449987  61.4495006  16.7155017  59.1019987  61.4495006  16.7155017
  57.9049987  62.3765006  16.7155017  68.3579987  65.0685006  26.8635017
  69.3149987  65.0685006  26.8635017  68.1179987  65.9955006  26.8635017
  65.1519987  60.9585006  21.5965017  66.1089987  60.9585006  21.5965017
  64.9119987  61.8855006  21.5965017  59.9809987  62.9655006  20.0445017
  60.9379987  62.9655006  20.0445017  59.7409987  63.8925006  20.0445017
  63.6189987  62.6185006  18.0745017  64.5759987  62.6185006  18.0745017
  63.3789987  63.5455006  18.0745017  69.5469987  60.2215006  24.8565017
  70.5039987  60.2215006  24.8565017  69.3069987  61.1485006  24.8565017
  62.2919987  63.8085006  15.6835017  63.2489987  63.8085006  15.6835017
  62.0519987  64.7355006  15.6835017  61.6069987  59.8755006  19.7625017
  62.5639987  59.8755006  19.7625017  61.3669987  60.8025006  19.7625017
  65.0809987  62.1255006  25.8915017  66.0379987  62.1255006  25.8915017
  64.8409987  63.0525006  25.8915017  65.6199987  68.3525006  17.6335017
  66.5769987  68.3525006  17.6335017  65.3799987  69.2795006  17.6335017
  69.4829987  61.1675006  15.8065017  70.4399987  61.1675006  15.8065017
  69.2429987  62.0945006  15.8065017  70.1789987  63.1535006  17.4365017
  71.1359987  63.1535006  17.4365017  69.9389987  64.0805006  17.4365017
  67.7579987  69.8215006  16.6305017  68.7149987  69.8215006  16.6305017
  67.5179987  70.7485006  16.6305017  75.1029987  63.2125006  17.1585017
  76.0599987  63.2125006  17.1585017  74.8629987  64.1395006  17.1585017
  75.3109987  74.4845006  15.6885017  76.2679987  74.4845006  15.6885017
  75.0709987  75.4115006  15.6885017  68.1179987  60.6685006  27.1645017
  69.0749987  60.6685006  27.1645017  67.8779987  61.5955006  27.1645017
  68.8629987  60.2565006  18.2485017  69.8199987  60.2565006  18.2485017
  68.6229987  61.1835006  18.2485017  66.1119987  62.0115006  19.0675017
  67.0689987  62.0115006  19.0675017  65.8719987  62.9385006  19.0675017
  66.6629987  63.0265006  28.2405017  67.6199987  63.0265006  28.2405017
  66.4229987  63.9535006  28.2405017  66.9589987  59.0745006  20.0065017
  67.9159987  59.0745006  20.0065017  66.7189987  60.0015006  20.0065017
  62.6269987  60.1305006  16.6655017  63.5839987  60.1305006  16.6655017
  62.3869987  61.0575006  16.6655017  71.4339987  64.6545006  23.1915017
  72.3909987  64.6545006  23.1915017  71.1939987  65.5815006  23.1915017
  59.1939987  63.2635006  14.8615017  60.1509987  63.2635006  14.8615017
  58.9539987  64.1905006  14.8615017  60.0869987  57.9965006  23.5395017
  61.0439987  57.9965006  23.5395017  59.8469987  58.9235006  23.5395017
  62.4369987  68.7155006  14.0825017  63.3939987  68.7155006  14.0825017
  62.1969987  69.6425006  14.0825017  67.8229987  69.8085006  13.8185017
  68.7799987  69.8085006  13.8185017  67.5829987  70.7355006  13.8185017
  63.6329987  66.7325006  16.4505017  64.5899987  66.7325006  16.4505017
  63.3929987  67.6595006  16.4505017  64.7039987  64.9235006  14.6965017
  65.6609987  64.9235006  14.6965017  64.4639987  65.8505006  14.6965017
  74.0809987  67.3045006  14.1315017  75.0379987  67.3045006  14.1315017
  73.8409987  68.2315006  14.1315017  63.6639987  60.3885006  27.3825017
  64.6209987  60.3885006  27.3825017  63.4239987  61.3155006  27.3825017
  69.6719987  63.5935006  32.5885017  70.6289987  63.5935006  32.5885017
  69.4319987  64.5205006  32.5885017  68.4949987  61.2635006  30.4725017
  69.4519987  61.2635006  30.4725017  68.2549987  62.1905006  30.4725017
  56.7229987  75.7185006  20.3425017  57.6799987  75.7185006  20.3425017
  56.4829987  76.6455006  20.3425017  75.2319987  66.1005006  16.3175017
  76.1889987  66.1005006  16.3175017  74.9919987  67.0275006  16.3175017
  73.5879987  63.3565006  14.8675017  74.5449987  63.3565006  14.8675017
  73.3479987  64.2835006  14.8675017  57.7919987  66.8615006  24.5085017
  58.7489987  66.8615006  24.5085017  57.5519987  67.7885006  24.5085017
  72.8359987  60.8005006  13.9815017  73.7929987  60.8005006  13.9815017
  72.5959987  61.7275006  13.9815017  72.3749987  62.3065006  18.8805017
  73.3319987  62.3065006  18.8805017  72.1349987  63.2335006  18.8805017
  73.0629987  62.8465006  24.4135017  74.0199987  62.8465006  24.4135017
  72.8229987  63.7735006  24.4135017  73.0989987  63.6175006  27.1375017
  74.0559987  63.6175006  27.1375017  72.8589987  64.5445006  27.1375017
  73.0869987  59.6185006  18.9975017  74.0439987  59.6185006  18.9975017
  72.8469987  60.5455006  18.9975017  74.9049987  59.6575006  15.5485017
  75.8619987  59.6575006  15.5485017  74.6649987  60.5845006  15.5485017
  57.2029987  59.6635006  18.6385017  58.1599987  59.6635006  18.6385017
  56.9629987  60.5905006  18.6385017  67.3329987  59.2825006  23.0255017
  68.2899987  59.2825006  23.0255017  67.0929987  60.2095006  23.0255017
  72.4569987  57.3395006  23.0985017  73.4139987  57.3395006  23.0985017
  72.2169987  58.2665006  23.0985017  74.1349987  58.5405006  21.3775017
  75.0919987  58.5405006  21.3775017  73.8949987  59.4675006  21.3775017
  59.6819987  57.8465006  20.7985017  60.6389987  57.8465006  20.7985017
  59.4419987  58.7735006  20.7985017  58.4569987  57.6695006  16.5885017
  59.4139987  57.6695006  16.5885017  58.2169987  58.5965006  16.5885017
  64.2129987  57.7975006  20.6335017  65.1699987  57.7975006  20.6335017
  63.9729987  58.7245006  20.6335017  69.8339987  57.8785006  22.2845017
  70.7909987  57.8785006  22.2845017  69.5939987  58.8055006  22.2845017
  71.1569987  57.9145006  17.9635017  72.1139987  57.9145006  17.9635017
  70.9169987  58.8415006  17.9635017  60.3039987  59.6155006  15.0885017
  61.2609987  59.6155006  15.0885017  60.0639987  60.5425006  15.0885017
  65.3389987  59.8835006  17.5125017  66.2959987  59.8835006  17.5125017
  65.0989987  60.8105006  17.5125017  87.6089987  67.0565006  20.7645017
  88.5659987  67.0565006  20.7645017  87.3689987  67.9835006  20.7645017
  90.1969987  69.2635006  22.4975017  91.1539987  69.2635006  22.4975017
  89.9569987  70.1905006  22.4975017  87.3199987  74.4195006  22.7335017
  88.2769987  74.4195006  22.7335017  87.0799987  75.3465006  22.7335017
  93.5039987  60.3505006  25.4385017  94.4609987  60.3505006  25.4385017
  93.2639987  61.2775006  25.4385017  81.2259987  61.2215006  22.2375017
  82.1829987  61.2215006  22.2375017  80.9859987  62.1485006  22.2375017
  88.9049987  61.3355006  20.5775017  89.8619987  61.3355006  20.5775017
  88.6649987  62.2625006  20.5775017  93.9439987  61.7965006  27.6945017
  94.9009987  61.7965006  27.6945017  93.7039987  62.7235006  27.6945017
  87.3629987  69.6475006  19.8225017  88.3199987  69.6475006  19.8225017
  87.1229987  70.5745006  19.8225017  90.6979987  60.6795006  22.5825017
  91.6549987  60.6795006  22.5825017  90.4579987  61.6065006  22.5825017
  90.7279987  71.0965006  24.8715017  91.6849987  71.0965006  24.8715017
  90.4879987  72.0235006  24.8715017  91.0379987  59.3895006  26.2715017
  91.9949987  59.3895006  26.2715017  90.7979987  60.3165006  26.2715017
  84.0189987  57.4905006  23.7085017  84.9759987  57.4905006  23.7085017
  83.7789987  58.4175006  23.7085017  88.9719987  72.8745006  21.4755017
  89.9289987  72.8745006  21.4755017  88.7319987  73.8015006  21.4755017
  90.1719987  70.8025006  19.9815017  91.1289987  70.8025006  19.9815017
  89.9319987  71.7295006  19.9815017  91.8069987  69.3825006  28.4755017
  92.7639987  69.3825006  28.4755017  91.5669987  70.3095006  28.4755017
  86.2919987  66.2925006  18.2675017  87.2489987  66.2925006  18.2675017
  86.0519987  67.2195006  18.2675017  86.3599987  64.8275006  15.2585017
  87.3169987  64.8275006  15.2585017  86.1199987  65.7545006  15.2585017
  93.6859987  65.6975006  26.5305017  94.6429987  65.6975006  26.5305017
  93.4459987  66.6245006  26.5305017  89.7349987  66.5065006  19.1655017
  90.6919987  66.5065006  19.1655017  89.4949987  67.4335006  19.1655017
  89.6639987  64.6865006  28.2535017  90.6209987  64.6865006  28.2535017
  89.4239987  65.6135006  28.2535017  88.0699987  71.4675006  25.4255017
  89.0269987  71.4675006  25.4255017  87.8299987  72.3945006  25.4255017
  88.6009987  65.6915006  16.8395017  89.5579987  65.6915006  16.8395017
  88.3609987  66.6185006  16.8395017  86.3419987  72.4225006  20.2995017
  87.2989987  72.4225006  20.2995017  86.1019987  73.3495006  20.2995017
  92.3269987  57.4255006  16.7095017  93.2839987  57.4255006  16.7095017
  92.0869987  58.3525006  16.7095017  93.4499987  71.7815006  15.0735017
  94.4069987  71.7815006  15.0735017  93.2099987  72.7085006  15.0735017
  94.4129987  72.0475006  30.0495017  95.3699987  72.0475006  30.0495017
  94.1729987  72.9745006  30.0495017  85.3829987  71.5755006  28.9355017
  86.3399987  71.5755006  28.9355017  85.1429987  72.5025006  28.9355017
  85.8379987  75.3435006  18.7105017  86.7949987  75.3435006  18.7105017
  85.5979987  76.2705006  18.7105017  88.8679987  74.5465006  15.7015017
  89.8249987  74.5465006  15.7015017  88.6279987  75.4735006  15.7015017
  88.5589987  74.4725006  18.4645017  89.5159987  74.4725006  18.4645017
  88.3189987  75.3995006  18.4645017  91.5569987  63.5195006  30.5235017
  92.5139987  63.5195006  30.5235017  91.3169987  64.4465006  30.5235017
  81.3659987  58.3475006  24.5245017  82.3229987  58.3475006  24.5245017
  81.1259987  59.2745006  24.5245017  89.3239987  61.9105006  28.7445017
  90.2809987  61.9105006  28.7445017  89.0839987  62.8375006  28.7445017
  90.0539987  66.7505006  14.5715017  91.0109987  66.7505006  14.5715017
  89.8139987  67.6775006  14.5715017  85.6589987  60.6375006  15.1525017
  86.6159987  60.6375006  15.1525017  85.4189987  61.5645006  15.1525017
  81.3969987  63.5545006  20.5205017  82.3539987  63.5545006  20.5205017
  81.1569987  64.4815006  20.5205017  86.9529987  63.9845006  19.3775017
  87.9099987  63.9845006  19.3775017  86.7129987  64.9115006  19.3775017
  88.0189987  63.4845006  22.1785017  88.9759987  63.4845006  22.1785017
  87.7789987  64.4115006  22.1785017  82.4899987  61.0265006  14.2705017
  83.4469987  61.0265006  14.2705017  82.2499987  61.9535006  14.2705017
  75.7149987  60.7105006  21.3815017  76.6719987  60.7105006  21.3815017
  75.4749987  61.6375006  21.3815017  77.0009987  61.4515006  16.7215017
  77.9579987  61.4515006  16.7215017  76.7609987  62.3785006  16.7215017
  83.9919987  60.9885006  21.5955017  84.9489987  60.9885006  21.5955017
  83.7519987  61.9155006  21.5955017  82.4559987  62.6175006  18.0765017
  83.4129987  62.6175006  18.0765017  82.2159987  63.5445006  18.0765017
  88.4139987  60.2205006  24.8505017  89.3709987  60.2205006  24.8505017
  88.1739987  61.1475006  24.8505017  81.1469987  63.8145006  15.6815017
  82.1039987  63.8145006  15.6815017  80.9069987  64.7415006  15.6815017
  91.6109987  75.9145006  31.1655017  92.5679987  75.9145006  31.1655017
  91.3709987  76.8415006  31.1655017  80.2949987  59.9075006  19.9245017
  81.2519987  59.9075006  19.9245017  80.0549987  60.8345006  19.9245017
  84.5029987  68.3315006  17.6055017  85.4599987  68.3315006  17.6055017
  84.2629987  69.2585006  17.6055017  91.6519987  67.5175006  26.3935017
  92.6089987  67.5175006  26.3935017  91.4119987  68.4445006  26.3935017
  88.3429987  61.1725006  15.7805017  89.2999987  61.1725006  15.7805017
  88.1029987  62.0995006  15.7805017  86.0459987  68.6125006  28.8425017
  87.0029987  68.6125006  28.8425017  85.8059987  69.5395006  28.8425017
  89.0719987  63.0735006  17.4255017  90.0289987  63.0735006  17.4255017
  88.8319987  64.0005006  17.4255017  86.6139987  69.8225006  16.6265017
  87.5709987  69.8225006  16.6265017  86.3739987  70.7495006  16.6265017
  88.2509987  71.0145006  28.7935017  89.2079987  71.0145006  28.7935017
  88.0109987  71.9415006  28.7935017  93.9789987  63.2245006  17.1795017
  94.9359987  63.2245006  17.1795017  93.7389987  64.1515006  17.1795017
  93.9509987  69.0865006  30.0035017  94.9079987  69.0865006  30.0035017
  93.7109987  70.0135006  30.0035017  92.2419987  72.0565006  17.5915017
  93.1989987  72.0565006  17.5915017  92.0019987  72.9835006  17.5915017
  89.4649987  66.8745006  24.6775017  90.4219987  66.8745006  24.6775017
  89.2249987  67.8015006  24.6775017  77.7329987  66.0785006  15.3275017
  78.6899987  66.0785006  15.3275017  77.4929987  67.0055006  15.3275017
  82.0719987  73.8895006  19.8185017  83.0289987  73.8895006  19.8185017
  81.8319987  74.8165006  19.8185017  87.4189987  69.0825006  26.3505017
  88.3759987  69.0825006  26.3505017  87.1789987  70.0095006  26.3505017
  89.6959987  70.0965006  15.4195017  90.6529987  70.0965006  15.4195017
  89.4559987  71.0235006  15.4195017  90.1769987  73.6345006  28.8385017
  91.1339987  73.6345006  28.8385017  89.9369987  74.5615006  28.8385017
  94.1699987  74.4785006  15.6675017  95.1269987  74.4785006  15.6675017
  93.9299987  75.4055006  15.6675017  90.4899987  68.7435006  17.6595017
  91.4469987  68.7435006  17.6595017  90.2499987  69.6705006  17.6595017
  83.8239987  71.1885006  13.9025017  84.7809987  71.1885006  13.9025017
  83.5839987  72.1155006  13.9025017  82.6559987  70.7035006  16.3605017
  83.6129987  70.7035006  16.3605017  82.4159987  71.6305006  16.3605017
  86.9639987  60.6295006  27.1655017  87.9209987  60.6295006  27.1655017
  86.7239987  61.5565006  27.1655017  87.7429987  60.2305006  18.2485017
  88.6999987  60.2305006  18.2485017  87.5029987  61.1575006  18.2485017
  85.4199987  72.3825006  17.0845017  86.3769987  72.3825006  17.0845017
  85.1799987  73.3095006  17.0845017  84.9689987  61.9785006  19.0685017
  85.9259987  61.9785006  19.0685017  84.7289987  62.9055006  19.0685017
  85.8189987  59.0595006  20.0015017  86.7759987  59.0595006  20.0015017
  85.5789987  59.9865006  20.0015017  82.8079987  73.4115006  17.0855017
  83.7649987  73.4115006  17.0855017  82.5679987  74.3385006  17.0855017
  81.4749987  60.1305006  16.6755017  82.4319987  60.1305006  16.6755017
  81.2349987  61.0575006  16.6755017  91.6889987  60.8805006  29.1165017
  92.6459987  60.8805006  29.1165017  91.4489987  61.8075006  29.1165017
  90.2839987  64.6715006  23.1605017  91.2409987  64.6715006  23.1605017
  90.0439987  65.5985006  23.1605017  79.7119987  70.6005006  15.7085017
  80.6689987  70.6005006  15.7085017  79.4719987  71.5275006  15.7085017
  78.0599987  63.2515006  14.8605017  79.0169987  63.2515006  14.8605017
  77.8199987  64.1785006  14.8605017  91.3679987  73.9065006  24.8045017
  92.3249987  73.9065006  24.8045017  91.1279987  74.8335006  24.8045017
  78.8699987  58.0665006  23.5705017  79.8269987  58.0665006  23.5705017
  78.6299987  58.9935006  23.5705017  85.8219987  73.0405006  14.0395017
  86.7789987  73.0405006  14.0395017  85.5819987  73.9675006  14.0395017
  88.2289987  71.9035006  31.3935017  89.1859987  71.9035006  31.3935017
  87.9889987  72.8305006  31.3935017  90.3869987  72.7915006  14.2295017
  91.3439987  72.7915006  14.2295017  90.1469987  73.7185006  14.2295017
  81.2889987  68.7285006  14.0605017  82.2459987  68.7285006  14.0605017
  81.0489987  69.6555006  14.0605017  86.7109987  69.8235006  13.8325017
  87.6679987  69.8235006  13.8325017  86.4709987  70.7505006  13.8325017
  89.3469987  68.2395006  28.7915017  90.3039987  68.2395006  28.7915017
  89.1069987  69.1665006  28.7915017  82.4949987  66.7365006  16.4495017
  83.4519987  66.7365006  16.4495017  82.2549987  67.6635006  16.4495017
  83.5529987  64.9695006  14.6805017  84.5099987  64.9695006  14.6805017
  83.3129987  65.8965006  14.6805017  86.8029987  67.1325006  32.0985017
  87.7599987  67.1325006  32.0985017  86.5629987  68.0595006  32.0985017
  92.8839987  67.2995006  14.1075017  93.8409987  67.2995006  14.1075017
  92.6439987  68.2265006  14.1075017  88.5169987  63.5755006  32.6265017
  89.4739987  63.5755006  32.6265017  88.2769987  64.5025006  32.6265017
  89.8539987  66.3635006  30.7415017  90.8109987  66.3635006  30.7415017
  89.6139987  67.2905006  30.7415017  87.3589987  61.2055006  30.4425017
  88.3159987  61.2055006  30.4425017  87.1189987  62.1325006  30.4425017
  88.9439987  59.8525006  32.4055017  89.9009987  59.8525006  32.4055017
  88.7039987  60.7795006  32.4055017  83.4129987  75.6405006  15.7215017
  84.3699987  75.6405006  15.7215017  83.1729987  76.5675006  15.7215017
  76.9989987  70.3085006  15.1405017  77.9559987  70.3085006  15.1405017
  76.7589987  71.2355006  15.1405017  94.0859987  74.5595006  25.0045017
  95.0429987  74.5595006  25.0045017  93.8459987  75.4865006  25.0045017
  93.6619987  74.1565006  27.9475017  94.6189987  74.1565006  27.9475017
  93.4219987  75.0835006  27.9475017  92.1059987  69.8875006  32.6035017
  93.0629987  69.8875006  32.6035017  91.8659987  70.8145006  32.6035017
  93.4139987  68.1995006  18.0585017  94.3709987  68.1995006  18.0585017
  93.1739987  69.1265006  18.0585017  93.7869987  66.2705006  19.9265017
  94.7439987  66.2705006  19.9265017  93.5469987  67.1975006  19.9265017
  93.5439987  68.9865006  24.9105017  94.5009987  68.9865006  24.9105017
  93.3039987  69.9135006  24.9105017  92.0909987  71.8835006  27.1925017
  93.0479987  71.8835006  27.1925017  91.8509987  72.8105006  27.1925017
  94.0869987  66.1075006  16.3225017  95.0439987  66.1075006  16.3225017
  93.8469987  67.0345006  16.3225017  92.4499987  63.3405006  14.8515017
  93.4069987  63.3405006  14.8515017  92.2099987  64.2675006  14.8515017
  91.5979987  64.7535006  20.4985017  92.5549987  64.7535006  20.4985017
  91.3579987  65.6805006  20.4985017  92.4479987  66.7255006  30.1735017
  93.4049987  66.7255006  30.1735017  92.2079987  67.6525006  30.1735017
  93.9549987  64.6235006  30.8145017  94.9119987  64.6235006  30.8145017
  93.7149987  65.5505006  30.8145017  91.6919987  60.8075006  13.9765017
  92.6489987  60.8075006  13.9765017  91.4519987  61.7345006  13.9765017
  91.2579987  62.3385006  18.9195017  92.2149987  62.3385006  18.9195017
  91.0179987  63.2655006  18.9195017  91.8939987  62.8915006  24.4025017
  92.8509987  62.8915006  24.4025017  91.6539987  63.8185006  24.4025017
  91.9729987  63.6155006  27.1825017  92.9299987  63.6155006  27.1825017
  91.7329987  64.5425006  27.1825017  94.2189987  57.6475006  32.5275017
  95.1759987  57.6475006  32.5275017  93.9789987  58.5745006  32.5275017
  91.9359987  59.6215006  19.0025017  92.8929987  59.6215006  19.0025017
  91.6959987  60.5485006  19.0025017  77.3829987  60.3435006  23.4635017
  78.3399987  60.3435006  23.4635017  77.1429987  61.2705006  23.4635017
  93.7429987  59.7475006  30.8835017  94.6999987  59.7475006  30.8835017
  93.5029987  60.6745006  30.8835017  93.7619987  59.6605006  15.5555017
  94.7189987  59.6605006  15.5555017  93.5219987  60.5875006  15.5555017
  76.0759987  59.6365006  18.6345017  77.0329987  59.6365006  18.6345017
  75.8359987  60.5635006  18.6345017  90.8109987  74.6455006  20.6205017
  91.7679987  74.6455006  20.6205017  90.5709987  75.5725006  20.6205017
  76.0399987  58.4275006  26.9985017  76.9969987  58.4275006  26.9985017
  75.7999987  59.3545006  26.9985017  85.4789987  73.9425006  30.3165017
  86.4359987  73.9425006  30.3165017  85.2389987  74.8695006  30.3165017
  87.7759987  75.2465006  29.6175017  88.7329987  75.2465006  29.6175017
  87.5359987  76.1735006  29.6175017  92.7779987  57.8735006  28.7075017
  93.7349987  57.8735006  28.7075017  92.5379987  58.8005006  28.7075017
  85.7659987  75.2845006  25.6545017  86.7229987  75.2845006  25.6545017
  85.5259987  76.2115006  25.6545017  88.0759987  74.1165006  26.6375017
  89.0329987  74.1165006  26.6375017  87.8359987  75.0435006  26.6375017
  90.6459987  75.6805006  26.9055017  91.6029987  75.6805006  26.9055017
  90.4059987  76.6075006  26.9055017  86.1819987  59.2755006  23.0125017
  87.1389987  59.2755006  23.0125017  85.9419987  60.2025006  23.0125017
  91.3109987  57.3455006  23.0975017  92.2679987  57.3455006  23.0975017
  91.0709987  58.2725006  23.0975017  92.9949987  58.5635006  21.3845017
  93.9519987  58.5635006  21.3845017  92.7549987  59.4905006  21.3845017
  78.5369987  57.9155006  20.8405017  79.4939987  57.9155006  20.8405017
  78.2969987  58.8425006  20.8405017  77.3209987  57.6755006  16.5995017
  78.2779987  57.6755006  16.5995017  77.0809987  58.6025006  16.5995017
  83.0619987  57.8075006  20.6345017  84.0189987  57.8075006  20.6345017
  82.8219987  58.7345006  20.6345017  88.7139987  57.8625006  22.2815017
  89.6709987  57.8625006  22.2815017  88.4739987  58.7895006  22.2815017
  90.0039987  57.8925006  17.9665017  90.9609987  57.8925006  17.9665017
  89.7639987  58.8195006  17.9665017  77.2569987  73.6625006  17.5405017
  78.2139987  73.6625006  17.5405017  77.0169987  74.5895006  17.5405017
  79.1599987  59.6145006  15.0785017  80.1169987  59.6145006  15.0785017
  78.9199987  60.5415006  15.0785017  84.1849987  59.8735006  17.5065017
  85.1419987  59.8735006  17.5065017  83.9449987  60.8005006  17.5065017
  86.1009987  74.9045006  15.9505017  87.0579987  74.9045006  15.9505017
  85.8609987  75.8315006  15.9505017  92.8139987  74.4315006  18.6535017
  93.7709987  74.4315006  18.6535017  92.5739987  75.3585006  18.6535017
  79.0449987  74.6025006  14.5455017  80.0019987  74.6025006  14.5455017
  78.8049987  75.5295006  14.5455017  92.0499987  73.1685006  30.7505017
  93.0069987  73.1685006  30.7505017  91.8099987  74.0955006  30.7505017
 106.4689987  67.0205006  20.7105017 107.4259987  67.0205006  20.7105017
 106.2289987  67.9475006  20.7105017 105.2809987  66.3315006  24.2335017
 106.2379987  66.3315006  24.2335017 105.0409987  67.2585006  24.2335017
  97.7079987  65.9695006  25.7795017  98.6649987  65.9695006  25.7795017
  97.4679987  66.8965006  25.7795017  98.6359987  70.4205006  24.3015017
  99.5929987  70.4205006  24.3015017  98.3959987  71.3475006  24.3015017
  95.2789987  63.9995006  19.7595017  96.2359987  63.9995006  19.7595017
  95.0389987  64.9265006  19.7595017  95.9749987  66.2135006  21.8925017
  96.9319987  66.2135006  21.8925017  95.7349987  67.1405006  21.8925017
 106.1819987  74.3715006  22.7155017 107.1389987  74.3715006  22.7155017
 105.9419987  75.2985006  22.7155017 103.7009987  68.7115006  24.6595017
 104.6579987  68.7115006  24.6595017 103.4609987  69.6385006  24.6595017
 106.2229987  62.9375006  24.9525017 107.1799987  62.9375006  24.9525017
 105.9829987  63.8645006  24.9525017 100.0169987  61.2625006  22.2265017
 100.9739987  61.2625006  22.2265017  99.7769987  62.1895006  22.2265017
 107.7189987  61.8445006  20.1955017 108.6759987  61.8445006  20.1955017
 107.4789987  62.7715006  20.1955017  96.6379987  63.6705006  22.9655017
  97.5949987  63.6705006  22.9655017  96.3979987  64.5975006  22.9655017
 101.7919987  65.2315006  22.2485017 102.7489987  65.2315006  22.2485017
 101.5519987  66.1585006  22.2485017  98.9039987  60.1615006  26.2785017
  99.8609987  60.1615006  26.2785017  98.6639987  61.0885006  26.2785017
 106.2339987  69.6555006  19.8125017 107.1909987  69.6555006  19.8125017
 105.9939987  70.5825006  19.8125017 101.4369987  67.8105006  26.5255017
 102.3939987  67.8105006  26.5255017 101.1969987  68.7375006  26.5255017
  98.4619987  62.0295006  24.2775017  99.4189987  62.0295006  24.2775017
  98.2219987  62.9565006  24.2775017  99.8709987  69.7995006  27.3355017
 100.8279987  69.7995006  27.3355017  99.6309987  70.7265006  27.3355017
  95.9579987  69.4355006  18.1285017  96.9149987  69.4355006  18.1285017
  95.7179987  70.3625006  18.1285017 102.8789987  57.4925006  23.7365017
 103.8359987  57.4925006  23.7365017 102.6389987  58.4195006  23.7365017
 107.5019987  72.6985006  21.0705017 108.4589987  72.6985006  21.0705017
 107.2619987  73.6255006  21.0705017 105.1289987  66.2865006  18.2295017
 106.0859987  66.2865006  18.2295017 104.8889987  67.2135006  18.2295017
 105.1949987  64.8185006  15.2515017 106.1519987  64.8185006  15.2515017
 104.9549987  65.7455006  15.2515017 100.2089987  67.1645006  21.0765017
 101.1659987  67.1645006  21.0765017  99.9689987  68.0915006  21.0765017
 101.5389987  70.5595006  23.7595017 102.4959987  70.5595006  23.7595017
 101.2989987  71.4865006  23.7595017 100.5469987  65.9055006  24.7275017
 101.5039987  65.9055006  24.7275017 100.3069987  66.8325006  24.7275017
 106.5349987  71.4905006  25.4795017 107.4919987  71.4905006  25.4795017
 106.2949987  72.4175006  25.4795017 101.4859987  70.3285006  29.4305017
 102.4429987  70.3285006  29.4305017 101.2459987  71.2555006  29.4305017
 107.4589987  65.6745006  16.8555017 108.4159987  65.6745006  16.8555017
 107.2189987  66.6015006  16.8555017  98.4199987  66.4975006  28.6055017
  99.3769987  66.4975006  28.6055017  98.1799987  67.4245006  28.6055017
 105.0829987  72.4135006  20.2925017 106.0399987  72.4135006  20.2925017
 104.8429987  73.3405006  20.2925017  99.7269987  72.3795006  30.1855017
 100.6839987  72.3795006  30.1855017  99.4869987  73.3065006  30.1855017
  99.1849987  66.1905006  18.6915017 100.1419987  66.1905006  18.6915017
  98.9449987  67.1175006  18.6915017  95.2759987  68.6085006  27.5595017
  96.2329987  68.6085006  27.5595017  95.0359987  69.5355006  27.5595017
  95.0319987  71.3485006  24.3615017  95.9889987  71.3485006  24.3615017
  94.7919987  72.2755006  24.3615017 104.2419987  71.5905006  28.9345017
 105.1989987  71.5905006  28.9345017 104.0019987  72.5175006  28.9345017
 104.6649987  75.3435006  18.7205017 105.6219987  75.3435006  18.7205017
 104.4249987  76.2705006  18.7205017  98.3019987  74.2055006  20.5255017
  99.2589987  74.2055006  20.5255017  98.0619987  75.1325006  20.5255017
 107.7399987  74.5275006  15.6815017 108.6969987  74.5275006  15.6815017
 107.4999987  75.4545006  15.6815017 107.2489987  74.3045006  18.3205017
 108.2059987  74.3045006  18.3205017 107.0089987  75.2315006  18.3205017
  97.5489987  69.9265006  28.5265017  98.5059987  69.9265006  28.5265017
  97.3089987  70.8535006  28.5265017 100.2179987  58.3875006  24.4905017
 101.1749987  58.3875006  24.4905017  99.9779987  59.3145006  24.4905017
 104.8999987  58.0635006  27.8655017 105.8569987  58.0635006  27.8655017
 104.6599987  58.9905006  27.8655017 104.5259987  60.6335006  15.1735017
 105.4829987  60.6335006  15.1735017 104.2859987  61.5605006  15.1735017
 100.3019987  63.3535006  25.6875017 101.2589987  63.3535006  25.6875017
 100.0619987  64.2805006  25.6875017 100.2819987  63.5165006  20.5785017
 101.2389987  63.5165006  20.5785017 100.0419987  64.4435006  20.5785017
 105.7879987  63.9925006  19.3695017 106.7449987  63.9925006  19.3695017
 105.5479987  64.9195006  19.3695017 104.8979987  64.2185006  30.8445017
 105.8549987  64.2185006  30.8445017 104.6579987  65.1455006  30.8445017
 106.7849987  63.4495006  22.1935017 107.7419987  63.4495006  22.1935017
 106.5449987  64.3765006  22.1935017  97.9669987  63.6305006  27.4385017
  98.9239987  63.6305006  27.4385017  97.7269987  64.5575006  27.4385017
 101.3479987  61.0265006  14.2685017 102.3049987  61.0265006  14.2685017
 101.1079987  61.9535006  14.2685017  94.6079987  60.7535006  21.3765017
  95.5649987  60.7535006  21.3765017  94.3679987  61.6805006  21.3765017
  95.8829987  61.4665006  16.7505017  96.8399987  61.4665006  16.7505017
  95.6429987  62.3935006  16.7505017 106.0449987  65.0685006  26.8045017
 107.0019987  65.0685006  26.8045017 105.8049987  65.9955006  26.8045017
 102.8459987  61.0205006  21.5975017 103.8029987  61.0205006  21.5975017
 102.6059987  61.9475006  21.5975017  97.6619987  62.6025006  20.4635017
  98.6189987  62.6025006  20.4635017  97.4219987  63.5295006  20.4635017
 101.3079987  62.6285006  18.0905017 102.2649987  62.6285006  18.0905017
 101.0679987  63.5555006  18.0905017 107.2399987  60.2185006  24.9015017
 108.1969987  60.2185006  24.9015017 106.9999987  61.1455006  24.9015017
 100.0019987  63.8175006  15.6835017 100.9589987  63.8175006  15.6835017
  99.7619987  64.7445006  15.6835017  98.1339987  68.3915006  30.7325017
  99.0909987  68.3915006  30.7325017  97.8939987  69.3185006  30.7325017
 104.0949987  63.7875006  23.4525017 105.0519987  63.7875006  23.4525017
 103.8549987  64.7145006  23.4525017  99.1449987  59.9405006  19.9305017
 100.1019987  59.9405006  19.9305017  98.9049987  60.8675006  19.9305017
 102.7569987  62.1315006  25.9095017 103.7139987  62.1315006  25.9095017
 102.5169987  63.0585006  25.9095017 103.3659987  68.3615006  17.5975017
 104.3229987  68.3615006  17.5975017 103.1259987  69.2885006  17.5975017
 107.1549987  61.1935006  15.7895017 108.1119987  61.1935006  15.7895017
 106.9149987  62.1205006  15.7895017 104.8409987  68.5785006  28.8365017
 105.7979987  68.5785006  28.8365017 104.6009987  69.5055006  28.8365017
   0.1189987  63.1785006  17.4885017   1.0759987  63.1785006  17.4885017
  -0.1210013  64.1055006  17.4885017  98.4619987  67.7265006  23.4015017
  99.4189987  67.7265006  23.4015017  98.2219987  68.6535006  23.4015017
 105.4569987  69.8125006  16.6205017 106.4139987  69.8125006  16.6205017
 105.2169987  70.7395006  16.6205017  95.4589987  66.1435006  28.6805017
  96.4159987  66.1435006  28.6805017  95.2189987  67.0705006  28.6805017
 102.4729987  65.7035006  30.8605017 103.4299987  65.7035006  30.8605017
 102.2329987  66.6305006  30.8605017 107.1529987  71.0725006  28.7725017
 108.1099987  71.0725006  28.7725017 106.9129987  71.9995006  28.7725017
 100.8369987  71.1925006  20.7865017 101.7939987  71.1925006  20.7865017
 100.5969987  72.1195006  20.7865017  96.6009987  66.0405006  15.3575017
  97.5579987  66.0405006  15.3575017  96.3609987  66.9675006  15.3575017
 102.2549987  68.8615006  20.3125017 103.2119987  68.8615006  20.3125017
 102.0149987  69.7885006  20.3125017 102.7069987  73.0325006  26.7025017
 103.6639987  73.0325006  26.7025017 102.4669987  73.9595006  26.7025017
 100.9359987  73.8615006  19.8525017 101.8929987  73.8615006  19.8525017
 100.6959987  74.7885006  19.8525017 106.2749987  69.0435006  26.3605017
 107.2319987  69.0435006  26.3605017 106.0349987  69.9705006  26.3605017
  97.1039987  60.8715006  28.1875017  98.0609987  60.8715006  28.1875017
  96.8639987  61.7985006  28.1875017  96.7279987  72.6795006  26.6515017
  97.6849987  72.6795006  26.6515017  96.4879987  73.6065006  26.6515017
 102.6639987  71.1885006  13.8975017 103.6209987  71.1885006  13.8975017
 102.4239987  72.1155006  13.8975017 101.4919987  70.7155006  16.3605017
 102.4489987  70.7155006  16.3605017 101.2519987  71.6425006  16.3605017
  98.0039987  67.9625006  16.8505017  98.9609987  67.9625006  16.8505017
  97.7639987  68.8895006  16.8505017 105.8509987  60.6375006  27.1685017
 106.8079987  60.6375006  27.1685017 105.6109987  61.5645006  27.1685017
 106.3259987  60.4585006  18.2295017 107.2829987  60.4585006  18.2295017
 106.0859987  61.3855006  18.2295017 104.2859987  72.3825006  17.0855017
 105.2429987  72.3825006  17.0855017 104.0459987  73.3095006  17.0855017
 103.7909987  62.0115006  19.0725017 104.7479987  62.0115006  19.0725017
 103.5509987  62.9385006  19.0725017 104.3479987  62.9635006  28.2675017
 105.3049987  62.9635006  28.2675017 104.1079987  63.8905006  28.2675017
 104.6989987  59.0465006  19.9855017 105.6559987  59.0465006  19.9855017
 104.4589987  59.9735006  19.9855017 101.6349987  73.4215006  17.0835017
 102.5919987  73.4215006  17.0835017 101.3949987  74.3485006  17.0835017
 100.3269987  60.1375006  16.6805017 101.2839987  60.1375006  16.6805017
 100.0869987  61.0645006  16.6805017  98.5659987  70.5795006  15.7345017
  99.5229987  70.5795006  15.7345017  98.3259987  71.5065006  15.7345017
  96.9059987  63.2505006  14.8615017  97.8629987  63.2505006  14.8615017
  96.6659987  64.1775006  14.8615017  97.7239987  58.0395006  23.5875017
  98.6809987  58.0395006  23.5875017  97.4839987  58.9665006  23.5875017
  96.6739987  71.9575006  19.7345017  97.6309987  71.9575006  19.7345017
  96.4339987  72.8845006  19.7345017  95.8949987  74.6075006  31.0365017
  96.8519987  74.6075006  31.0365017  95.6549987  75.5345006  31.0365017
 100.5519987  73.5275006  32.6555017 101.5089987  73.5275006  32.6555017
 100.3119987  74.4545006  32.6555017 104.7059987  73.0265006  14.0335017
 105.6629987  73.0265006  14.0335017 104.4659987  73.9535006  14.0335017
 107.1409987  71.9145006  31.3825017 108.0979987  71.9145006  31.3825017
 106.9009987  72.8415006  31.3825017  95.8189987  68.3945006  32.0175017
  96.7759987  68.3945006  32.0175017  95.5789987  69.3215006  32.0175017
 100.1419987  68.7315006  14.0695017 101.0989987  68.7315006  14.0695017
  99.9019987  69.6585006  14.0695017 102.5139987  68.3815006  31.4205017
 103.4709987  68.3815006  31.4205017 102.2739987  69.3085006  31.4205017
 105.5969987  69.8085006  13.8395017 106.5539987  69.8085006  13.8395017
 105.3569987  70.7355006  13.8395017  96.6939987  65.6185006  31.4045017
  97.6509987  65.6185006  31.4045017  96.4539987  66.5455006  31.4045017
 101.3409987  66.7415006  16.4555017 102.2979987  66.7415006  16.4555017
 101.1009987  67.6685006  16.4555017 100.6299987  64.5695006  28.7585017
 101.5869987  64.5695006  28.7585017 100.3899987  65.4965006  28.7585017
 102.4119987  64.9575006  14.6865017 103.3689987  64.9575006  14.6865017
 102.1719987  65.8845006  14.6865017 105.6769987  67.1075006  32.1195017
 106.6339987  67.1075006  32.1195017 105.4369987  68.0345006  32.1195017
 101.0179987  61.9315006  29.8415017 101.9749987  61.9315006  29.8415017
 100.7779987  62.8585006  29.8415017 101.4089987  60.3135006  27.3755017
 102.3659987  60.3135006  27.3755017 101.1689987  61.2405006  27.3755017
 102.9889987  65.7925006  27.6145017 103.9459987  65.7925006  27.6145017
 102.7489987  66.7195006  27.6145017 107.3909987  63.5835006  32.6995017
 108.3479987  63.5835006  32.6995017 107.1509987  64.5105006  32.6995017
  99.5049987  63.3905006  31.4775017 100.4619987  63.3905006  31.4775017
  99.2649987  64.3175006  31.4775017 102.2189987  57.7595006  27.7805017
 103.1759987  57.7595006  27.7805017 101.9789987  58.6865006  27.7805017
 103.4719987  62.0865006  31.3775017 104.4289987  62.0865006  31.3775017
 103.2319987  63.0135006  31.3775017 106.1349987  61.1905006  30.4335017
 107.0919987  61.1905006  30.4335017 105.8949987  62.1175006  30.4335017
 107.7729987  59.8905006  32.3745017 108.7299987  59.8905006  32.3745017
 107.5329987  60.8175006  32.3745017  97.3619987  60.8805006  31.0275017
  98.3189987  60.8805006  31.0275017  97.1219987  61.8075006  31.0275017
 102.4119987  57.1235006  30.4715017 103.3689987  57.1235006  30.4715017
 102.1719987  58.0505006  30.4715017 102.7839987  58.7585006  32.5505017
 103.7409987  58.7585006  32.5505017 102.5439987  59.6855006  32.5505017
 102.2629987  75.6625006  15.7415017 103.2199987  75.6625006  15.7415017
 102.0229987  76.5895006  15.7415017  95.8229987  70.2615006  15.2085017
  96.7799987  70.2615006  15.2085017  95.5829987  71.1885006  15.2085017
  94.5789987  75.6425006  20.2005017  95.5359987  75.6425006  20.2005017
  94.3389987  76.5695006  20.2005017  95.4079987  73.7625006  22.0545017
  96.3649987  73.7625006  22.0545017  95.1679987  74.6895006  22.0545017
  95.4619987  66.8385006  24.5455017  96.4189987  66.8385006  24.5455017
  95.2219987  67.7655006  24.5455017  95.0609987  62.1485006  30.6865017
  96.0179987  62.1485006  30.6865017  94.8209987  63.0755006  30.6865017
  96.2809987  60.4275006  23.5495017  97.2379987  60.4275006  23.5495017
  96.0409987  61.3545006  23.5495017  94.5679987  63.4205006  24.6015017
  95.5249987  63.4205006  24.6015017  94.3279987  64.3475006  24.6015017
  94.9319987  59.6955006  18.6755017  95.8889987  59.6955006  18.6755017
  94.6919987  60.6225006  18.6755017  94.8759987  58.3465006  26.9705017
  95.8329987  58.3465006  26.9705017  94.6359987  59.2735006  26.9705017
  97.1069987  71.5515006  31.1355017  98.0639987  71.5515006  31.1355017
  96.8669987  72.4785006  31.1355017 100.0169987  72.5455006  27.4085017
 100.9739987  72.5455006  27.4085017  99.7769987  73.4725006  27.4085017
 104.3349987  73.9805006  30.3495017 105.2919987  73.9805006  30.3495017
 104.0949987  74.9075006  30.3495017 106.6799987  75.2835006  29.5665017
 107.6369987  75.2835006  29.5665017 106.4399987  76.2105006  29.5665017
  97.4419987  75.7935006  27.4185017  98.3989987  75.7935006  27.4185017
  97.2019987  76.7205006  27.4185017  99.9129987  75.3755006  26.4825017
 100.8699987  75.3755006  26.4825017  99.6729987  76.3025006  26.4825017
 104.5959987  75.2835006  25.6555017 105.5529987  75.2835006  25.6555017
 104.3559987  76.2105006  25.6555017 106.9359987  74.1495006  26.6645017
 107.8929987  74.1495006  26.6645017 106.6959987  75.0765006  26.6645017
  96.8769987  74.4405006  24.3485017  97.8339987  74.4405006  24.3485017
  96.6369987  75.3675006  24.3485017  98.9709987  73.1535006  23.0015017
  99.9279987  73.1535006  23.0015017  98.7309987  74.0805006  23.0015017
 101.5379987  73.6355006  23.8695017 102.4949987  73.6355006  23.8695017
 101.2979987  74.5625006  23.8695017 105.0119987  59.2765006  22.9975017
 105.9689987  59.2765006  22.9975017 104.7719987  60.2035006  22.9975017
  97.3939987  57.9175006  20.8555017  98.3509987  57.9175006  20.8555017
  97.1539987  58.8445006  20.8555017  96.1829987  57.6745006  16.6015017
  97.1399987  57.6745006  16.6015017  95.9429987  58.6015006  16.6015017
 101.8999987  57.8265006  20.6445017 102.8569987  57.8265006  20.6445017
 101.6599987  58.7535006  20.6445017 107.4669987  57.7825006  22.4465017
 108.4239987  57.7825006  22.4465017 107.2269987  58.7095006  22.4465017
  96.0959987  73.6235006  17.5875017  97.0529987  73.6235006  17.5875017
  95.8559987  74.5505006  17.5875017  98.0149987  59.6155006  15.0885017
  98.9719987  59.6155006  15.0885017  97.7749987  60.5425006  15.0885017
 103.0459987  59.8655006  17.5035017 104.0029987  59.8655006  17.5035017
 102.8059987  60.7925006  17.5035017 104.9369987  74.9065006  15.9385017
 105.8939987  74.9065006  15.9385017 104.6969987  75.8335006  15.9385017
  97.3139987  58.3755006  30.2595017  98.2709987  58.3755006  30.2595017
  97.0739987  59.3025006  30.2595017  99.2959987  57.8125006  31.9055017
 100.2529987  57.8125006  31.9055017  99.0559987  58.7395006  31.9055017
  97.8909987  74.5945006  14.5505017  98.8479987  74.5945006  14.5505017
  97.6509987  75.5215006  14.5505017  -0.0900013  57.1875006  32.1235017
   0.8669987  57.1875006  32.1235017  -0.3300013  58.1145006  32.1235017
  12.1999987  85.9055006  20.7405017  13.1569987  85.9055006  20.7405017
  11.9599987  86.8325006  20.7405017  11.0679987  85.1735006  24.2275017
  12.0249987  85.1735006  24.2275017  10.8279987  86.1005006  24.2275017
   3.5129987  84.7745006  25.7225017   4.4699987  84.7745006  25.7225017
   3.2729987  85.7015006  25.7225017  14.7729987  88.1035006  22.5095017
  15.7299987  88.1035006  22.5095017  14.5329987  89.0305006  22.5095017
   4.3419987  89.2775006  24.3085017   5.2989987  89.2775006  24.3085017
   4.1019987  90.2045006  24.3085017   1.0709987  82.9535006  19.7165017
   2.0279987  82.9535006  19.7165017   0.8309987  83.8805006  19.7165017
   1.6959987  85.0475006  21.8965017   2.6529987  85.0475006  21.8965017
   1.4559987  85.9745006  21.8965017  11.8829987  93.2615006  22.7385017
  12.8399987  93.2615006  22.7385017  11.6429987  94.1885006  22.7385017
   9.4469987  87.5805006  24.6675017  10.4039987  87.5805006  24.6675017
   9.2069987  88.5075006  24.6675017  18.0369987  79.2135006  25.4165017
  18.9939987  79.2135006  25.4165017  17.7969987  80.1405006  25.4165017
  12.5909987  82.0315006  24.9785017  13.5479987  82.0315006  24.9785017
  12.3509987  82.9585006  24.9785017   5.7059987  80.1285006  22.2225017
   6.6629987  80.1285006  22.2225017   5.4659987  81.0555006  22.2225017
  13.4669987  80.2075006  20.5975017  14.4239987  80.2075006  20.5975017
  13.2269987  81.1345006  20.5975017   2.5729987  82.5875006  22.8515017
   3.5299987  82.5875006  22.8515017   2.3329987  83.5145006  22.8515017
   7.4679987  84.0565006  22.2905017   8.4249987  84.0565006  22.2905017
   7.2279987  84.9835006  22.2905017  18.5049987  80.6415006  27.6835017
  19.4619987  80.6415006  27.6835017  18.2649987  81.5685006  27.6835017
   4.6359987  79.0365006  26.2795017   5.5929987  79.0365006  26.2795017
   4.3959987  79.9635006  26.2795017  11.9369987  88.5075006  19.8145017
  12.8939987  88.5075006  19.8145017  11.6969987  89.4345006  19.8145017
   7.1449987  86.6575006  26.5085017   8.1019987  86.6575006  26.5085017
   6.9049987  87.5845006  26.5085017  15.2639987  79.5525006  22.5975017
  16.2209987  79.5525006  22.5975017  15.0239987  80.4795006  22.5975017
   4.1889987  80.9095006  24.2455017   5.1459987  80.9095006  24.2455017
   3.9489987  81.8365006  24.2455017   5.5889987  88.6525006  27.3255017
   6.5459987  88.6525006  27.3255017   5.3489987  89.5795006  27.3255017
   1.7039987  88.3085006  18.0995017   2.6609987  88.3085006  18.0995017
   1.4639987  89.2355006  18.0995017  15.2949987  89.9465006  24.8725017
  16.2519987  89.9465006  24.8725017  15.0549987  90.8735006  24.8725017
  15.6009987  78.2315006  26.2635017  16.5579987  78.2315006  26.2635017
  15.3609987  79.1585006  26.2635017   8.5849987  76.3265006  23.6835017
   9.5419987  76.3265006  23.6835017   8.3449987  77.2535006  23.6835017
  13.5469987  91.7315006  21.4745017  14.5039987  91.7315006  21.4745017
  13.3069987  92.6585006  21.4745017  14.7479987  89.6585006  19.9825017
  15.7049987  89.6585006  19.9825017  14.5079987  90.5855006  19.9825017
  16.4449987  88.2345006  28.4655017  17.4019987  88.2345006  28.4655017
  16.2049987  89.1615006  28.4655017  10.8749987  85.1485006  18.2495017
  11.8319987  85.1485006  18.2495017  10.6349987  86.0755006  18.2495017
  10.9349987  83.6825006  15.2585017  11.8919987  83.6825006  15.2585017
  10.6949987  84.6095006  15.2585017  17.9149987  84.4445006  26.4115017
  18.8719987  84.4445006  26.4115017  17.6749987  85.3715006  26.4115017
  14.3119987  85.3625006  19.1625017  15.2689987  85.3625006  19.1625017
  14.0719987  86.2895006  19.1625017  14.3149987  83.8055006  27.4055017
  15.2719987  83.8055006  27.4055017  14.0749987  84.7325006  27.4055017
   5.9159987  86.0085006  21.0975017   6.8729987  86.0085006  21.0975017
   5.6759987  86.9355006  21.0975017   7.2599987  89.4175006  23.7555017
   8.2169987  89.4175006  23.7555017   7.0199987  90.3445006  23.7555017
   6.2739987  84.7545006  24.7005017   7.2309987  84.7545006  24.7005017
   6.0339987  85.6815006  24.7005017  12.6449987  90.3265006  25.4325017
  13.6019987  90.3265006  25.4325017  12.4049987  91.2535006  25.4325017
   7.2049987  89.1835006  29.4315017   8.1619987  89.1835006  29.4315017
   6.9649987  90.1105006  29.4315017  13.1769987  84.5465006  16.8395017
  14.1339987  84.5465006  16.8395017  12.9369987  85.4735006  16.8395017
   4.1249987  85.3565006  28.6205017   5.0819987  85.3565006  28.6205017
   3.8849987  86.2835006  28.6205017  10.8979987  91.2745006  20.3015017
  11.8549987  91.2745006  20.3015017  10.6579987  92.2015006  20.3015017
   5.4409987  91.2335006  30.1875017   6.3979987  91.2335006  30.1875017
   5.2009987  92.1605006  30.1875017  16.9039987  76.2815006  16.7105017
  17.8609987  76.2815006  16.7105017  16.6639987  77.2085006  16.7105017
   4.9099987  85.0555006  18.7225017   5.8669987  85.0555006  18.7225017
   4.6699987  85.9825006  18.7225017  18.0269987  90.6385006  15.0745017
  18.9839987  90.6385006  15.0745017  17.7869987  91.5655006  15.0745017
   1.1259987  87.4405006  27.5085017   2.0829987  87.4405006  27.5085017
   0.8859987  88.3675006  27.5085017   1.0129987  90.3315006  24.0855017
   1.9699987  90.3315006  24.0855017   0.7729987  91.2585006  24.0855017
  18.9859987  90.9095006  30.1255017  19.9429987  90.9095006  30.1255017
  18.7459987  91.8365006  30.1255017   9.9459987  90.4475006  28.9135017
  10.9029987  90.4475006  28.9135017   9.7059987  91.3745006  28.9135017
  10.3799987  94.1965006  18.7185017  11.3369987  94.1965006  18.7185017
  10.1399987  95.1235006  18.7185017   4.0199987  93.0575006  20.5085017
   4.9769987  93.0575006  20.5085017   3.7799987  93.9845006  20.5085017
  13.4449987  93.4015006  15.7015017  14.4019987  93.4015006  15.7015017
  13.2049987  94.3285006  15.7015017  13.1339987  93.3285006  18.4655017
  14.0909987  93.3285006  18.4655017  12.8939987  94.2555006  18.4655017
  16.4439987  82.2335006  30.5025017  17.4009987  82.2335006  30.5025017
  16.2039987  83.1605006  30.5025017   3.2619987  88.8125006  28.5395017
   4.2189987  88.8125006  28.5395017   3.0219987  89.7395006  28.5395017
   5.9499987  77.2555006  24.4545017   6.9069987  77.2555006  24.4545017
   5.7099987  78.1825006  24.4545017  10.5819987  76.9305006  27.8525017
  11.5389987  76.9305006  27.8525017  10.3419987  77.8575006  27.8525017
  13.8379987  80.6855006  28.6775017  14.7949987  80.6855006  28.6775017
  13.5979987  81.6125006  28.6775017  14.6309987  85.5835006  14.5895017
  15.5879987  85.5835006  14.5895017  14.3909987  86.5105006  14.5895017
  10.2349987  79.4935006  15.1515017  11.1919987  79.4935006  15.1515017
   9.9949987  80.4205006  15.1515017   6.0019987  82.2135006  25.6455017
   6.9589987  82.2135006  25.6455017   5.7619987  83.1405006  25.6455017
   6.0209987  82.3845006  20.4645017   6.9779987  82.3845006  20.4645017
   5.7809987  83.3115006  20.4645017  11.5259987  82.8435006  19.3695017
  12.4829987  82.8435006  19.3695017  11.2859987  83.7705006  19.3695017
  10.5689987  83.0595006  30.8325017  11.5259987  83.0595006  30.8325017
  10.3289987  83.9865006  30.8325017  12.5439987  82.3185006  22.1885017
  13.5009987  82.3185006  22.1885017  12.3039987  83.2455006  22.1885017
   3.7079987  82.4875006  27.4295017   4.6649987  82.4875006  27.4295017
   3.4679987  83.4145006  27.4295017   7.0789987  79.8805006  14.2625017
   8.0359987  79.8805006  14.2625017   6.8389987  80.8075006  14.2625017
   0.4169987  78.9065006  21.7095017   1.3739987  78.9065006  21.7095017
   0.1769987  79.8335006  21.7095017   1.7979987  80.3205006  16.8485017
   2.7549987  80.3205006  16.8485017   1.5579987  81.2475006  16.8485017
  11.7009987  83.9265006  26.7575017  12.6579987  83.9265006  26.7575017
  11.4609987  84.8535006  26.7575017   8.5609987  79.8785006  21.6025017
   9.5179987  79.8785006  21.6025017   8.3209987  80.8055006  21.6025017
   3.4079987  81.4505006  20.4675017   4.3649987  81.4505006  20.4675017
   3.1679987  82.3775006  20.4675017   7.0209987  81.4985006  18.1045017
   7.9779987  81.4985006  18.1045017   6.7809987  82.4255006  18.1045017
  12.9719987  79.1145006  24.8515017  13.9289987  79.1145006  24.8515017
  12.7319987  80.0415006  24.8515017   5.7079987  82.6775006  15.6755017
   6.6649987  82.6775006  15.6755017   5.4679987  83.6045006  15.6755017
  16.2449987  94.7105006  31.1685017  17.2019987  94.7105006  31.1685017
  16.0049987  95.6375006  31.1685017   3.8569987  87.2175006  30.7495017
   4.8139987  87.2175006  30.7495017   3.6169987  88.1445006  30.7495017
   9.8229987  82.6375006  23.4825017  10.7799987  82.6375006  23.4825017
   9.5829987  83.5645006  23.4825017   4.8669987  78.8115006  19.9295017
   5.8239987  78.8115006  19.9295017   4.6269987  79.7385006  19.9295017
   8.4949987  81.0025006  25.8975017   9.4519987  81.0025006  25.8975017
   8.2549987  81.9295006  25.8975017   9.0789987  87.2115006  17.6045017
  10.0359987  87.2115006  17.6045017   8.8389987  88.1385006  17.6045017
  16.2589987  86.4325006  26.4035017  17.2159987  86.4325006  26.4035017
  16.0189987  87.3595006  26.4035017  12.9189987  80.0275006  15.7825017
  13.8759987  80.0275006  15.7825017  12.6789987  80.9545006  15.7825017
  10.5449987  87.4625006  28.8335017  11.5019987  87.4625006  28.8335017
  10.3049987  88.3895006  28.8335017  13.6479987  81.9285006  17.4255017
  14.6049987  81.9285006  17.4255017  13.4079987  82.8555006  17.4255017
   4.1679987  86.5625006  23.3805017   5.1249987  86.5625006  23.3805017
   3.9279987  87.4895006  23.3805017  11.1859987  88.6805006  16.6325017
  12.1429987  88.6805006  16.6325017  10.9459987  89.6075006  16.6325017
   1.1639987  85.0055006  28.6805017   2.1209987  85.0055006  28.6805017
   0.9239987  85.9325006  28.6805017   8.1799987  84.5595006  30.8665017
   9.1369987  84.5595006  30.8665017   7.9399987  85.4865006  30.8665017
  12.8569987  89.8925006  28.7815017  13.8139987  89.8925006  28.7815017
  12.6169987  90.8195006  28.7815017  18.5509987  82.0865006  17.1805017
  19.5079987  82.0865006  17.1805017  18.3109987  83.0135006  17.1805017
  18.5359987  87.9565006  30.0025017  19.4929987  87.9565006  30.0025017
  18.2959987  88.8835006  30.0025017  16.8159987  90.9115006  17.5925017
  17.7729987  90.9115006  17.5925017  16.5759987  91.8385006  17.5925017
  14.0339987  85.7495006  24.6365017  14.9909987  85.7495006  24.6365017
  13.7939987  86.6765006  24.6365017   6.5689987  90.0415006  20.7855017
   7.5259987  90.0415006  20.7855017   6.3289987  90.9685006  20.7855017
   2.2879987  84.8875006  15.3835017   3.2449987  84.8875006  15.3835017
   2.0479987  85.8145006  15.3835017   7.9839987  87.7155006  20.3095017
   8.9409987  87.7155006  20.3095017   7.7439987  88.6425006  20.3095017
   8.4319987  91.8935006  26.7025017   9.3889987  91.8935006  26.7025017
   8.1919987  92.8205006  26.7025017   6.6619987  92.7145006  19.8485017
   7.6189987  92.7145006  19.8485017   6.4219987  93.6415006  19.8485017
  11.9809987  87.9125006  26.3485017  12.9379987  87.9125006  26.3485017
  11.7409987  88.8395006  26.3485017  14.2709987  88.9565006  15.4255017
  15.2279987  88.9565006  15.4255017  14.0309987  89.8835006  15.4255017
  14.7529987  92.4905006  28.8385017  15.7099987  92.4905006  28.8385017
  14.5129987  93.4175006  28.8385017  18.7469987  93.3335006  15.6675017
  19.7039987  93.3335006  15.6675017  18.5069987  94.2605006  15.6675017
   2.8079987  79.7385006  28.2225017   3.7649987  79.7385006  28.2225017
   2.5679987  80.6655006  28.2225017  15.0659987  87.6005006  17.6595017
  16.0229987  87.6005006  17.6595017  14.8259987  88.5275006  17.6595017
   2.4769987  91.5405006  26.6325017   3.4339987  91.5405006  26.6325017
   2.2369987  92.4675006  26.6325017   8.3909987  90.0415006  13.9045017
   9.3479987  90.0415006  13.9045017   8.1509987  90.9685006  13.9045017
   7.2229987  89.5735006  16.3585017   8.1799987  89.5735006  16.3585017
   6.9829987  90.5005006  16.3585017   3.6939987  86.7995006  16.8425017
   4.6509987  86.7995006  16.8425017   3.4539987  87.7265006  16.8425017
  11.5429987  79.4865006  27.1455017  12.4999987  79.4865006  27.1455017
  11.3029987  80.4135006  27.1455017  12.3089987  79.0925006  18.2525017
  13.2659987  79.0925006  18.2525017  12.0689987  80.0195006  18.2525017
   9.9969987  91.2435006  17.0795017  10.9539987  91.2435006  17.0795017
   9.7569987  92.1705006  17.0795017   9.5289987  80.8485006  19.0735017
  10.4859987  80.8485006  19.0735017   9.2889987  81.7755006  19.0735017
  10.0519987  81.8385006  28.2655017  11.0089987  81.8385006  28.2655017
   9.8119987  82.7655006  28.2655017  10.3929987  77.8905006  19.9965017
  11.3499987  77.8905006  19.9965017  10.1529987  78.8175006  19.9965017
   7.3789987  92.2795006  17.0895017   8.3359987  92.2795006  17.0895017
   7.1389987  93.2065006  17.0895017   6.0499987  78.9965006  16.6805017
   7.0069987  78.9965006  16.6805017   5.8099987  79.9235006  16.6805017
  16.2699987  79.7035006  29.1075017  17.2269987  79.7035006  29.1075017
  16.0299987  80.6305006  29.1075017  14.8769987  83.5135006  23.1325017
  15.8339987  83.5135006  23.1325017  14.6369987  84.4405006  23.1325017
   4.2909987  89.4415006  15.7255017   5.2479987  89.4415006  15.7255017
   4.0509987  90.3685006  15.7255017   2.5799987  82.1175006  14.9095017
   3.5369987  82.1175006  14.9095017   2.3399987  83.0445006  14.9095017
  15.9429987  92.7615006  24.7955017  16.8999987  92.7615006  24.7955017
  15.7029987  93.6885006  24.7955017   3.4639987  76.8935006  23.5745017
   4.4209987  76.8935006  23.5745017   3.2239987  77.8205006  23.5745017
   2.3869987  90.8255006  19.7465017   3.3439987  90.8255006  19.7465017
   2.1469987  91.7525006  19.7465017   1.7149987  93.4105006  30.9685017
   2.6719987  93.4105006  30.9685017   1.4749987  94.3375006  30.9685017
   6.2689987  92.3715006  32.6495017   7.2259987  92.3715006  32.6495017
   6.0289987  93.2985006  32.6495017  10.3969987  91.8965006  14.0385017
  11.3539987  91.8965006  14.0385017  10.1569987  92.8235006  14.0385017
  12.8189987  90.7665006  31.3845017  13.7759987  90.7665006  31.3845017
  12.5789987  91.6935006  31.3845017  14.9679987  91.6545006  14.2375017
  15.9249987  91.6545006  14.2375017  14.7279987  92.5815006  14.2375017
   1.5099987  87.2515006  32.0225017   2.4669987  87.2515006  32.0225017
   1.2699987  88.1785006  32.0225017   5.8659987  87.5885006  14.0705017
   6.8229987  87.5885006  14.0705017   5.6259987  88.5155006  14.0705017
   8.2309987  87.2265006  31.4175017   9.1879987  87.2265006  31.4175017
   7.9909987  88.1535006  31.4175017  11.2829987  88.6815006  13.8315017
  12.2399987  88.6815006  13.8315017  11.0429987  89.6085006  13.8315017
  13.9229987  87.1145006  28.7275017  14.8799987  87.1145006  28.7275017
  13.6829987  88.0415006  28.7275017   2.3629987  84.4455006  31.4015017
   3.3199987  84.4455006  31.4015017   2.1229987  85.3725006  31.4015017
   7.0619987  85.5965006  16.4595017   8.0189987  85.5965006  16.4595017
   6.8219987  86.5235006  16.4595017   6.3349987  83.4205006  28.7765017
   7.2919987  83.4205006  28.7765017   6.0949987  84.3475006  28.7765017
   8.1329987  83.8175006  14.6785017   9.0899987  83.8175006  14.6785017
   7.8929987  84.7445006  14.6785017  11.3989987  85.9835006  32.1085017
  12.3559987  85.9835006  32.1085017  11.1589987  86.9105006  32.1085017
  17.4899987  86.1485006  14.1085017  18.4469987  86.1485006  14.1085017
  17.2499987  87.0755006  14.1085017   6.7339987  80.7985006  29.8365017
   7.6909987  80.7985006  29.8365017   6.4939987  81.7255006  29.8365017
   7.1349987  79.1725006  27.3815017   8.0919987  79.1725006  27.3815017
   6.8949987  80.0995006  27.3815017   8.6679987  84.6395006  27.6135017
   9.6249987  84.6395006  27.6135017   8.4279987  85.5665006  27.6135017
  13.0699987  82.3835006  32.7755017  14.0269987  82.3835006  32.7755017
  12.8299987  83.3105006  32.7755017  14.5869987  85.8745006  30.9735017
  15.5439987  85.8745006  30.9735017  14.3469987  86.8015006  30.9735017
   5.1749987  82.0475006  31.7515017   6.1319987  82.0475006  31.7515017
   4.9349987  82.9745006  31.7515017   7.9159987  76.6175006  27.7825017
   8.8729987  76.6175006  27.7825017   7.6759987  77.5445006  27.7825017
   9.1809987  80.9325006  31.3805017  10.1379987  80.9325006  31.3805017
   8.9409987  81.8595006  31.3805017  11.9099987  80.0655006  30.4525017
  12.8669987  80.0655006  30.4525017  11.6699987  80.9925006  30.4525017
  13.5069987  78.6905006  32.3965017  14.4639987  78.6905006  32.3965017
  13.2669987  79.6175006  32.3965017   3.3069987  79.9735006  31.4775017
   4.2639987  79.9735006  31.4775017   3.0669987  80.9005006  31.4775017
   8.1389987  75.9775006  30.4725017   9.0959987  75.9775006  30.4725017
   7.8989987  76.9045006  30.4725017   8.5139987  77.6205006  32.5515017
   9.4709987  77.6205006  32.5515017   8.2739987  78.5475006  32.5515017
   7.9809987  94.5145006  15.7405017   8.9379987  94.5145006  15.7405017
   7.7409987  95.4415006  15.7405017   1.5899987  89.1275006  15.1945017
   2.5469987  89.1275006  15.1945017   1.3499987  90.0545006  15.1945017
 108.0619987  94.5535006  20.2355017 109.0189987  94.5535006  20.2355017
 107.8219987  95.4805006  20.2355017   1.5069987  92.7665006  22.1605017
   2.4639987  92.7665006  22.1605017   1.2669987  93.6935006  22.1605017
  18.6619987  93.4145006  25.0055017  19.6189987  93.4145006  25.0055017
  18.4219987  94.3415006  25.0055017  18.2219987  93.0085006  27.9765017
  19.1789987  93.0085006  27.9765017  17.9819987  93.9355006  27.9765017
  16.6899987  88.7585006  32.5895017  17.6469987  88.7585006  32.5895017
  16.4499987  89.6855006  32.5895017  17.9909987  87.0555006  18.0625017
  18.9479987  87.0555006  18.0625017  17.7509987  87.9825006  18.0625017
  18.3599987  85.1245006  19.9195017  19.3169987  85.1245006  19.9195017
  18.1199987  86.0515006  19.9195017  18.1549987  87.8285006  24.9535017
  19.1119987  87.8285006  24.9535017  17.9149987  88.7555006  24.9535017
  16.6669987  90.7475006  27.2025017  17.6239987  90.7475006  27.2025017
  16.4269987  91.6745006  27.2025017  18.6619987  84.9635006  16.3235017
  19.6189987  84.9635006  16.3235017  18.4219987  85.8905006  16.3235017
  17.0269987  82.2005006  14.8455017  17.9839987  82.2005006  14.8455017
  16.7869987  83.1275006  14.8455017  16.1769987  83.6095006  20.4905017
  17.1339987  83.6095006  20.4905017  15.9369987  84.5365006  20.4905017
   1.1889987  85.6655006  24.5515017   2.1459987  85.6655006  24.5515017
   0.9489987  86.5925006  24.5515017  17.0579987  85.5685006  30.1125017
  18.0149987  85.5685006  30.1125017  16.8179987  86.4955006  30.1125017
  18.5999987  83.5025006  30.8115017  19.5569987  83.5025006  30.8115017
  18.3599987  84.4295006  30.8115017  16.2699987  79.6575006  13.9775017
  17.2269987  79.6575006  13.9775017  16.0299987  80.5845006  13.9775017
  15.8369987  81.1945006  18.9275017  16.7939987  81.1945006  18.9275017
  15.5969987  82.1215006  18.9275017  16.4819987  81.7485006  24.4025017
  17.4389987  81.7485006  24.4025017  16.2419987  82.6755006  24.4025017
  16.5529987  82.4195006  27.2165017  17.5099987  82.4195006  27.2165017
  16.3129987  83.3465006  27.2165017   0.8779987  80.9555006  30.6085017
   1.8349987  80.9555006  30.6085017   0.6379987  81.8825006  30.6085017
  18.7989987  76.5015006  32.5435017  19.7559987  76.5015006  32.5435017
  18.5589987  77.4285006  32.5435017  16.5029987  78.4805006  19.0035017
  17.4599987  78.4805006  19.0035017  16.2629987  79.4075006  19.0035017
   2.1089987  79.3215006  23.5205017   3.0659987  79.3215006  23.5205017
   1.8689987  80.2485006  23.5205017   0.9239987  82.2495006  24.7435017
   1.8809987  82.2495006  24.7435017   0.6839987  83.1765006  24.7435017
  18.3539987  78.6075006  30.8845017  19.3109987  78.6075006  30.8845017
  18.1139987  79.5345006  30.8845017  18.3389987  78.5155006  15.5605017
  19.2959987  78.5155006  15.5605017  18.0989987  79.4425006  15.5605017
   0.8919987  78.4905006  18.6885017   1.8489987  78.4905006  18.6885017
   0.6519987  79.4175006  18.6885017  15.3889987  93.4995006  20.6205017
  16.3459987  93.4995006  20.6205017  15.1489987  94.4265006  20.6205017
 108.3289987  77.2025006  27.0035017 109.2859987  77.2025006  27.0035017
 108.0889987  78.1295006  27.0035017   2.8149987  90.4315006  31.1525017
   3.7719987  90.4315006  31.1525017   2.5749987  91.3585006  31.1525017
   5.7349987  91.4025006  27.4115017   6.6919987  91.4025006  27.4115017
   5.4949987  92.3295006  27.4115017  10.0559987  92.8275006  30.3255017
  11.0129987  92.8275006  30.3255017   9.8159987  93.7545006  30.3255017
  12.3549987  94.0975006  29.6145017  13.3119987  94.0975006  29.6145017
  12.1149987  95.0245006  29.6145017  17.3499987  76.6895006  28.7325017
  18.3069987  76.6895006  28.7325017  17.1099987  77.6165006  28.7325017
   3.1419987  94.6525006  27.4375017   4.0989987  94.6525006  27.4375017
   2.9019987  95.5795006  27.4375017   5.6459987  94.2415006  26.4865017
   6.6029987  94.2415006  26.4865017   5.4059987  95.1685006  26.4865017
  10.3349987  94.1395006  25.6495017  11.2919987  94.1395006  25.6495017
  10.0949987  95.0665006  25.6495017  12.6419987  92.9705006  26.6475017
  13.5989987  92.9705006  26.6475017  12.4019987  93.8975006  26.6475017
  15.2229987  94.5385006  26.9055017  16.1799987  94.5385006  26.9055017
  14.9829987  95.4655006  26.9055017   2.6209987  93.3285006  24.4115017
   3.5779987  93.3285006  24.4115017   2.3809987  94.2555006  24.4115017
   4.6799987  92.0085006  23.0035017   5.6369987  92.0085006  23.0035017
   4.4399987  92.9355006  23.0035017   7.2679987  92.4885006  23.8745017
   8.2249987  92.4885006  23.8745017   7.0279987  93.4155006  23.8745017
  10.7459987  78.1315006  23.0065017  11.7029987  78.1315006  23.0065017
  10.5059987  79.0585006  23.0065017  15.9039987  76.1915006  23.1085017
  16.8609987  76.1915006  23.1085017  15.6639987  77.1185006  23.1085017
  17.5709987  77.4225006  21.4025017  18.5279987  77.4225006  21.4025017
  17.3309987  78.3495006  21.4025017   3.1319987  76.7695006  20.8115017
   4.0889987  76.7695006  20.8115017   2.8919987  77.6965006  20.8115017
   1.9429987  76.5255006  16.6555017   2.8999987  76.5255006  16.6555017
   1.7029987  77.4525006  16.6555017   7.6589987  76.6135006  20.6545017
   8.6159987  76.6135006  20.6545017   7.4189987  77.5405006  20.6545017
  13.2509987  76.7165006  22.2835017  14.2079987  76.7165006  22.2835017
  13.0109987  77.6435006  22.2835017  14.5799987  76.7485006  17.9665017
  15.5369987  76.7485006  17.9665017  14.3399987  77.6755006  17.9665017
   1.9209987  92.4945006  17.5825017   2.8779987  92.4945006  17.5825017
   1.6809987  93.4215006  17.5825017   3.7349987  78.4795006  15.0895017
   4.6919987  78.4795006  15.0895017   3.4949987  79.4065006  15.0895017
   8.7609987  78.7315006  17.4985017   9.7179987  78.7315006  17.4985017
   8.5209987  79.6585006  17.4985017  10.6769987  93.7615006  15.9505017
  11.6339987  93.7615006  15.9505017  10.4369987  94.6885006  15.9505017
  17.3909987  93.2875006  18.6535017  18.3479987  93.2875006  18.6535017
  17.1509987  94.2145006  18.6535017   2.9989987  77.2975006  30.2825017
   3.9559987  77.2975006  30.2825017   2.7589987  78.2245006  30.2825017
   5.0029987  76.6645006  31.8635017   5.9599987  76.6645006  31.8635017
   4.7629987  77.5915006  31.8635017   3.5879987  93.4285006  14.5375017
   4.5449987  93.4285006  14.5375017   3.3479987  94.3555006  14.5375017
  13.4179987  75.9855006  32.0985017  14.3749987  75.9855006  32.0985017
  13.1779987  76.9125006  32.0985017  16.5669987  92.0125006  30.7125017
  17.5239987  92.0125006  30.7125017  16.3269987  92.9395006  30.7125017
  31.0539987  85.8925006  20.7465017  32.0109987  85.8925006  20.7465017
  30.8139987  86.8195006  20.7465017  29.9569987  85.1605006  24.2485017
  30.9139987  85.1605006  24.2485017  29.7169987  86.0875006  24.2485017
  22.3499987  84.8205006  25.7565017  23.3069987  84.8205006  25.7565017
  22.1099987  85.7475006  25.7565017  33.6749987  88.0885006  22.5175017
  34.6319987  88.0885006  22.5175017  33.4349987  89.0155006  22.5175017
  23.2009987  89.2615006  24.3195017  24.1579987  89.2615006  24.3195017
  22.9609987  90.1885006  24.3195017  19.8549987  82.8555006  19.7585017
  20.8119987  82.8555006  19.7585017  19.6149987  83.7825006  19.7585017
  20.5599987  85.0625006  21.8875017  21.5169987  85.0625006  21.8875017
  20.3199987  85.9895006  21.8875017  30.7619987  93.2925006  22.7515017
  31.7189987  93.2925006  22.7515017  30.5219987  94.2195006  22.7515017
  28.2779987  87.5425006  24.6895017  29.2349987  87.5425006  24.6895017
  28.0379987  88.4695006  24.6895017  24.6279987  80.1235006  22.2035017
  25.5849987  80.1235006  22.2035017  24.3879987  81.0505006  22.2035017
  32.4009987  80.2125006  20.5835017  33.3579987  80.2125006  20.5835017
  32.1609987  81.1395006  20.5835017  21.2019987  82.5535006  22.9715017
  22.1589987  82.5535006  22.9715017  20.9619987  83.4805006  22.9715017
  26.3749987  84.0755006  22.2575017  27.3319987  84.0755006  22.2575017
  26.1349987  85.0025006  22.2575017  30.9649987  88.4255006  19.6255017
  31.9219987  88.4255006  19.6255017  30.7249987  89.3525006  19.6255017
  26.0189987  86.6635006  26.5165017  26.9759987  86.6635006  26.5165017
  25.7789987  87.5905006  26.5165017  22.9989987  80.9965006  24.1645017
  23.9559987  80.9965006  24.1645017  22.7589987  81.9235006  24.1645017
  24.4439987  88.6445006  27.3285017  25.4009987  88.6445006  27.3285017
  24.2039987  89.5715006  27.3285017  20.5329987  88.2895006  18.1345017
  21.4899987  88.2895006  18.1345017  20.2929987  89.2165006  18.1345017
  34.1589987  89.9435006  24.9165017  35.1159987  89.9435006  24.9165017
  33.9189987  90.8705006  24.9165017  32.4759987  91.7585006  21.5145017
  33.4329987  91.7585006  21.5145017  32.2359987  92.6855006  21.5145017
  33.6609987  89.6505006  19.9685017  34.6179987  89.6505006  19.9685017
  33.4209987  90.5775006  19.9685017  35.1959987  88.2395006  28.4275017
  36.1529987  88.2395006  28.4275017  34.9559987  89.1665006  28.4275017
  29.7339987  85.1305006  18.2505017  30.6909987  85.1305006  18.2505017
  29.4939987  86.0575006  18.2505017  29.7899987  83.6775006  15.2575017
  30.7469987  83.6775006  15.2575017  29.5499987  84.6045006  15.2575017
  33.1559987  85.3785006  19.1655017  34.1129987  85.3785006  19.1655017
  32.9159987  86.3055006  19.1655017  24.7919987  86.0155006  21.0855017
  25.7489987  86.0155006  21.0855017  24.5519987  86.9425006  21.0855017
  26.0849987  89.3955006  23.7845017  27.0419987  89.3955006  23.7845017
  25.8449987  90.3225006  23.7845017  25.0979987  84.8095006  24.7275017
  26.0549987  84.8095006  24.7275017  24.8579987  85.7365006  24.7275017
  31.5819987  90.3035006  25.4815017  32.5389987  90.3035006  25.4815017
  31.3419987  91.2305006  25.4815017  26.0749987  89.1995006  29.4245017
  27.0319987  89.1995006  29.4245017  25.8349987  90.1265006  29.4245017
  32.0309987  84.5385006  16.8415017  32.9879987  84.5385006  16.8415017
  31.7909987  85.4655006  16.8415017  22.9819987  85.3705006  28.6015017
  23.9389987  85.3705006  28.6015017  22.7419987  86.2975006  28.6015017
  29.9189987  91.8625006  19.9305017  30.8759987  91.8625006  19.9305017
  29.6789987  92.7895006  19.9305017  24.3149987  91.2395006  30.1665017
  25.2719987  91.2395006  30.1665017  24.0749987  92.1665006  30.1665017
  35.6859987  76.2605006  16.5515017  36.6429987  76.2605006  16.5515017
  35.4459987  77.1875006  16.5515017  23.7529987  85.0495006  18.7015017
  24.7099987  85.0495006  18.7015017  23.5129987  85.9765006  18.7015017
  36.8819987  90.6395006  15.0715017  37.8389987  90.6395006  15.0715017
  36.6419987  91.5665006  15.0715017  19.8699987  87.4775006  27.5465017
  20.8269987  87.4775006  27.5465017  19.6299987  88.4045006  27.5465017
  19.6159987  90.1845006  24.3785017  20.5729987  90.1845006  24.3785017
  19.3759987  91.1115006  24.3785017  37.8469987  90.8845006  30.0805017
  38.8039987  90.8845006  30.0805017  37.6069987  91.8115006  30.0805017
  28.8009987  90.4555006  28.8875017  29.7579987  90.4555006  28.8875017
  28.5609987  91.3825006  28.8875017  29.2189987  94.2245006  18.7045017
  30.1759987  94.2245006  18.7045017  28.9789987  95.1515006  18.7045017
  22.8779987  93.0625006  20.5265017  23.8349987  93.0625006  20.5265017
  22.6379987  93.9895006  20.5265017  32.2969987  93.4015006  15.7065017
  33.2539987  93.4015006  15.7065017  32.0569987  94.3285006  15.7065017
  31.9959987  93.3405006  18.4595017  32.9529987  93.3405006  18.4595017
  31.7559987  94.2675006  18.4595017  22.1299987  88.7615006  28.5175017
  23.0869987  88.7615006  28.5175017  21.8899987  89.6885006  28.5175017
  24.7809987  77.2315006  24.4445017  25.7379987  77.2315006  24.4445017
  24.5409987  78.1585006  24.4445017  33.4909987  85.5765006  14.5995017
  34.4479987  85.5765006  14.5995017  33.2509987  86.5035006  14.5995017
  29.0759987  79.4795006  15.1415017  30.0329987  79.4795006  15.1415017
  28.8359987  80.4065006  15.1415017  24.8719987  82.2345006  25.6425017
  25.8289987  82.2345006  25.6425017  24.6319987  83.1615006  25.6425017
  24.8479987  82.4025006  20.5525017  25.8049987  82.4025006  20.5525017
  24.6079987  83.3295006  20.5525017  30.4119987  82.8675006  19.4045017
  31.3689987  82.8675006  19.4045017  30.1719987  83.7945006  19.4045017
  31.4269987  82.3175006  22.2105017  32.3839987  82.3175006  22.2105017
  31.1869987  83.2445006  22.2105017  22.4629987  82.5685006  27.4325017
  23.4199987  82.5685006  27.4325017  22.2229987  83.4955006  27.4325017
  25.9329987  79.8905006  14.2935017  26.8899987  79.8905006  14.2935017
  25.6929987  80.8175006  14.2935017  19.1749987  79.6125006  21.3695017
  20.1319987  79.6125006  21.3695017  18.9349987  80.5395006  21.3695017
  20.4579987  80.3245006  16.7505017  21.4149987  80.3245006  16.7505017
  20.2179987  81.2515006  16.7505017  30.6149987  83.9425006  26.7625017
  31.5719987  83.9425006  26.7625017  30.3749987  84.8695006  26.7625017
  22.2389987  81.4645006  20.4565017  23.1959987  81.4645006  20.4565017
  21.9989987  82.3915006  20.4565017  25.9009987  81.4525006  18.0845017
  26.8579987  81.4525006  18.0845017  25.6609987  82.3795006  18.0845017
  24.5839987  82.6565006  15.6875017  25.5409987  82.6565006  15.6875017
  24.3439987  83.5835006  15.6875017  35.0509987  94.7755006  31.1695017
  36.0079987  94.7755006  31.1695017  34.8109987  95.7025006  31.1695017
  22.7049987  87.2525006  30.7275017  23.6619987  87.2525006  30.7275017
  22.4649987  88.1795006  30.7275017  23.7269987  78.7865006  19.9215017
  24.6839987  78.7865006  19.9215017  23.4869987  79.7135006  19.9215017
  27.9389987  87.2135006  17.5955017  28.8959987  87.2135006  17.5955017
  27.6989987  88.1405006  17.5955017  35.0649987  86.3895006  26.4085017
  36.0219987  86.3895006  26.4085017  34.8249987  87.3165006  26.4085017
  31.7729987  80.0305006  15.7745017  32.7299987  80.0305006  15.7745017
  31.5329987  80.9575006  15.7745017  29.4699987  87.4515006  28.8395017
  30.4269987  87.4515006  28.8395017  29.2299987  88.3785006  28.8395017
  32.4949987  81.9185006  17.4305017  33.4519987  81.9185006  17.4305017
  32.2549987  82.8455006  17.4305017  23.0269987  86.5665006  23.4095017
  23.9839987  86.5665006  23.4095017  22.7869987  87.4935006  23.4095017
  30.0339987  88.6805006  16.6065017  30.9909987  88.6805006  16.6065017
  29.7939987  89.6075006  16.6065017  19.9709987  84.9985006  28.8295017
  20.9279987  84.9985006  28.8295017  19.7309987  85.9255006  28.8295017
  27.0659987  84.5215006  30.8865017  28.0229987  84.5215006  30.8865017
  26.8259987  85.4485006  30.8865017  31.7019987  89.8695006  28.7665017
  32.6589987  89.8695006  28.7665017  31.4619987  90.7965006  28.7665017
  37.4109987  82.0895006  17.1485017  38.3679987  82.0895006  17.1485017
  37.1709987  83.0165006  17.1485017  37.3889987  87.9465006  30.0025017
  38.3459987  87.9465006  30.0025017  37.1489987  88.8735006  30.0025017
  35.6769987  90.9125006  17.5935017  36.6339987  90.9125006  17.5935017
  35.4369987  91.8395006  17.5935017  32.8759987  85.7245006  24.7355017
  33.8329987  85.7245006  24.7355017  32.6359987  86.6515006  24.7355017
  25.3959987  90.0495006  20.7915017  26.3529987  90.0495006  20.7915017
  25.1559987  90.9765006  20.7915017  21.1749987  84.8955006  15.3565017
  22.1319987  84.8955006  15.3565017  20.9349987  85.8225006  15.3565017
  26.8139987  87.7105006  20.2885017  27.7709987  87.7105006  20.2885017
  26.5739987  88.6375006  20.2885017  27.2739987  91.9315006  26.7575017
  28.2309987  91.9315006  26.7575017  27.0339987  92.8585006  26.7575017
  25.5009987  92.7295006  19.8475017  26.4579987  92.7295006  19.8475017
  25.2609987  93.6565006  19.8475017  30.4779987  88.0095006  26.2305017
  31.4349987  88.0095006  26.2305017  30.2379987  88.9365006  26.2305017
  33.1279987  88.9555006  15.4205017  34.0849987  88.9555006  15.4205017
  32.8879987  89.8825006  15.4205017  33.5729987  92.4835006  28.8365017
  34.5299987  92.4835006  28.8365017  33.3329987  93.4105006  28.8365017
  37.6029987  93.3335006  15.6675017  38.5599987  93.3335006  15.6675017
  37.3629987  94.2605006  15.6675017  33.9259987  87.5955006  17.6535017
  34.8829987  87.5955006  17.6535017  33.6859987  88.5225006  17.6535017
  21.2989987  91.5405006  26.6505017  22.2559987  91.5405006  26.6505017
  21.0589987  92.4675006  26.6505017  27.2449987  90.0405006  13.9045017
  28.2019987  90.0405006  13.9045017  27.0049987  90.9675006  13.9045017
  26.0629987  89.5705006  16.3605017  27.0199987  89.5705006  16.3605017
  25.8229987  90.4975006  16.3605017  22.5789987  86.8195006  16.8515017
  23.5359987  86.8195006  16.8515017  22.3389987  87.7465006  16.8515017
  31.1859987  79.0675006  18.2395017  32.1429987  79.0675006  18.2395017
  30.9459987  79.9945006  18.2395017  28.8289987  91.2195006  17.0345017
  29.7859987  91.2195006  17.0345017  28.5889987  92.1465006  17.0345017
  26.2299987  92.2805006  17.0905017  27.1869987  92.2805006  17.0905017
  25.9899987  93.2075006  17.0905017  24.9019987  79.0115006  16.6705017
  25.8589987  79.0115006  16.6705017  24.6619987  79.9385006  16.6705017
  33.6819987  83.5445006  23.2215017  34.6389987  83.5445006  23.2215017
  33.4419987  84.4715006  23.2215017  23.1419987  89.4365006  15.7325017
  24.0989987  89.4365006  15.7325017  22.9019987  90.3635006  15.7325017
  21.4839987  82.1065006  14.8625017  22.4409987  82.1065006  14.8625017
  21.2439987  83.0335006  14.8625017  34.7949987  92.7555006  24.8005017
  35.7519987  92.7555006  24.8005017  34.5549987  93.6825006  24.8005017
  22.3249987  76.8355006  23.5435017  23.2819987  76.8355006  23.5435017
  22.0849987  77.7625006  23.5435017  21.2509987  90.8145006  19.7345017
  22.2079987  90.8145006  19.7345017  21.0109987  91.7415006  19.7345017
  20.4189987  93.4565006  31.0735017  21.3759987  93.4565006  31.0735017
  20.1789987  94.3835006  31.0735017  25.1509987  92.4055006  32.6335017
  26.1079987  92.4055006  32.6335017  24.9109987  93.3325006  32.6335017
  29.2469987  91.8975006  14.0155017  30.2039987  91.8975006  14.0155017
  29.0069987  92.8245006  14.0155017  31.6529987  90.7565006  31.3605017
  32.6099987  90.7565006  31.3605017  31.4129987  91.6835006  31.3605017
  33.8179987  91.6555006  14.2195017  34.7749987  91.6555006  14.2195017
  33.5779987  92.5825006  14.2195017  20.3979987  87.2625006  32.0105017
  21.3549987  87.2625006  32.0105017  20.1579987  88.1895006  32.0105017
  24.7179987  87.5875006  14.0685017  25.6749987  87.5875006  14.0685017
  24.4779987  88.5145006  14.0685017  27.0849987  87.2325006  31.4215017
  28.0419987  87.2325006  31.4215017  26.8449987  88.1595006  31.4215017
  30.1329987  88.6875006  13.8165017  31.0899987  88.6875006  13.8165017
  29.8929987  89.6145006  13.8165017  32.8509987  87.1975006  29.2195017
  33.8079987  87.1975006  29.2195017  32.6109987  88.1245006  29.2195017
  21.2789987  84.4505006  31.3845017  22.2359987  84.4505006  31.3845017
  21.0389987  85.3775006  31.3845017  25.9359987  85.5835006  16.4655017
  26.8929987  85.5835006  16.4655017  25.6959987  86.5105006  16.4655017
  25.1829987  83.4505006  28.8005017  26.1399987  83.4505006  28.8005017
  24.9429987  84.3775006  28.8005017  26.9919987  83.7965006  14.6875017
  27.9489987  83.7965006  14.6875017  26.7519987  84.7235006  14.6875017
  30.2539987  85.9485006  32.0555017  31.2109987  85.9485006  32.0555017
  30.0139987  86.8755006  32.0555017  36.3519987  86.1365006  14.0985017
  37.3089987  86.1365006  14.0985017  36.1119987  87.0635006  14.0985017
  27.5789987  84.6625006  27.6375017  28.5359987  84.6625006  27.6375017
  27.3389987  85.5895006  27.6375017  33.2699987  85.1725006  30.7425017
  34.2269987  85.1725006  30.7425017  33.0299987  86.0995006  30.7425017
  24.0559987  82.0075006  31.7595017  25.0129987  82.0075006  31.7595017
  23.8159987  82.9345006  31.7595017  22.1589987  79.9535006  31.4685017
  23.1159987  79.9535006  31.4685017  21.9189987  80.8805006  31.4685017
  26.8349987  94.5185006  15.7265017  27.7919987  94.5185006  15.7265017
  26.5949987  95.4455006  15.7265017  20.3989987  89.1165006  15.2095017
  21.3559987  89.1165006  15.2095017  20.1589987  90.0435006  15.2095017
  19.1539987  94.4945006  20.2065017  20.1109987  94.4945006  20.2065017
  18.9139987  95.4215006  20.2065017  19.9839987  92.6175006  22.0545017
  20.9409987  92.6175006  22.0545017  19.7439987  93.5445006  22.0545017
  37.4149987  93.4925006  24.9425017  38.3719987  93.4925006  24.9425017
  37.1749987  94.4195006  24.9425017  36.7369987  92.9625006  28.1695017
  37.6939987  92.9625006  28.1695017  36.4969987  93.8895006  28.1695017
  35.5379987  88.7595006  32.5895017  36.4949987  88.7595006  32.5895017
  35.2979987  89.6865006  32.5895017  36.8439987  87.0575006  18.0685017
  37.8009987  87.0575006  18.0685017  36.6039987  87.9845006  18.0685017
  37.1859987  85.1305006  19.9325017  38.1429987  85.1305006  19.9325017
  36.9459987  86.0575006  19.9325017  36.9909987  87.8505006  24.9225017
  37.9479987  87.8505006  24.9225017  36.7509987  88.7775006  24.9225017
  35.4999987  90.7085006  27.1975017  36.4569987  90.7085006  27.1975017
  35.2599987  91.6355006  27.1975017  37.5229987  84.9695006  16.3165017
  38.4799987  84.9695006  16.3165017  37.2829987  85.8965006  16.3165017
  35.8709987  82.1975006  14.8465017  36.8279987  82.1975006  14.8465017
  35.6309987  83.1245006  14.8465017  20.0899987  85.8625006  24.3105017
  21.0469987  85.8625006  24.3105017  19.8499987  86.7895006  24.3105017
  35.8739987  85.5685006  30.1725017  36.8309987  85.5685006  30.1725017
  35.6339987  86.4955006  30.1725017  37.3969987  83.4425006  30.7585017
  38.3539987  83.4425006  30.7585017  37.1569987  84.3695006  30.7585017
  35.1359987  79.6325006  13.9525017  36.0929987  79.6325006  13.9525017
  34.8959987  80.5595006  13.9525017  34.6989987  81.2065006  18.9065017
  35.6559987  81.2065006  18.9065017  34.4589987  82.1335006  18.9065017
  19.6629987  81.0075006  30.6925017  20.6199987  81.0075006  30.6925017
  19.4229987  81.9345006  30.6925017  20.8519987  79.2785006  23.5335017
  21.8089987  79.2785006  23.5335017  20.6119987  80.2055006  23.5335017
  19.1449987  82.2905006  24.5935017  20.1019987  82.2905006  24.5935017
  18.9049987  83.2175006  24.5935017  37.1749987  78.5125006  15.5105017
  38.1319987  78.5125006  15.5105017  36.9349987  79.4395006  15.5105017
  19.5099987  78.5435006  18.6765017  20.4669987  78.5435006  18.6765017
  19.2699987  79.4705006  18.6765017  34.2579987  93.5215006  20.6095017
  35.2149987  93.5215006  20.6095017  34.0179987  94.4485006  20.6095017
  19.4189987  77.1715006  26.9385017  20.3759987  77.1715006  26.9385017
  19.1789987  78.0985006  26.9385017  21.6779987  90.4325006  31.1415017
  22.6349987  90.4325006  31.1415017  21.4379987  91.3595006  31.1415017
  24.5919987  91.4055006  27.4265017  25.5489987  91.4055006  27.4265017
  24.3519987  92.3325006  27.4265017  28.9509987  92.6565006  30.4265017
  29.9079987  92.6565006  30.4265017  28.7109987  93.5835006  30.4265017
  31.1799987  94.1005006  29.6185017  32.1369987  94.1005006  29.6185017
  30.9399987  95.0275006  29.6185017  22.0179987  94.6515006  27.4125017
  22.9749987  94.6515006  27.4125017  21.7779987  95.5785006  27.4125017
  24.5049987  94.2495006  26.4985017  25.4619987  94.2495006  26.4985017
  24.2649987  95.1765006  26.4985017  29.1409987  94.1375006  25.7115017
  30.0979987  94.1375006  25.7115017  28.9009987  95.0645006  25.7115017
  31.4629987  92.9825006  26.7155017  32.4199987  92.9825006  26.7155017
  31.2229987  93.9095006  26.7155017  34.0199987  94.5435006  26.9005017
  34.9769987  94.5435006  26.9005017  33.7799987  95.4705006  26.9005017
  21.4539987  93.2975006  24.3485017  22.4109987  93.2975006  24.3485017
  21.2139987  94.2245006  24.3485017  23.5469987  92.0095006  23.0015017
  24.5039987  92.0095006  23.0015017  23.3069987  92.9365006  23.0015017
  26.1129987  92.4815006  23.8695017  27.0699987  92.4815006  23.8695017
  25.8729987  93.4085006  23.8695017  21.9399987  76.7545006  20.8605017
  22.8969987  76.7545006  20.8605017  21.6999987  77.6815006  20.8605017
  20.7529987  76.5355006  16.5895017  21.7099987  76.5355006  16.5895017
  20.5129987  77.4625006  16.5895017  33.4419987  76.7275006  17.9295017
  34.3989987  76.7275006  17.9295017  33.2019987  77.6545006  17.9295017
  20.6719987  92.4785006  17.5875017  21.6289987  92.4785006  17.5875017
  20.4319987  93.4055006  17.5875017  22.5949987  78.4795006  15.0885017
  23.5519987  78.4795006  15.0885017  22.3549987  79.4065006  15.0885017
  29.5279987  93.7665006  15.9425017  30.4849987  93.7665006  15.9425017
  29.2879987  94.6935006  15.9425017  36.2489987  93.2865006  18.6525017
  37.2059987  93.2865006  18.6525017  36.0089987  94.2135006  18.6525017
  22.4669987  93.4505006  14.5515017  23.4239987  93.4505006  14.5515017
  22.2269987  94.3775006  14.5515017  35.4499987  92.0145006  30.7915017
  36.4069987  92.0145006  30.7915017  35.2099987  92.9415006  30.7915017
  49.9149987  85.9095006  20.7405017  50.8719987  85.9095006  20.7405017
  49.6749987  86.8365006  20.7405017  48.8049987  85.1605006  24.2215017
  49.7619987  85.1605006  24.2215017  48.5649987  86.0875006  24.2215017
  52.4809987  88.1105006  22.5055017  53.4379987  88.1105006  22.5055017
  52.2409987  89.0375006  22.5055017  39.4159987  85.1015006  21.8735017
  40.3729987  85.1015006  21.8735017  39.1759987  86.0285006  21.8735017
  49.5929987  93.2615006  22.7375017  50.5499987  93.2615006  22.7375017
  49.3529987  94.1885006  22.7375017  47.1939987  87.6395006  24.6235017
  48.1509987  87.6395006  24.6235017  46.9539987  88.5665006  24.6235017
  55.7639987  79.2575006  25.4435017  56.7209987  79.2575006  25.4435017
  55.5239987  80.1845006  25.4435017  50.3259987  82.0295006  24.9865017
  51.2829987  82.0295006  24.9865017  50.0859987  82.9565006  24.9865017
  51.1709987  80.2335006  20.6055017  52.1279987  80.2335006  20.6055017
  50.9309987  81.1605006  20.6055017  45.2959987  84.0705006  22.1675017
  46.2529987  84.0705006  22.1675017  45.0559987  84.9975006  22.1675017
  49.6479987  88.5075006  19.8145017  50.6049987  88.5075006  19.8145017
  49.4079987  89.4345006  19.8145017  52.9399987  79.5625006  22.6085017
  53.8969987  79.5625006  22.6085017  52.6999987  80.4895006  22.6085017
  43.3099987  88.6805006  27.3575017  44.2669987  88.6805006  27.3575017
  43.0699987  89.6075006  27.3575017  39.3849987  88.2845006  18.1265017
  40.3419987  88.2845006  18.1265017  39.1449987  89.2115006  18.1265017
  52.9979987  89.9415006  24.8565017  53.9549987  89.9415006  24.8565017
  52.7579987  90.8685006  24.8565017  51.2589987  91.7315006  21.4745017
  52.2159987  91.7315006  21.4745017  51.0189987  92.6585006  21.4745017
  52.4529987  89.6615006  19.9775017  53.4099987  89.6615006  19.9775017
  52.2129987  90.5885006  19.9775017  54.0359987  88.2645006  28.3755017
  54.9929987  88.2645006  28.3755017  53.7959987  89.1915006  28.3755017
  48.5869987  85.1485006  18.2505017  49.5439987  85.1485006  18.2505017
  48.3469987  86.0755006  18.2505017  48.6429987  83.6775006  15.2605017
  49.5999987  83.6775006  15.2605017  48.4029987  84.6045006  15.2605017
  52.0229987  85.3735006  19.1585017  52.9799987  85.3735006  19.1585017
  51.7829987  86.3005006  19.1585017  43.6379987  86.0465006  21.0565017
  44.5949987  86.0465006  21.0565017  43.3979987  86.9735006  21.0565017
  45.0059987  89.4695006  23.7255017  45.9629987  89.4695006  23.7255017
  44.7659987  90.3965006  23.7255017  50.3619987  90.3325006  25.4345017
  51.3189987  90.3325006  25.4345017  50.1219987  91.2595006  25.4345017
  44.9349987  89.2035006  29.4545017  45.8919987  89.2035006  29.4545017
  44.6949987  90.1305006  29.4545017  50.8869987  84.5495006  16.8395017
  51.8439987  84.5495006  16.8395017  50.6469987  85.4765006  16.8395017
  48.6109987  91.2745006  20.3005017  49.5679987  91.2745006  20.3005017
  48.3709987  92.2015006  20.3005017  43.1689987  91.2445006  30.2035017
  44.1259987  91.2445006  30.2035017  42.9289987  92.1715006  30.2035017
  42.6189987  85.0775006  18.6785017  43.5759987  85.0775006  18.6785017
  42.3789987  86.0045006  18.6785017  55.7389987  90.6385006  15.0755017
  56.6959987  90.6385006  15.0755017  55.4989987  91.5655006  15.0755017
  38.6969987  87.4665006  27.5585017  39.6539987  87.4665006  27.5585017
  38.4569987  88.3935006  27.5585017  38.4659987  90.2355006  24.3555017
  39.4229987  90.2355006  24.3555017  38.2259987  91.1625006  24.3555017
  56.6959987  90.9045006  30.0555017  57.6529987  90.9045006  30.0555017
  56.4559987  91.8315006  30.0555017  47.6479987  90.4425006  28.9175017
  48.6049987  90.4425006  28.9175017  47.4079987  91.3695006  28.9175017
  48.0919987  94.1965006  18.7185017  49.0489987  94.1965006  18.7185017
  47.8519987  95.1235006  18.7185017  41.7329987  93.0605006  20.5275017
  42.6899987  93.0605006  20.5275017  41.4929987  93.9875006  20.5275017
  51.1569987  93.4015006  15.7015017  52.1139987  93.4015006  15.7015017
  50.9169987  94.3285006  15.7015017  50.8459987  93.3285006  18.4655017
  51.8029987  93.3285006  18.4655017  50.6059987  94.2555006  18.4655017
  40.9649987  88.8115006  28.5395017  41.9219987  88.8115006  28.5395017
  40.7249987  89.7385006  28.5395017  52.3409987  85.5875006  14.5905017
  53.2979987  85.5875006  14.5905017  52.1009987  86.5145006  14.5905017
  47.9459987  79.4935006  15.1515017  48.9029987  79.4935006  15.1515017
  47.7059987  80.4205006  15.1515017  43.6929987  82.4335006  20.5425017
  44.6499987  82.4335006  20.5425017  43.4529987  83.3605006  20.5425017
  49.2299987  82.8385006  19.3745017  50.1869987  82.8385006  19.3745017
  48.9899987  83.7655006  19.3745017  50.2449987  82.3065006  22.2135017
  51.2019987  82.3065006  22.2135017  50.0049987  83.2335006  22.2135017
  44.7889987  79.8715006  14.2485017  45.7459987  79.8715006  14.2485017
  44.5489987  80.7985006  14.2485017  49.4299987  83.9315006  26.7755017
  50.3869987  83.9315006  26.7755017  49.1899987  84.8585006  26.7755017
  46.3049987  79.9045006  21.5855017  47.2619987  79.9045006  21.5855017
  46.0649987  80.8315006  21.5855017  44.7399987  81.5095006  18.1015017
  45.6969987  81.5095006  18.1015017  44.4999987  82.4365006  18.1015017
  50.6829987  79.1525006  24.8795017  51.6399987  79.1525006  24.8795017
  50.4429987  80.0795006  24.8795017  43.4359987  82.6875006  15.6805017
  44.3929987  82.6875006  15.6805017  43.1959987  83.6145006  15.6805017
  53.8779987  94.7985006  31.1775017  54.8349987  94.7985006  31.1775017
  53.6379987  95.7255006  31.1775017  41.5659987  87.2305006  30.7285017
  42.5229987  87.2305006  30.7285017  41.3259987  88.1575006  30.7285017
  47.5509987  82.6275006  23.4735017  48.5079987  82.6275006  23.4735017
  47.3109987  83.5545006  23.4735017  46.7889987  87.2165006  17.6025017
  47.7459987  87.2165006  17.6025017  46.5489987  88.1435006  17.6025017
  53.9409987  86.3375006  26.3915017  54.8979987  86.3375006  26.3915017
  53.7009987  87.2645006  26.3915017  50.6209987  80.0275006  15.7895017
  51.5779987  80.0275006  15.7895017  50.3809987  80.9545006  15.7895017
  48.2929987  87.4545006  28.8385017  49.2499987  87.4545006  28.8385017
  48.0529987  88.3815006  28.8385017  51.3629987  81.9425006  17.4305017
  52.3199987  81.9425006  17.4305017  51.1229987  82.8695006  17.4305017
  48.8959987  88.6795006  16.6315017  49.8529987  88.6795006  16.6315017
  48.6559987  89.6065006  16.6315017  38.8479987  85.0345006  28.7025017
  39.8049987  85.0345006  28.7025017  38.6079987  85.9615006  28.7025017
  50.5519987  89.9195006  28.7795017  51.5089987  89.9195006  28.7795017
  50.3119987  90.8465006  28.7795017  54.5289987  90.9105006  17.5935017
  55.4859987  90.9105006  17.5935017  54.2889987  91.8375006  17.5935017
  51.7409987  85.7205006  24.6835017  52.6979987  85.7205006  24.6835017
  51.5009987  86.6475006  24.6835017  44.2679987  90.0585006  20.7875017
  45.2249987  90.0585006  20.7875017  44.0279987  90.9855006  20.7875017
  40.0349987  84.9175006  15.3275017  40.9919987  84.9175006  15.3275017
  39.7949987  85.8445006  15.3275017  45.6899987  87.7215006  20.2965017
  46.6469987  87.7215006  20.2965017  45.4499987  88.6485006  20.2965017
  46.1439987  91.8905006  26.6875017  47.1009987  91.8905006  26.6875017
  45.9039987  92.8175006  26.6875017  44.3699987  92.7245006  19.8375017
  45.3269987  92.7245006  19.8375017  44.1299987  93.6515006  19.8375017
  49.7009987  87.9195006  26.3205017  50.6579987  87.9195006  26.3205017
  49.4609987  88.8465006  26.3205017  51.9799987  88.9615006  15.4255017
  52.9369987  88.9615006  15.4255017  51.7399987  89.8885006  15.4255017
  52.4449987  92.5005006  28.8425017  53.4019987  92.5005006  28.8425017
  52.2049987  93.4275006  28.8425017  56.4549987  93.3335006  15.6575017
  57.4119987  93.3335006  15.6575017  56.2149987  94.2605006  15.6575017
  52.7759987  87.6075006  17.6635017  53.7329987  87.6075006  17.6635017
  52.5359987  88.5345006  17.6635017  40.7989987  90.7915006  26.4485017
  41.7559987  90.7915006  26.4485017  40.5589987  91.7185006  26.4485017
  46.1029987  90.0415006  13.9055017  47.0599987  90.0415006  13.9055017
  45.8629987  90.9685006  13.9055017  44.9229987  89.5725006  16.3605017
  45.8799987  89.5725006  16.3605017  44.6829987  90.4995006  16.3605017
  41.4329987  86.8125006  16.8545017  42.3899987  86.8125006  16.8545017
  41.1929987  87.7395006  16.8545017  50.0239987  79.0895006  18.2565017
  50.9809987  79.0895006  18.2565017  49.7839987  80.0165006  18.2565017
  47.7089987  91.2435006  17.0795017  48.6659987  91.2435006  17.0795017
  47.4689987  92.1705006  17.0795017  47.2639987  80.8535006  19.0555017
  48.2209987  80.8535006  19.0555017  47.0239987  81.7805006  19.0555017
  48.1449987  77.8845006  19.9865017  49.1019987  77.8845006  19.9865017
  47.9049987  78.8115006  19.9865017  45.0899987  92.2795006  17.0905017
  46.0469987  92.2795006  17.0905017  44.8499987  93.2065006  17.0905017
  52.5859987  83.5155006  23.1415017  53.5429987  83.5155006  23.1415017
  52.3459987  84.4425006  23.1415017  41.9979987  89.4355006  15.7325017
  42.9549987  89.4355006  15.7325017  41.7579987  90.3625006  15.7325017
  40.3599987  82.1195006  14.7985017  41.3169987  82.1195006  14.7985017
  40.1199987  83.0465006  14.7985017  53.6679987  92.7575006  24.8105017
  54.6249987  92.7575006  24.8105017  53.4279987  93.6845006  24.8105017
  40.1069987  90.8145006  19.7405017  41.0639987  90.8145006  19.7405017
  39.8669987  91.7415006  19.7405017  39.3129987  93.4755006  31.0615017
  40.2699987  93.4755006  31.0615017  39.0729987  94.4025006  31.0615017
  43.9779987  92.3755006  32.6555017  44.9349987  92.3755006  32.6555017
  43.7379987  93.3025006  32.6555017  48.1089987  91.8965006  14.0395017
  49.0659987  91.8965006  14.0395017  47.8689987  92.8235006  14.0395017
  50.4749987  90.7855006  31.4105017  51.4319987  90.7855006  31.4105017
  50.2349987  91.7125006  31.4105017  52.6799987  91.6545006  14.2375017
  53.6369987  91.6545006  14.2375017  52.4399987  92.5815006  14.2375017
  39.2669987  87.2645006  31.9995017  40.2239987  87.2645006  31.9995017
  39.0269987  88.1915006  31.9995017  43.5769987  87.5885006  14.0745017
  44.5339987  87.5885006  14.0745017  43.3369987  88.5155006  14.0745017
  48.9949987  88.6815006  13.8315017  49.9519987  88.6815006  13.8315017
  48.7549987  89.6085006  13.8315017  51.6539987  87.0935006  28.7165017
  52.6109987  87.0935006  28.7165017  51.4139987  88.0205006  28.7165017
  44.7799987  85.6035006  16.4445017  45.7369987  85.6035006  16.4445017
  44.5399987  86.5305006  16.4445017  45.8429987  83.8185006  14.6795017
  46.7999987  83.8185006  14.6795017  45.6029987  84.7455006  14.6795017
  55.2049987  86.1435006  14.1125017  56.1619987  86.1435006  14.1125017
  54.9649987  87.0705006  14.1125017  46.4139987  84.6365006  27.5935017
  47.3709987  84.6365006  27.5935017  46.1739987  85.5635006  27.5935017
  52.0379987  85.1215006  30.6785017  52.9949987  85.1215006  30.6785017
  51.7979987  86.0485006  30.6785017  45.6929987  94.5145006  15.7405017
  46.6499987  94.5145006  15.7405017  45.4529987  95.4415006  15.7405017
  39.2549987  89.1175006  15.2095017  40.2119987  89.1175006  15.2095017
  39.0149987  90.0445006  15.2095017  38.0109987  94.5025006  20.1955017
  38.9679987  94.5025006  20.1955017  37.7709987  95.4295006  20.1955017
  38.8349987  92.6165006  22.0445017  39.7919987  92.6165006  22.0445017
  38.5949987  93.5435006  22.0445017  56.3759987  93.4195006  25.0145017
  57.3329987  93.4195006  25.0145017  56.1359987  94.3465006  25.0145017
  55.9819987  92.9965006  27.9325017  56.9389987  92.9965006  27.9325017
  55.7419987  93.9235006  27.9325017  55.6919987  87.0615006  18.0705017
  56.6489987  87.0615006  18.0705017  55.4519987  87.9885006  18.0705017
  56.0659987  85.1545006  19.9355017  57.0229987  85.1545006  19.9355017
  55.8259987  86.0815006  19.9355017  54.3939987  90.7445006  27.1995017
  55.3509987  90.7445006  27.1995017  54.1539987  91.6715006  27.1995017
  56.4049987  85.0095006  16.3285017  57.3619987  85.0095006  16.3285017
  56.1649987  85.9365006  16.3285017  54.6529987  82.2605006  14.8395017
  55.6099987  82.2605006  14.8395017  54.4129987  83.1875006  14.8395017
  53.8589987  83.6215006  20.4905017  54.8159987  83.6215006  20.4905017
  53.6189987  84.5485006  20.4905017  53.9739987  79.6525006  13.9675017
  54.9309987  79.6525006  13.9675017  53.7339987  80.5795006  13.9675017
  53.5479987  81.1965006  18.9635017  54.5049987  81.1965006  18.9635017
  53.3079987  82.1235006  18.9635017  54.1499987  78.4935006  19.0435017
  55.1069987  78.4935006  19.0435017  53.9099987  79.4205006  19.0435017
  53.1019987  93.4995006  20.6205017  54.0589987  93.4995006  20.6205017
  52.8619987  94.4265006  20.6205017  40.5349987  90.3725006  31.1455017
  41.4919987  90.3725006  31.1455017  40.2949987  91.2995006  31.1455017
  43.4759987  91.4225006  27.4345017  44.4329987  91.4225006  27.4345017
  43.2359987  92.3495006  27.4345017  47.7659987  92.8475006  30.3415017
  48.7229987  92.8475006  30.3415017  47.5259987  93.7745006  30.3415017
  50.0689987  94.0945006  29.6215017  51.0259987  94.0945006  29.6215017
  49.8289987  95.0215006  29.6215017  41.0619987  95.0935006  27.6105017
  42.0189987  95.0935006  27.6105017  40.8219987  96.0205006  27.6105017
  43.3519987  94.2195006  26.4735017  44.3089987  94.2195006  26.4735017
  43.1119987  95.1465006  26.4735017  48.0479987  94.1395006  25.6515017
  49.0049987  94.1395006  25.6515017  47.8079987  95.0665006  25.6515017
  50.3539987  92.9715006  26.6485017  51.3109987  92.9715006  26.6485017
  50.1139987  93.8985006  26.6485017  52.9359987  94.5345006  26.9025017
  53.8929987  94.5345006  26.9025017  52.6959987  95.4615006  26.9025017
  40.3179987  93.2905006  24.2745017  41.2749987  93.2905006  24.2745017
  40.0779987  94.2175006  24.2745017  42.4199987  91.9935006  22.9835017
  43.3769987  91.9935006  22.9835017  42.1799987  92.9205006  22.9835017
  44.9879987  92.4935006  23.8675017  45.9449987  92.4935006  23.8675017
  44.7479987  93.4205006  23.8675017  48.5039987  78.1335006  23.0675017
  49.4609987  78.1335006  23.0675017  48.2639987  79.0605006  23.0675017
  53.6069987  76.2085006  23.1465017  54.5639987  76.2085006  23.1465017
  53.3669987  77.1355006  23.1465017  55.2569987  77.4415006  21.4415017
  56.2139987  77.4415006  21.4415017  55.0169987  78.3685006  21.4415017
  39.5659987  76.5475006  16.5295017  40.5229987  76.5475006  16.5295017
  39.3259987  77.4745006  16.5295017  50.9769987  76.7215006  22.3045017
  51.9339987  76.7215006  22.3045017  50.7369987  77.6485006  22.3045017
  52.2789987  76.7375006  18.0125017  53.2359987  76.7375006  18.0125017
  52.0389987  77.6645006  18.0125017  39.5249987  92.4785006  17.5845017
  40.4819987  92.4785006  17.5845017  39.2849987  93.4055006  17.5845017
  41.4599987  78.4775006  15.0915017  42.4169987  78.4775006  15.0915017
  41.2199987  79.4045006  15.0915017  46.5139987  78.7135006  17.5005017
  47.4709987  78.7135006  17.5005017  46.2739987  79.6405006  17.5005017
  48.3889987  93.7615006  15.9505017  49.3459987  93.7615006  15.9505017
  48.1489987  94.6885006  15.9505017  55.1139987  93.2865006  18.6555017
  56.0709987  93.2865006  18.6555017  54.8739987  94.2135006  18.6555017
  41.3229987  93.4505006  14.5515017  42.2799987  93.4505006  14.5515017
  41.0829987  94.3775006  14.5515017  54.3499987  92.0655006  30.7315017
  55.3069987  92.0655006  30.7315017  54.1099987  92.9925006  30.7315017
  71.3949987  88.1035006  22.5225017  72.3519987  88.1035006  22.5225017
  71.1549987  89.0305006  22.5225017  57.5149987  82.8515006  19.7925017
  58.4719987  82.8515006  19.7925017  57.2749987  83.7785006  19.7925017
  68.3719987  92.6125006  22.8845017  69.3289987  92.6125006  22.8845017
  68.1319987  93.5395006  22.8845017  68.6039987  88.5695006  19.8045017
  69.5609987  88.5695006  19.8045017  68.3639987  89.4965006  19.8045017
  58.2489987  88.3025006  18.1385017  59.2059987  88.3025006  18.1385017
  58.0089987  89.2295006  18.1385017  71.8829987  89.9465006  24.8665017
  72.8399987  89.9465006  24.8665017  71.6429987  90.8735006  24.8665017
  70.2039987  91.6945006  21.4555017  71.1609987  91.6945006  21.4555017
  69.9639987  92.6215006  21.4555017  71.3529987  89.6625006  19.9845017
  72.3099987  89.6625006  19.9845017  71.1129987  90.5895006  19.9845017
  72.9459987  88.2345006  28.4475017  73.9029987  88.2345006  28.4475017
  72.7059987  89.1615006  28.4475017  67.5519987  83.7565006  15.2595017
  68.5089987  83.7565006  15.2595017  67.3119987  84.6835006  15.2595017
  69.2599987  90.3305006  25.4575017  70.2169987  90.3305006  25.4575017
  69.0199987  91.2575006  25.4575017  67.4459987  91.2385006  20.2975017
  68.4029987  91.2385006  20.2975017  67.2059987  92.1655006  20.2975017
  61.9929987  91.2855006  30.2205017  62.9499987  91.2855006  30.2205017
  61.7529987  92.2125006  30.2205017  74.6009987  90.6305006  15.1115017
  75.5579987  90.6305006  15.1115017  74.3609987  91.5575006  15.1115017
  57.2329987  90.3375006  24.1895017  58.1899987  90.3375006  24.1895017
  56.9929987  91.2645006  24.1895017  75.5629987  90.8905006  30.0495017
  76.5199987  90.8905006  30.0495017  75.3229987  91.8175006  30.0495017
  66.5489987  90.4745006  28.9115017  67.5059987  90.4745006  28.9115017
  66.3089987  91.4015006  28.9115017  66.9259987  94.1895006  18.6855017
  67.8829987  94.1895006  18.6855017  66.6859987  95.1165006  18.6855017
  70.0039987  93.4165006  15.7055017  70.9609987  93.4165006  15.7055017
  69.7639987  94.3435006  15.7055017  69.7069987  93.3135006  18.4395017
  70.6639987  93.3135006  18.4395017  69.4669987  94.2405006  18.4395017
  71.0779987  85.2585006  14.5195017  72.0349987  85.2585006  14.5195017
  70.8379987  86.1855006  14.5195017  56.8679987  79.5505006  21.3965017
  57.8249987  79.5505006  21.3965017  56.6279987  80.4775006  21.3965017
  72.7589987  94.7695006  31.1705017  73.7159987  94.7695006  31.1705017
  72.5189987  95.6965006  31.1705017  67.7569987  88.6795006  16.6505017
  68.7139987  88.6795006  16.6505017  67.5169987  89.6065006  16.6505017
  69.4029987  89.8685006  28.7735017  70.3599987  89.8685006  28.7735017
  69.1629987  90.7955006  28.7735017  75.1679987  82.1145006  17.1415017
  76.1249987  82.1145006  17.1415017  74.9279987  83.0415006  17.1415017
  75.1119987  87.9775006  29.9895017  76.0689987  87.9775006  29.9895017
  74.8719987  88.9045006  29.9895017  73.3769987  90.9165006  17.5905017
  74.3339987  90.9165006  17.5905017  73.1369987  91.8435006  17.5905017
  63.0799987  90.1295006  20.8535017  64.0369987  90.1295006  20.8535017
  62.8399987  91.0565006  20.8535017  58.8909987  84.9395006  15.3075017
  59.8479987  84.9395006  15.3075017  58.6509987  85.8665006  15.3075017
  65.0069987  91.8905006  26.7005017  65.9639987  91.8905006  26.7005017
  64.7669987  92.8175006  26.7005017  68.5699987  87.9375006  26.3525017
  69.5269987  87.9375006  26.3525017  68.3299987  88.8645006  26.3525017
  70.7649987  89.0225006  15.4855017  71.7219987  89.0225006  15.4855017
  70.5249987  89.9495006  15.4855017  71.3089987  92.4895006  28.8305017
  72.2659987  92.4895006  28.8305017  71.0689987  93.4165006  28.8305017
  75.3039987  93.3415006  15.6645017  76.2609987  93.3415006  15.6645017
  75.0639987  94.2685006  15.6645017  71.6739987  87.5575006  17.5845017
  72.6309987  87.5575006  17.5845017  71.4339987  88.4845006  17.5845017
  64.9699987  90.0435006  13.9035017  65.9269987  90.0435006  13.9035017
  64.7299987  90.9705006  13.9035017  63.7939987  89.5725006  16.3555017
  64.7509987  89.5725006  16.3555017  63.5539987  90.4995006  16.3555017
  60.2939987  86.8395006  16.8095017  61.2509987  86.8395006  16.8095017
  60.0539987  87.7665006  16.8095017  66.5609987  91.2355006  17.0825017
  67.5179987  91.2355006  17.0825017  66.3209987  92.1625006  17.0825017
  63.9409987  92.2695006  17.1185017  64.8979987  92.2695006  17.1185017
  63.7009987  93.1965006  17.1185017  60.8559987  89.4415006  15.7305017
  61.8129987  89.4415006  15.7305017  60.6159987  90.3685006  15.7305017
  59.2459987  82.1295006  14.7435017  60.2029987  82.1295006  14.7435017
  59.0059987  83.0565006  14.7435017  72.5079987  92.7665006  24.8055017
  73.4649987  92.7665006  24.8055017  72.2679987  93.6935006  24.8055017
  58.9809987  90.8555006  19.7635017  59.9379987  90.8555006  19.7635017
  58.7409987  91.7825006  19.7635017  58.1879987  93.4605006  31.0285017
  59.1449987  93.4605006  31.0285017  57.9479987  94.3875006  31.0285017
  62.8459987  92.3915006  32.6535017  63.8029987  92.3915006  32.6535017
  62.6059987  93.3185006  32.6535017  66.9689987  91.8885006  14.0535017
  67.9259987  91.8885006  14.0535017  66.7289987  92.8155006  14.0535017
  69.3689987  90.7605006  31.3875017  70.3259987  90.7605006  31.3875017
  69.1289987  91.6875006  31.3875017  71.5269987  91.6445006  14.2295017
  72.4839987  91.6445006  14.2295017  71.2869987  92.5715006  14.2295017
  62.4379987  87.5755006  14.0775017  63.3949987  87.5755006  14.0775017
  62.1979987  88.5025006  14.0775017  64.8259987  87.2655006  31.3435017
  65.7829987  87.2655006  31.3435017  64.5859987  88.1925006  31.3435017
  67.8979987  88.6615006  13.8475017  68.8549987  88.6615006  13.8475017
  67.6579987  89.5885006  13.8475017  70.4909987  87.1165006  28.7525017
  71.4479987  87.1165006  28.7525017  70.2509987  88.0435006  28.7525017
  63.6009987  85.5775006  16.3955017  64.5579987  85.5775006  16.3955017
  63.3609987  86.5045006  16.3955017  74.1449987  86.1275006  14.0715017
  75.1019987  86.1275006  14.0715017  73.9049987  87.0545006  14.0715017
  63.7049987  79.1525006  27.3535017  64.6619987  79.1525006  27.3535017
  63.4649987  80.0795006  27.3535017  70.9749987  85.1965006  30.7105017
  71.9319987  85.1965006  30.7105017  70.7349987  86.1235006  30.7105017
  64.5559987  94.4695006  15.7775017  65.5129987  94.4695006  15.7775017
  64.3159987  95.3965006  15.7775017  58.1079987  89.1255006  15.2035017
  59.0649987  89.1255006  15.2035017  57.8679987  90.0525006  15.2035017
  56.8749987  94.4985006  20.2055017  57.8319987  94.4985006  20.2055017
  56.6349987  95.4255006  20.2055017  57.7559987  92.6075006  22.0635017
  58.7129987  92.6075006  22.0635017  57.5159987  93.5345006  22.0635017
  75.2299987  93.4155006  25.0045017  76.1869987  93.4155006  25.0045017
  74.9899987  94.3425006  25.0045017  74.8189987  92.9935006  27.9425017
  75.7759987  92.9935006  27.9425017  74.5789987  93.9205006  27.9425017
  73.2619987  88.7515006  32.5885017  74.2189987  88.7515006  32.5885017
  73.0219987  89.6785006  32.5885017  74.5559987  87.0545006  18.0565017
  75.5129987  87.0545006  18.0565017  74.3159987  87.9815006  18.0565017
  74.9279987  85.1035006  19.9355017  75.8849987  85.1035006  19.9355017
  74.6879987  86.0305006  19.9355017  74.6829987  87.8405006  24.8445017
  75.6399987  87.8405006  24.8445017  74.4429987  88.7675006  24.8445017
  73.2369987  90.7365006  27.1985017  74.1939987  90.7365006  27.1985017
  72.9969987  91.6635006  27.1985017  75.2049987  84.9745006  16.3245017
  76.1619987  84.9745006  16.3245017  74.9649987  85.9015006  16.3245017
  73.5769987  82.2245006  14.8485017  74.5339987  82.2245006  14.8485017
  73.3369987  83.1515006  14.8485017  73.5669987  85.5825006  30.1885017
  74.5239987  85.5825006  30.1885017  73.3269987  86.5095006  30.1885017
  72.8549987  79.6015006  13.9675017  73.8119987  79.6015006  13.9675017
  72.6149987  80.5285006  13.9675017  71.9579987  93.4995006  20.6105017
  72.9149987  93.4995006  20.6105017  71.7179987  94.4265006  20.6105017
  59.3989987  90.4165006  31.1475017  60.3559987  90.4165006  31.1475017
  59.1589987  91.3435006  31.1475017  62.3339987  91.4435006  27.5145017
  63.2909987  91.4435006  27.5145017  62.0939987  92.3705006  27.5145017
  66.6259987  92.8295006  30.3225017  67.5829987  92.8295006  30.3225017
  66.3859987  93.7565006  30.3225017  68.9349987  94.1325006  29.5935017
  69.8919987  94.1325006  29.5935017  68.6949987  95.0595006  29.5935017
  59.7209987  94.6295006  27.3945017  60.6779987  94.6295006  27.3945017
  59.4809987  95.5565006  27.3945017  62.1869987  94.2085006  26.4305017
  63.1439987  94.2085006  26.4305017  61.9469987  95.1355006  26.4305017
  66.8779987  94.1275006  25.6705017  67.8349987  94.1275006  25.6705017
  66.6379987  95.0545006  25.6705017  69.2149987  92.9745006  26.6695017
  70.1719987  92.9745006  26.6695017  68.9749987  93.9015006  26.6695017
  71.7729987  94.5535006  26.9005017  72.7299987  94.5535006  26.9005017
  71.5329987  95.4805006  26.9005017  59.1539987  93.3695006  24.3905017
  60.1109987  93.3695006  24.3905017  58.9139987  94.2965006  24.3905017
  58.3959987  92.4815006  17.5845017  59.3529987  92.4815006  17.5845017
  58.1559987  93.4085006  17.5845017  67.2409987  93.7535006  15.9595017
  68.1979987  93.7535006  15.9595017  67.0009987  94.6805006  15.9595017
  73.9589987  93.2935006  18.6495017  74.9159987  93.2935006  18.6495017
  73.7189987  94.2205006  18.6495017  60.1719987  93.4495006  14.5405017
  61.1289987  93.4495006  14.5405017  59.9319987  94.3765006  14.5405017
  73.1919987  92.0305006  30.7485017  74.1489987  92.0305006  30.7485017
  72.9519987  92.9575006  30.7485017  87.6239987  85.9045006  20.7405017
  88.5809987  85.9045006  20.7405017  87.3839987  86.8315006  20.7405017
  86.5019987  85.1715006  24.2215017  87.4589987  85.1715006  24.2215017
  86.2619987  86.0985006  24.2215017  90.1949987  88.1115006  22.5025017
  91.1519987  88.1115006  22.5025017  89.9549987  89.0385006  22.5025017
  79.7829987  89.2875006  24.2785017  80.7399987  89.2875006  24.2785017
  79.5429987  90.2145006  24.2785017  77.0719987  85.0345006  21.8345017
  78.0289987  85.0345006  21.8345017  76.8319987  85.9615006  21.8345017
  87.3059987  93.2615006  22.7385017  88.2629987  93.2615006  22.7385017
  87.0659987  94.1885006  22.7385017  84.8849987  87.5965006  24.6535017
  85.8419987  87.5965006  24.6535017  84.6449987  88.5235006  24.6535017
  93.4919987  79.2135006  25.4355017  94.4489987  79.2135006  25.4355017
  93.2519987  80.1405006  25.4355017  88.0489987  82.0365006  24.9905017
  89.0059987  82.0365006  24.9905017  87.8089987  82.9635006  24.9905017
  88.8889987  80.2085006  20.5985017  89.8459987  80.2085006  20.5985017
  88.6489987  81.1355006  20.5985017  77.8169987  82.5095006  22.9435017
  78.7739987  82.5095006  22.9435017  77.5769987  83.4365006  22.9435017
  82.9449987  84.0775006  22.2415017  83.9019987  84.0775006  22.2415017
  82.7049987  85.0045006  22.2415017  93.9259987  80.6455006  27.6955017
  94.8829987  80.6455006  27.6955017  93.6859987  81.5725006  27.6955017
  87.3589987  88.5055006  19.8145017  88.3159987  88.5055006  19.8145017
  87.1189987  89.4325006  19.8145017  82.6199987  86.6895006  26.5265017
  83.5769987  86.6895006  26.5265017  82.3799987  87.6165006  26.5265017
  90.6859987  79.5435006  22.5885017  91.6429987  79.5435006  22.5885017
  90.4459987  80.4705006  22.5885017  81.0209987  88.6615006  27.3515017
  81.9779987  88.6615006  27.3515017  80.7809987  89.5885006  27.3515017
  77.0909987  88.2755006  18.1375017  78.0479987  88.2755006  18.1375017
  76.8509987  89.2025006  18.1375017  90.7179987  89.9465006  24.8715017
  91.6749987  89.9465006  24.8715017  90.4779987  90.8735006  24.8715017
  91.0339987  78.2365006  26.2685017  91.9909987  78.2365006  26.2685017
  90.7939987  79.1635006  26.2685017  84.0039987  76.3425006  23.7295017
  84.9609987  76.3425006  23.7295017  83.7639987  77.2695006  23.7295017
  88.9779987  91.7265006  21.4925017  89.9349987  91.7265006  21.4925017
  88.7379987  92.6535006  21.4925017  90.1709987  89.6595006  19.9815017
  91.1279987  89.6595006  19.9815017  89.9309987  90.5865006  19.9815017
  91.8079987  88.2395006  28.4765017  92.7649987  88.2395006  28.4765017
  91.5679987  89.1665006  28.4765017  86.3029987  85.1515006  18.2455017
  87.2599987  85.1515006  18.2455017  86.0629987  86.0785006  18.2455017
  86.3269987  83.6105006  15.3095017  87.2839987  83.6105006  15.3095017
  86.0869987  84.5375006  15.3095017  93.6829987  84.5535006  26.5295017
  94.6399987  84.5535006  26.5295017  93.4429987  85.4805006  26.5295017
  89.7449987  85.3665006  19.1735017  90.7019987  85.3665006  19.1735017
  89.5049987  86.2935006  19.1735017  89.6589987  83.5215006  28.2755017
  90.6159987  83.5215006  28.2755017  89.4189987  84.4485006  28.2755017
  81.3479987  86.0335006  21.0815017  82.3049987  86.0335006  21.0815017
  81.1079987  86.9605006  21.0815017  82.6909987  89.4295006  23.7535017
  83.6479987  89.4295006  23.7535017  82.4509987  90.3565006  23.7535017
  81.6979987  84.7675006  24.6865017  82.6549987  84.7675006  24.6865017
  81.4579987  85.6945006  24.6865017  88.0769987  90.3245006  25.4355017
  89.0339987  90.3245006  25.4355017  87.8369987  91.2515006  25.4355017
  82.6519987  89.2055006  29.4355017  83.6089987  89.2055006  29.4355017
  82.4119987  90.1325006  29.4355017  88.6149987  84.5295006  16.8525017
  89.5719987  84.5295006  16.8525017  88.3749987  85.4565006  16.8525017
  86.3229987  91.2745006  20.3015017  87.2799987  91.2745006  20.3015017
  86.0829987  92.2015006  20.3015017  80.8669987  91.2335006  30.1955017
  81.8239987  91.2335006  30.1955017  80.6269987  92.1605006  30.1955017
  92.3269987  76.2815006  16.7095017  93.2839987  76.2815006  16.7095017
  92.0869987  77.2085006  16.7095017  80.3329987  85.0725006  18.6865017
  81.2899987  85.0725006  18.6865017  80.0929987  85.9995006  18.6865017
  93.4589987  90.6315006  15.0815017  94.4159987  90.6315006  15.0815017
  93.2189987  91.5585006  15.0815017  76.1789987  90.2175006  24.3655017
  77.1359987  90.2175006  24.3655017  75.9389987  91.1445006  24.3655017
  94.4129987  90.9035006  30.0495017  95.3699987  90.9035006  30.0495017
  94.1729987  91.8305006  30.0495017  85.3739987  90.4495006  28.9125017
  86.3309987  90.4495006  28.9125017  85.1339987  91.3765006  28.9125017
  85.8029987  94.1945006  18.7115017  86.7599987  94.1945006  18.7115017
  85.5629987  95.1215006  18.7115017  79.4459987  93.0615006  20.5245017
  80.4029987  93.0615006  20.5245017  79.2059987  93.9885006  20.5245017
  88.9159987  93.4365006  15.7735017  89.8729987  93.4365006  15.7735017
  88.6759987  94.3635006  15.7735017  88.5619987  93.3365006  18.5005017
  89.5189987  93.3365006  18.5005017  88.3219987  94.2635006  18.5005017
  91.5529987  82.3775006  30.5305017  92.5099987  82.3775006  30.5305017
  91.3129987  83.3045006  30.5305017  78.6559987  88.8395006  28.5385017
  79.6129987  88.8395006  28.5385017  78.4159987  89.7665006  28.5385017
  85.9769987  76.9275006  27.8605017  86.9339987  76.9275006  27.8605017
  85.7369987  77.8545006  27.8605017  89.3079987  80.7515006  28.7435017
  90.2649987  80.7515006  28.7435017  89.0679987  81.6785006  28.7435017
  90.1429987  85.5245006  14.6235017  91.0999987  85.5245006  14.6235017
  89.9029987  86.4515006  14.6235017  85.6579987  79.4935006  15.1555017
  86.6149987  79.4935006  15.1555017  85.4179987  80.4205006  15.1555017
  81.4419987  82.1885006  25.6355017  82.3989987  82.1885006  25.6355017
  81.2019987  83.1155006  25.6355017  81.4159987  82.3955006  20.5615017
  82.3729987  82.3955006  20.5615017  81.1759987  83.3225006  20.5615017
  86.9489987  82.8465006  19.3665017  87.9059987  82.8465006  19.3665017
  86.7089987  83.7735006  19.3665017  86.0069987  83.0485006  30.8225017
  86.9639987  83.0485006  30.8225017  85.7669987  83.9755006  30.8225017
  87.9769987  82.3235006  22.2005017  88.9339987  82.3235006  22.2005017
  87.7369987  83.2505006  22.2005017  82.4979987  79.8805006  14.2475017
  83.4549987  79.8805006  14.2475017  82.2579987  80.8075006  14.2475017
  77.0579987  80.3225006  16.7745017  78.0149987  80.3225006  16.7745017
  76.8179987  81.2495006  16.7745017  87.1949987  83.9325006  26.7885017
  88.1519987  83.9325006  26.7885017  86.9549987  84.8595006  26.7885017
  83.9929987  79.8675006  21.5975017  84.9499987  79.8675006  21.5975017
  83.7529987  80.7945006  21.5975017  82.4579987  81.4985006  18.0905017
  83.4149987  81.4985006  18.0905017  82.2179987  82.4255006  18.0905017
  88.4009987  79.1225006  24.8465017  89.3579987  79.1225006  24.8465017
  88.1609987  80.0495006  24.8465017  81.1429987  82.6635006  15.6925017
  82.0999987  82.6635006  15.6925017  80.9029987  83.5905006  15.6925017
  91.6109987  94.7715006  31.1655017  92.5679987  94.7715006  31.1655017
  91.3709987  95.6985006  31.1655017  79.2269987  87.2755006  30.7475017
  80.1839987  87.2755006  30.7475017  78.9869987  88.2025006  30.7475017
  85.2739987  82.6375006  23.5005017  86.2309987  82.6375006  23.5005017
  85.0339987  83.5645006  23.5005017  83.9519987  81.0005006  25.8805017
  84.9089987  81.0005006  25.8805017  83.7119987  81.9275006  25.8805017
  84.5049987  87.2065006  17.6175017  85.4619987  87.2065006  17.6175017
  84.2649987  88.1335006  17.6175017  91.6669987  86.3905006  26.4075017
  92.6239987  86.3905006  26.4075017  91.4269987  87.3175006  26.4075017
  88.3419987  80.0325006  15.7825017  89.2989987  80.0325006  15.7825017
  88.1019987  80.9595006  15.7825017  85.9949987  87.4525006  28.8455017
  86.9519987  87.4525006  28.8455017  85.7549987  88.3795006  28.8455017
  89.0769987  81.9195006  17.4365017  90.0339987  81.9195006  17.4365017
  88.8369987  82.8465006  17.4365017  79.5879987  86.5555006  23.3795017
  80.5449987  86.5555006  23.3795017  79.3479987  87.4825006  23.3795017
  86.6099987  88.6785006  16.6705017  87.5669987  88.6785006  16.6705017
  86.3699987  89.6055006  16.6705017  83.6019987  84.5085006  30.8825017
  84.5589987  84.5085006  30.8825017  83.3619987  85.4355006  30.8825017
  88.2839987  89.8895006  28.7855017  89.2409987  89.8895006  28.7855017
  88.0439987  90.8165006  28.7855017  93.9789987  82.0805006  17.1795017
  94.9359987  82.0805006  17.1795017  93.7389987  83.0075006  17.1795017
  93.9519987  87.9425006  30.0035017  94.9089987  87.9425006  30.0035017
  93.7119987  88.8695006  30.0035017  92.2509987  90.9065006  17.6005017
  93.2079987  90.9065006  17.6005017  92.0109987  91.8335006  17.6005017
  89.4579987  85.7255006  24.6805017  90.4149987  85.7255006  24.6805017
  89.2179987  86.6525006  24.6805017  81.9819987  90.0495006  20.7855017
  82.9389987  90.0495006  20.7855017  81.7419987  90.9765006  20.7855017
  77.7459987  84.9005006  15.3475017  78.7029987  84.9005006  15.3475017
  77.5059987  85.8275006  15.3475017  83.4049987  87.7145006  20.3145017
  84.3619987  87.7145006  20.3145017  83.1649987  88.6415006  20.3145017
  83.8599987  91.8905006  26.7015017  84.8169987  91.8905006  26.7015017
  83.6199987  92.8175006  26.7015017  82.0789987  92.7155006  19.8485017
  83.0359987  92.7155006  19.8485017  81.8389987  93.6425006  19.8485017
  87.4049987  87.9235006  26.3445017  88.3619987  87.9235006  26.3445017
  87.1649987  88.8505006  26.3445017  89.7079987  88.9605006  15.4405017
  90.6649987  88.9605006  15.4405017  89.4679987  89.8875006  15.4405017
  90.1689987  92.4915006  28.8385017  91.1259987  92.4915006  28.8385017
  89.9289987  93.4185006  28.8385017  94.1879987  93.3275006  15.6815017
  95.1449987  93.3275006  15.6815017  93.9479987  94.2545006  15.6815017
  90.4879987  87.6075006  17.6675017  91.4449987  87.6075006  17.6675017
  90.2479987  88.5345006  17.6675017  77.8739987  91.5265006  26.6525017
  78.8309987  91.5265006  26.6525017  77.6339987  92.4535006  26.6525017
  83.7959987  90.0375006  13.8875017  84.7529987  90.0375006  13.8875017
  83.5559987  90.9645006  13.8875017  82.6249987  89.5835006  16.3705017
  83.5819987  89.5835006  16.3705017  82.3849987  90.5105006  16.3705017
  79.1379987  86.8115006  16.8705017  80.0949987  86.8115006  16.8705017
  78.8979987  87.7385006  16.8705017  86.9889987  79.5005006  27.1595017
  87.9459987  79.5005006  27.1595017  86.7489987  80.4275006  27.1595017
  87.7319987  79.0915006  18.2525017  88.6889987  79.0915006  18.2525017
  87.4919987  80.0185006  18.2525017  85.4169987  91.2445006  17.0905017
  86.3739987  91.2445006  17.0905017  85.1769987  92.1715006  17.0905017
  84.9759987  80.8415006  19.0745017  85.9329987  80.8415006  19.0745017
  84.7359987  81.7685006  19.0745017  85.5119987  81.8525006  28.2545017
  86.4689987  81.8525006  28.2545017  85.2719987  82.7795006  28.2545017
  85.8159987  77.9035006  19.9845017  86.7729987  77.9035006  19.9845017
  85.5759987  78.8305006  19.9845017  82.8029987  92.2805006  17.0905017
  83.7599987  92.2805006  17.0905017  82.5629987  93.2075006  17.0905017
  81.4779987  79.0015006  16.6635017  82.4349987  79.0015006  16.6635017
  81.2379987  79.9285006  16.6635017  91.6999987  79.7325006  29.1125017
  92.6569987  79.7325006  29.1125017  91.4599987  80.6595006  29.1125017
  90.3009987  83.5165006  23.1425017  91.2579987  83.5165006  23.1425017
  90.0609987  84.4435006  23.1425017  79.7089987  89.4475006  15.7205017
  80.6659987  89.4475006  15.7205017  79.4689987  90.3745006  15.7205017
  78.0589987  82.1095006  14.8535017  79.0159987  82.1095006  14.8535017
  77.8189987  83.0365006  14.8535017  91.3669987  92.7635006  24.8045017
  92.3239987  92.7635006  24.8045017  91.1269987  93.6905006  24.8045017
  77.8159987  90.8145006  19.7355017  78.7729987  90.8145006  19.7355017
  77.5759987  91.7415006  19.7355017  77.0379987  93.4665006  31.0355017
  77.9949987  93.4665006  31.0355017  76.7979987  94.3935006  31.0355017
  81.6959987  92.3835006  32.6515017  82.6529987  92.3835006  32.6515017
  81.4559987  93.3105006  32.6515017  85.7129987  91.8745006  14.0555017
  86.6699987  91.8745006  14.0555017  85.4729987  92.8015006  14.0555017
  88.2249987  90.7625006  31.3805017  89.1819987  90.7625006  31.3805017
  87.9849987  91.6895006  31.3805017  90.4629987  91.6505006  14.3235017
  91.4199987  91.6505006  14.3235017  90.2229987  92.5775006  14.3235017
  81.1959987  87.5995006  14.1985017  82.1529987  87.5995006  14.1985017
  80.9559987  88.5265006  14.1985017  83.6479987  87.2265006  31.4105017
  84.6049987  87.2265006  31.4105017  83.4079987  88.1535006  31.4105017
  86.7359987  88.6895006  13.8515017  87.6929987  88.6895006  13.8515017
  86.4959987  89.6165006  13.8515017  89.3589987  87.0965006  28.8045017
  90.3159987  87.0965006  28.8045017  89.1189987  88.0235006  28.8045017
  82.4849987  85.6005006  16.4555017  83.4419987  85.6005006  16.4555017
  82.2449987  86.5275006  16.4555017  83.5509987  83.7875006  14.6925017
  84.5079987  83.7875006  14.6925017  83.3109987  84.7145006  14.6925017
  86.8209987  85.9705006  32.0935017  87.7779987  85.9705006  32.0935017
  86.5809987  86.8975006  32.0935017  92.9459987  86.1515006  14.1035017
  93.9029987  86.1515006  14.1035017  92.7059987  87.0785006  14.1035017
  84.1319987  84.6515006  27.6465017  85.0889987  84.6515006  27.6465017
  83.8919987  85.5785006  27.6465017  88.5049987  82.4215006  32.5995017
  89.4619987  82.4215006  32.5995017  88.2649987  83.3485006  32.5995017
  89.8309987  85.2015006  30.7315017  90.7879987  85.2015006  30.7315017
  89.5909987  86.1285006  30.7315017  84.5799987  80.9385006  31.3655017
  85.5369987  80.9385006  31.3655017  84.3399987  81.8655006  31.3655017
  87.3209987  80.0675006  30.4535017  88.2779987  80.0675006  30.4535017
  87.0809987  80.9945006  30.4535017  88.9379987  78.7085006  32.3965017
  89.8949987  78.7085006  32.3965017  88.6979987  79.6355006  32.3965017
  83.4089987  94.5235006  15.7525017  84.3659987  94.5235006  15.7525017
  83.1689987  95.4505006  15.7525017  76.9559987  89.1095006  15.2095017
  77.9129987  89.1095006  15.2095017  76.7159987  90.0365006  15.2095017
  75.7129987  94.5075006  20.1945017  76.6699987  94.5075006  20.1945017
  75.4729987  95.4345006  20.1945017  76.5509987  92.6185006  22.0525017
  77.5079987  92.6185006  22.0525017  76.3109987  93.5455006  22.0525017
  94.0859987  93.4155006  25.0055017  95.0429987  93.4155006  25.0055017
  93.8459987  94.3425006  25.0055017  93.6619987  93.0125006  27.9475017
  94.6189987  93.0125006  27.9475017  93.4219987  93.9395006  27.9475017
  92.1119987  88.7385006  32.6035017  93.0689987  88.7385006  32.6035017
  91.8719987  89.6655006  32.6035017  93.4139987  87.0555006  18.0585017
  94.3709987  87.0555006  18.0585017  93.1739987  87.9825006  18.0585017
  93.7889987  85.1265006  19.9265017  94.7459987  85.1265006  19.9265017
  93.5489987  86.0535006  19.9265017  93.5439987  87.8425006  24.9095017
  94.5009987  87.8425006  24.9095017  93.3039987  88.7695006  24.9095017
  92.0899987  90.7395006  27.1905017  93.0469987  90.7395006  27.1905017
  91.8499987  91.6665006  27.1905017  94.0899987  84.9605006  16.3255017
  95.0469987  84.9605006  16.3255017  93.8499987  85.8875006  16.3255017
  92.4509987  82.2025006  14.8465017  93.4079987  82.2025006  14.8465017
  92.2109987  83.1295006  14.8465017  91.6009987  83.6115006  20.4915017
  92.5579987  83.6115006  20.4915017  91.3609987  84.5385006  20.4915017
  92.4499987  85.5825006  30.1735017  93.4069987  85.5825006  30.1735017
  92.2099987  86.5095006  30.1735017  93.9609987  83.4725006  30.8345017
  94.9179987  83.4725006  30.8345017  93.7209987  84.3995006  30.8345017
  91.6929987  79.6575006  13.9775017  92.6499987  79.6575006  13.9775017
  91.4529987  80.5845006  13.9775017  91.2629987  81.1955006  18.9315017
  92.2199987  81.1955006  18.9315017  91.0229987  82.1225006  18.9315017
  91.9049987  81.7415006  24.3945017  92.8619987  81.7415006  24.3945017
  91.6649987  82.6685006  24.3945017  91.9749987  82.4675006  27.1835017
  92.9319987  82.4675006  27.1835017  91.7349987  83.3945006  27.1835017
  94.2379987  76.5055006  32.5325017  95.1949987  76.5055006  32.5325017
  93.9979987  77.4325006  32.5325017  91.9349987  78.4775006  19.0025017
  92.8919987  78.4775006  19.0025017  91.6949987  79.4045006  19.0025017
  75.6979987  82.3705006  24.5065017  76.6549987  82.3705006  24.5065017
  75.4579987  83.2975006  24.5065017  93.7679987  78.6135006  30.8835017
  94.7249987  78.6135006  30.8835017  93.5279987  79.5405006  30.8835017
  93.7619987  78.5185006  15.5565017  94.7189987  78.5185006  15.5565017
  93.5219987  79.4455006  15.5565017  90.8119987  93.4985006  20.6205017
  91.7689987  93.4985006  20.6205017  90.5719987  94.4255006  20.6205017
  78.2459987  90.3745006  31.1405017  79.2029987  90.3745006  31.1405017
  78.0059987  91.3015006  31.1405017  81.1629987  91.4105006  27.4105017
  82.1199987  91.4105006  27.4105017  80.9229987  92.3375006  27.4105017
  85.4799987  92.8285006  30.3255017  86.4369987  92.8285006  30.3255017
  85.2399987  93.7555006  30.3255017  87.7789987  94.0975006  29.6155017
  88.7359987  94.0975006  29.6155017  87.5389987  95.0245006  29.6155017
  92.7799987  76.7105006  28.7185017  93.7369987  76.7105006  28.7185017
  92.5399987  77.6375006  28.7185017  78.5859987  94.6525006  27.4195017
  79.5429987  94.6525006  27.4195017  78.3459987  95.5795006  27.4195017
  81.0569987  94.2305006  26.4825017  82.0139987  94.2305006  26.4825017
  80.8169987  95.1575006  26.4825017  85.7599987  94.1395006  25.6495017
  86.7169987  94.1395006  25.6495017  85.5199987  95.0665006  25.6495017
  88.0659987  92.9705006  26.6475017  89.0229987  92.9705006  26.6475017
  87.8259987  93.8975006  26.6475017  90.6489987  94.5395006  26.9065017
  91.6059987  94.5395006  26.9065017  90.4089987  95.4665006  26.9065017
  78.0209987  93.2965006  24.3505017  78.9779987  93.2965006  24.3505017
  77.7809987  94.2235006  24.3505017  80.1169987  92.0095006  23.0015017
  81.0739987  92.0095006  23.0015017  79.8769987  92.9365006  23.0015017
  82.7059987  92.4905006  23.8745017  83.6629987  92.4905006  23.8745017
  82.4659987  93.4175006  23.8745017  86.1619987  78.1475006  23.0135017
  87.1189987  78.1475006  23.0135017  85.9219987  79.0745006  23.0135017
  91.3129987  76.2035006  23.0995017  92.2699987  76.2035006  23.0995017
  91.0729987  77.1305006  23.0995017  92.9939987  77.4205006  21.3845017
  93.9509987  77.4205006  21.3845017  92.7539987  78.3475006  21.3845017
  77.3269987  76.5435006  16.6295017  78.2839987  76.5435006  16.6295017
  77.0869987  77.4705006  16.6295017  83.0519987  76.6725006  20.6555017
  84.0089987  76.6725006  20.6555017  82.8119987  77.5995006  20.6555017
  88.7059987  76.7195006  22.2845017  89.6629987  76.7195006  22.2845017
  88.4659987  77.6465006  22.2845017  90.0039987  76.7485006  17.9665017
  90.9609987  76.7485006  17.9665017  89.7639987  77.6755006  17.9665017
  77.2399987  92.4795006  17.5855017  78.1969987  92.4795006  17.5855017
  76.9999987  93.4065006  17.5855017  79.1749987  78.4775006  15.0645017
  80.1319987  78.4775006  15.0645017  78.9349987  79.4045006  15.0645017
  84.1999987  78.7255006  17.4985017  85.1569987  78.7255006  17.4985017
  83.9599987  79.6525006  17.4985017  86.0989987  93.7645006  15.9605017
  87.0559987  93.7645006  15.9605017  85.8589987  94.6915006  15.9605017
  92.8149987  93.2895006  18.6495017  93.7719987  93.2895006  18.6495017
  92.5749987  94.2165006  18.6495017  79.0409987  93.4535006  14.5485017
  79.9979987  93.4535006  14.5485017  78.8009987  94.3805006  14.5485017
  88.8349987  75.9865006  32.0995017  89.7919987  75.9865006  32.0995017
  88.5949987  76.9135006  32.0995017  92.0479987  92.0245006  30.7505017
  93.0049987  92.0245006  30.7505017  91.8079987  92.9515006  30.7505017
 106.4689987  85.8765006  20.7115017 107.4259987  85.8765006  20.7115017
 106.2289987  86.8035006  20.7115017 105.2809987  85.1875006  24.2335017
 106.2379987  85.1875006  24.2335017 105.0409987  86.1145006  24.2335017
  97.7079987  84.8265006  25.7785017  98.6649987  84.8265006  25.7785017
  97.4679987  85.7535006  25.7785017  98.6419987  89.2855006  24.2875017
  99.5989987  89.2855006  24.2875017  98.4019987  90.2125006  24.2875017
  95.2789987  82.8555006  19.7585017  96.2359987  82.8555006  19.7585017
  95.0389987  83.7825006  19.7585017  95.9749987  85.0705006  21.8935017
  96.9319987  85.0705006  21.8935017  95.7349987  85.9975006  21.8935017
 106.1669987  93.2465006  22.7455017 107.1239987  93.2465006  22.7455017
 105.9269987  94.1735006  22.7455017 103.6989987  87.5645006  24.6585017
 104.6559987  87.5645006  24.6585017 103.4589987  88.4915006  24.6585017
 106.2349987  81.7995006  24.9555017 107.1919987  81.7995006  24.9555017
 105.9949987  82.7265006  24.9555017 100.0169987  80.1185006  22.2265017
 100.9739987  80.1185006  22.2265017  99.7769987  81.0455006  22.2265017
 107.7239987  80.7095006  20.2045017 108.6809987  80.7095006  20.2045017
 107.4839987  81.6365006  20.2045017  96.6389987  82.5265006  22.9655017
  97.5959987  82.5265006  22.9655017  96.3989987  83.4535006  22.9655017
 101.7909987  84.0875006  22.2485017 102.7479987  84.0875006  22.2485017
 101.5509987  85.0145006  22.2485017  98.9029987  79.0175006  26.2705017
  99.8599987  79.0175006  26.2705017  98.6629987  79.9445006  26.2705017
 106.2369987  88.5135006  19.8095017 107.1939987  88.5135006  19.8095017
 105.9969987  89.4405006  19.8095017 101.4369987  86.6725006  26.5215017
 102.3939987  86.6725006  26.5215017 101.1969987  87.5995006  26.5215017
  98.4629987  80.8855006  24.2775017  99.4199987  80.8855006  24.2775017
  98.2229987  81.8125006  24.2775017  99.8729987  88.6575006  27.3325017
 100.8299987  88.6575006  27.3325017  99.6329987  89.5845006  27.3325017
  95.9589987  88.2915006  18.1295017  96.9159987  88.2915006  18.1295017
  95.7189987  89.2185006  18.1295017 102.8789987  76.3485006  23.7365017
 103.8359987  76.3485006  23.7365017 102.6389987  77.2755006  23.7365017
 107.4789987  91.5665006  21.0855017 108.4359987  91.5665006  21.0855017
 107.2389987  92.4935006  21.0855017 105.1289987  85.1425006  18.2295017
 106.0859987  85.1425006  18.2295017 104.8889987  86.0695006  18.2295017
 105.1949987  83.6745006  15.2515017 106.1519987  83.6745006  15.2515017
 104.9549987  84.6015006  15.2515017 100.2089987  86.0215006  21.0755017
 101.1659987  86.0215006  21.0755017  99.9689987  86.9485006  21.0755017
 101.5639987  89.4585006  23.7385017 102.5209987  89.4585006  23.7385017
 101.3239987  90.3855006  23.7385017 100.5469987  84.7625006  24.7275017
 101.5039987  84.7625006  24.7275017 100.3069987  85.6895006  24.7275017
 106.5289987  90.3635006  25.4735017 107.4859987  90.3635006  25.4735017
 106.2889987  91.2905006  25.4735017 101.4849987  89.1855006  29.4285017
 102.4419987  89.1855006  29.4285017 101.2449987  90.1125006  29.4285017
 107.4669987  84.5235006  16.8595017 108.4239987  84.5235006  16.8595017
 107.2269987  85.4505006  16.8595017  98.4209987  85.3525006  28.6075017
  99.3779987  85.3525006  28.6075017  98.1809987  86.2795006  28.6075017
 105.0289987  91.2665006  20.3355017 105.9859987  91.2665006  20.3355017
 104.7889987  92.1935006  20.3355017  99.7269987  91.2365006  30.1865017
 100.6839987  91.2365006  30.1865017  99.4869987  92.1635006  30.1865017
  99.1849987  85.0465006  18.6915017 100.1419987  85.0465006  18.6915017
  98.9449987  85.9735006  18.6915017  95.2739987  87.4635006  27.5585017
  96.2309987  87.4635006  27.5585017  95.0339987  88.3905006  27.5585017
  95.0419987  90.2035006  24.3615017  95.9989987  90.2035006  24.3615017
  94.8019987  91.1305006  24.3615017 104.2409987  90.4475006  28.9335017
 105.1979987  90.4475006  28.9335017 104.0009987  91.3745006  28.9335017
 104.6419987  94.1975006  18.7345017 105.5989987  94.1975006  18.7345017
 104.4019987  95.1245006  18.7345017  98.3179987  93.0535006  20.5235017
  99.2749987  93.0535006  20.5235017  98.0779987  93.9805006  20.5235017
 107.7399987  93.3835006  15.6815017 108.6969987  93.3835006  15.6815017
 107.4999987  94.3105006  15.6815017 107.2509987  93.1645006  18.3255017
 108.2079987  93.1645006  18.3255017 107.0109987  94.0915006  18.3255017
  97.5489987  88.7835006  28.5245017  98.5059987  88.7835006  28.5245017
  97.3089987  89.7105006  28.5245017 100.2189987  77.2435006  24.4905017
 101.1759987  77.2435006  24.4905017  99.9789987  78.1705006  24.4905017
 104.8979987  76.9205006  27.8655017 105.8549987  76.9205006  27.8655017
 104.6579987  77.8475006  27.8655017 104.5259987  79.4895006  15.1735017
 105.4829987  79.4895006  15.1735017 104.2859987  80.4165006  15.1735017
 100.3079987  82.2105006  25.6985017 101.2649987  82.2105006  25.6985017
 100.0679987  83.1375006  25.6985017 100.2819987  82.3725006  20.5785017
 101.2389987  82.3725006  20.5785017 100.0419987  83.2995006  20.5785017
 105.7879987  82.8485006  19.3705017 106.7449987  82.8485006  19.3705017
 105.5479987  83.7755006  19.3705017 104.8979987  83.0755006  30.8435017
 105.8549987  83.0755006  30.8435017 104.6579987  84.0025006  30.8435017
 106.8149987  82.3095006  22.1955017 107.7719987  82.3095006  22.1955017
 106.5749987  83.2365006  22.1955017  97.9659987  82.4975006  27.4305017
  98.9229987  82.4975006  27.4305017  97.7259987  83.4245006  27.4305017
 101.3479987  79.8825006  14.2685017 102.3049987  79.8825006  14.2685017
 101.1079987  80.8095006  14.2685017  94.6089987  79.6095006  21.3755017
  95.5659987  79.6095006  21.3755017  94.3689987  80.5365006  21.3755017
  95.8829987  80.3225006  16.7505017  96.8399987  80.3225006  16.7505017
  95.6429987  81.2495006  16.7505017 106.0439987  83.9245006  26.8055017
 107.0009987  83.9245006  26.8055017 105.8039987  84.8515006  26.8055017
 102.8459987  79.8765006  21.5975017 103.8029987  79.8765006  21.5975017
 102.6059987  80.8035006  21.5975017  97.6619987  81.4585006  20.4645017
  98.6189987  81.4585006  20.4645017  97.4219987  82.3855006  20.4645017
 101.3079987  81.4845006  18.0905017 102.2649987  81.4845006  18.0905017
 101.0679987  82.4115006  18.0905017 107.2409987  79.0755006  24.9005017
 108.1979987  79.0755006  24.9005017 107.0009987  80.0025006  24.9005017
 100.0029987  82.6735006  15.6835017 100.9599987  82.6735006  15.6835017
  99.7629987  83.6005006  15.6835017  98.1359987  87.2375006  30.7365017
  99.0929987  87.2375006  30.7365017  97.8959987  88.1645006  30.7365017
 104.0969987  82.6435006  23.4535017 105.0539987  82.6435006  23.4535017
 103.8569987  83.5705006  23.4535017  99.1449987  78.7965006  19.9305017
 100.1019987  78.7965006  19.9305017  98.9049987  79.7235006  19.9305017
 102.7579987  80.9875006  25.9085017 103.7149987  80.9875006  25.9085017
 102.5179987  81.9145006  25.9085017 103.3659987  87.2185006  17.5975017
 104.3229987  87.2185006  17.5975017 103.1259987  88.1455006  17.5975017
 107.1539987  80.0495006  15.7895017 108.1109987  80.0495006  15.7895017
 106.9139987  80.9765006  15.7895017 104.8409987  87.4345006  28.8365017
 105.7979987  87.4345006  28.8365017 104.6009987  88.3615006  28.8365017
   0.1199987  82.0345006  17.4925017   1.0769987  82.0345006  17.4925017
  -0.1200013  82.9615006  17.4925017  98.4649987  86.5855006  23.4025017
  99.4219987  86.5855006  23.4025017  98.2249987  87.5125006  23.4025017
 105.4559987  88.6685006  16.6195017 106.4129987  88.6685006  16.6195017
 105.2159987  89.5955006  16.6195017  95.4559987  85.0055006  28.6705017
  96.4129987  85.0055006  28.6705017  95.2159987  85.9325006  28.6705017
 102.4719987  84.5565006  30.8615017 103.4289987  84.5565006  30.8615017
 102.2319987  85.4835006  30.8615017 107.1539987  89.9315006  28.7705017
 108.1109987  89.9315006  28.7705017 106.9139987  90.8585006  28.7705017
 100.8249987  90.0685006  20.8255017 101.7819987  90.0685006  20.8255017
 100.5849987  90.9955006  20.8255017  96.5989987  84.8955006  15.3565017
  97.5559987  84.8955006  15.3565017  96.3589987  85.8225006  15.3565017
 102.2589987  87.7285006  20.3225017 103.2159987  87.7285006  20.3225017
 102.0189987  88.6555006  20.3225017 102.7109987  91.8815006  26.6805017
 103.6679987  91.8815006  26.6805017 102.4709987  92.8085006  26.6805017
 100.9509987  92.7185006  19.9265017 101.9079987  92.7185006  19.9265017
 100.7109987  93.6455006  19.9265017 106.2759987  87.9035006  26.3595017
 107.2329987  87.9035006  26.3595017 106.0359987  88.8305006  26.3595017
  97.1119987  79.7375006  28.2185017  98.0689987  79.7375006  28.2185017
  96.8719987  80.6645006  28.2185017  96.7419987  91.5335006  26.6435017
  97.6989987  91.5335006  26.6435017  96.5019987  92.4605006  26.6435017
 102.6639987  90.0445006  13.8975017 103.6209987  90.0445006  13.8975017
 102.4239987  90.9715006  13.8975017 101.4919987  89.5705006  16.3595017
 102.4489987  89.5705006  16.3595017 101.2519987  90.4975006  16.3595017
  98.0039987  86.8185006  16.8525017  98.9609987  86.8185006  16.8525017
  97.7639987  87.7455006  16.8525017 105.8509987  79.4925006  27.1685017
 106.8079987  79.4925006  27.1685017 105.6109987  80.4195006  27.1685017
 106.3259987  79.3145006  18.2295017 107.2829987  79.3145006  18.2295017
 106.0859987  80.2415006  18.2295017 104.2899987  91.2455006  17.1045017
 105.2469987  91.2455006  17.1045017 104.0499987  92.1725006  17.1045017
 103.7919987  80.8665006  19.0725017 104.7489987  80.8665006  19.0725017
 103.5519987  81.7935006  19.0725017 104.3369987  81.8155006  28.2785017
 105.2939987  81.8155006  28.2785017 104.0969987  82.7425006  28.2785017
 104.6989987  77.9025006  19.9855017 105.6559987  77.9025006  19.9855017
 104.4589987  78.8295006  19.9855017 101.6479987  92.2785006  17.0935017
 102.6049987  92.2785006  17.0935017 101.4079987  93.2055006  17.0935017
 100.3269987  78.9935006  16.6805017 101.2839987  78.9935006  16.6805017
 100.0869987  79.9205006  16.6805017  98.5649987  89.4355006  15.7325017
  99.5219987  89.4355006  15.7325017  98.3249987  90.3625006  15.7325017
  96.9079987  82.1055006  14.8625017  97.8649987  82.1055006  14.8625017
  96.6679987  83.0325006  14.8625017  97.7239987  76.8965006  23.5875017
  98.6809987  76.8965006  23.5875017  97.4839987  77.8235006  23.5875017
  96.6739987  90.8135006  19.7345017  97.6309987  90.8135006  19.7345017
  96.4339987  91.7405006  19.7345017  95.8949987  93.4645006  31.0355017
  96.8519987  93.4645006  31.0355017  95.6549987  94.3915006  31.0355017
 100.5559987  92.3875006  32.6435017 101.5129987  92.3875006  32.6435017
 100.3159987  93.3145006  32.6435017 104.7059987  91.8825006  14.0355017
 105.6629987  91.8825006  14.0355017 104.4659987  92.8095006  14.0355017
 107.1349987  90.7665006  31.3805017 108.0919987  90.7665006  31.3805017
 106.8949987  91.6935006  31.3805017  95.8149987  87.2475006  32.0205017
  96.7719987  87.2475006  32.0205017  95.5749987  88.1745006  32.0205017
 100.1419987  87.5875006  14.0695017 101.0989987  87.5875006  14.0695017
  99.9019987  88.5145006  14.0695017 102.4999987  87.2265006  31.4235017
 103.4569987  87.2265006  31.4235017 102.2599987  88.1535006  31.4235017
 105.5969987  88.6645006  13.8395017 106.5539987  88.6645006  13.8395017
 105.3569987  89.5915006  13.8395017  96.7059987  84.4655006  31.4075017
  97.6629987  84.4655006  31.4075017  96.4659987  85.3925006  31.4075017
 101.3409987  85.5975006  16.4555017 102.2979987  85.5975006  16.4555017
 101.1009987  86.5245006  16.4555017 100.6179987  83.4225006  28.7725017
 101.5749987  83.4225006  28.7725017 100.3779987  84.3495006  28.7725017
 102.4119987  83.8155006  14.6805017 103.3689987  83.8155006  14.6805017
 102.1719987  84.7425006  14.6805017 105.6759987  85.9635006  32.1195017
 106.6329987  85.9635006  32.1195017 105.4359987  86.8905006  32.1195017
 101.0099987  80.7965006  29.8415017 101.9669987  80.7965006  29.8415017
 100.7699987  81.7235006  29.8415017 101.4099987  79.1715006  27.3735017
 102.3669987  79.1715006  27.3735017 101.1699987  80.0985006  27.3735017
 102.9779987  84.6425006  27.6225017 103.9349987  84.6425006  27.6225017
 102.7379987  85.5695006  27.6225017 107.3919987  82.4355006  32.6985017
 108.3489987  82.4355006  32.6985017 107.1519987  83.3625006  32.6985017
  99.4639987  82.0385006  31.7595017 100.4209987  82.0385006  31.7595017
  99.2239987  82.9655006  31.7595017 102.2149987  76.6175006  27.7815017
 103.1719987  76.6175006  27.7815017 101.9749987  77.5445006  27.7815017
 103.4749987  80.9485006  31.3785017 104.4319987  80.9485006  31.3785017
 103.2349987  81.8755006  31.3785017 106.1379987  80.0445006  30.4375017
 107.0949987  80.0445006  30.4375017 105.8979987  80.9715006  30.4375017
 107.7419987  78.7535006  32.3635017 108.6989987  78.7535006  32.3635017
 107.5019987  79.6805006  32.3635017  97.5659987  79.9645006  31.4885017
  98.5229987  79.9645006  31.4885017  97.3259987  80.8915006  31.4885017
 102.4129987  75.9805006  30.4705017 103.3699987  75.9805006  30.4705017
 102.1729987  76.9075006  30.4705017 102.7799987  77.6095006  32.5575017
 103.7369987  77.6095006  32.5575017 102.5399987  78.5365006  32.5575017
 102.2619987  94.5175006  15.7405017 103.2189987  94.5175006  15.7405017
 102.0219987  95.4445006  15.7405017  95.8259987  89.1165006  15.2095017
  96.7829987  89.1165006  15.2095017  95.5859987  90.0435006  15.2095017
  94.5789987  94.4985006  20.2015017  95.5359987  94.4985006  20.2015017
  94.3389987  95.4255006  20.2015017  95.4079987  92.6185006  22.0545017
  96.3649987  92.6185006  22.0545017  95.1679987  93.5455006  22.0545017
  95.4629987  85.6945006  24.5455017  96.4199987  85.6945006  24.5455017
  95.2229987  86.6215006  24.5455017  95.0749987  80.9935006  30.6915017
  96.0319987  80.9935006  30.6915017  94.8349987  81.9205006  30.6915017
  96.2789987  79.2825006  23.5525017  97.2359987  79.2825006  23.5525017
  96.0389987  80.2095006  23.5525017  94.5679987  82.2765006  24.6025017
  95.5249987  82.2765006  24.6025017  94.3279987  83.2035006  24.6025017
  94.9319987  78.5515006  18.6755017  95.8889987  78.5515006  18.6755017
  94.6919987  79.4785006  18.6755017  94.8859987  77.2215006  26.9795017
  95.8429987  77.2215006  26.9795017  94.6459987  78.1485006  26.9795017
  97.1059987  90.4075006  31.1355017  98.0629987  90.4075006  31.1355017
  96.8659987  91.3345006  31.1355017 100.0129987  91.4005006  27.4135017
 100.9699987  91.4005006  27.4135017  99.7729987  92.3275006  27.4135017
 104.3359987  92.8355006  30.3495017 105.2929987  92.8355006  30.3495017
 104.0959987  93.7625006  30.3495017 106.6999987  94.1525006  29.5525017
 107.6569987  94.1525006  29.5525017 106.4599987  95.0795006  29.5525017
  97.4439987  94.6505006  27.4215017  98.4009987  94.6505006  27.4215017
  97.2039987  95.5775006  27.4215017  99.9199987  94.2255006  26.4655017
 100.8769987  94.2255006  26.4655017  99.6799987  95.1525006  26.4655017
 104.6619987  94.1925006  25.6045017 105.6189987  94.1925006  25.6045017
 104.4219987  95.1195006  25.6045017 106.9499987  93.0155006  26.6415017
 107.9069987  93.0155006  26.6415017 106.7099987  93.9425006  26.6415017
  96.8729987  93.2985006  24.3515017  97.8299987  93.2985006  24.3515017
  96.6329987  94.2255006  24.3515017  98.9919987  92.0045006  22.9705017
  99.9489987  92.0045006  22.9705017  98.7519987  92.9315006  22.9705017
 101.4369987  92.4125006  23.9805017 102.3939987  92.4125006  23.9805017
 101.1969987  93.3395006  23.9805017 105.0119987  78.1325006  22.9985017
 105.9689987  78.1325006  22.9985017 104.7719987  79.0595006  22.9985017
  97.3939987  76.7735006  20.8555017  98.3509987  76.7735006  20.8555017
  97.1539987  77.7005006  20.8555017  96.1829987  76.5305006  16.6015017
  97.1399987  76.5305006  16.6015017  95.9429987  77.4575006  16.6015017
 101.8999987  76.6825006  20.6445017 102.8569987  76.6825006  20.6445017
 101.6599987  77.6095006  20.6445017 107.4669987  76.6365006  22.4475017
 108.4239987  76.6365006  22.4475017 107.2269987  77.5635006  22.4475017
  96.0969987  92.4785006  17.5875017  97.0539987  92.4785006  17.5875017
  95.8569987  93.4055006  17.5875017  98.0149987  78.4715006  15.0885017
  98.9719987  78.4715006  15.0885017  97.7749987  79.3985006  15.0885017
 103.0459987  78.7215006  17.5035017 104.0029987  78.7215006  17.5035017
 102.8059987  79.6485006  17.5035017 104.9389987  93.7615006  15.9395017
 105.8959987  93.7615006  15.9395017 104.6989987  94.6885006  15.9395017
  97.2919987  77.3055006  30.3195017  98.2489987  77.3055006  30.3195017
  97.0519987  78.2325006  30.3195017  99.2959987  76.6795006  31.9325017
 100.2529987  76.6795006  31.9325017  99.0559987  77.6065006  31.9325017
  97.8909987  93.4505006  14.5525017  98.8479987  93.4505006  14.5525017
  97.6509987  94.3775006  14.5525017  -0.0980013  76.0325006  32.1125017
   0.8589987  76.0325006  32.1125017  -0.3380013  76.9595006  32.1125017
  12.1889987 104.7825006  20.7605017  13.1459987 104.7825006  20.7605017
  11.9489987 105.7095006  20.7605017  11.0829987 104.0275006  24.2345017
  12.0399987 104.0275006  24.2345017  10.8429987 104.9545006  24.2345017
   3.4719987 103.6475006  25.7655017   4.4289987 103.6475006  25.7655017
   3.2319987 104.5745006  25.7655017  14.6359987 106.7935006  22.4285017
  15.5929987 106.7935006  22.4285017  14.3959987 107.7205006  22.4285017
   4.4539987 107.6065006  24.7125017   5.4109987 107.6065006  24.7125017
   4.2139987 108.5335006  24.7125017   1.0599987 101.7895006  19.7215017
   2.0169987 101.7895006  19.7215017   0.8199987 102.7165006  19.7215017
   1.4939987 103.8125006  22.0085017   2.4509987 103.8125006  22.0085017
   1.2539987 104.7395006  22.0085017   9.4259987 106.4065006  24.6975017
  10.3829987 106.4065006  24.6975017   9.1859987 107.3335006  24.6975017
  18.0669987  98.0675006  25.4345017  19.0239987  98.0675006  25.4345017
  17.8269987  98.9945006  25.4345017  12.6129987 100.8875006  24.9925017
  13.5699987 100.8875006  24.9925017  12.3729987 101.8145006  24.9925017
   5.7349987  98.9735006  22.2135017   6.6919987  98.9735006  22.2135017
   5.4949987  99.9005006  22.2135017  13.4679987  99.0645006  20.5965017
  14.4249987  99.0645006  20.5965017  13.2279987  99.9915006  20.5965017
   2.5119987 101.3965006  22.8895017   3.4689987 101.3965006  22.8895017
   2.2719987 102.3235006  22.8895017   7.5149987 102.9315006  22.2705017
   8.4719987 102.9315006  22.2705017   7.2749987 103.8585006  22.2705017
  18.5039987  99.5025006  27.6955017  19.4609987  99.5025006  27.6955017
  18.2639987 100.4295006  27.6955017   4.6309987  97.8735006  26.2785017
   5.5879987  97.8735006  26.2785017   4.3909987  98.8005006  26.2785017
  11.9669987 107.3825006  19.8185017  12.9239987 107.3825006  19.8185017
  11.7269987 108.3095006  19.8185017   7.1489987 105.5355006  26.5295017
   8.1059987 105.5355006  26.5295017   6.9089987 106.4625006  26.5295017
  15.2619987  98.3995006  22.5875017  16.2189987  98.3995006  22.5875017
  15.0219987  99.3265006  22.5875017   4.2039987  99.7125006  24.2955017
   5.1609987  99.7125006  24.2955017   3.9639987 100.6395006  24.2955017
   5.5889987 107.5435006  27.2525017   6.5459987 107.5435006  27.2525017
   5.3489987 108.4705006  27.2525017   1.6349987 107.0695006  18.1645017
   2.5919987 107.0695006  18.1645017   1.3949987 107.9965006  18.1645017
  15.6059987  97.0955006  26.2675017  16.5629987  97.0955006  26.2675017
  15.3659987  98.0225006  26.2675017   8.5889987  95.2025006  23.7265017
   9.5459987  95.2025006  23.7265017   8.3489987  96.1295006  23.7265017
  16.2849987 106.9595006  28.4635017  17.2419987 106.9595006  28.4635017
  16.0449987 107.8865006  28.4635017  10.8769987 103.9975006  18.2495017
  11.8339987 103.9975006  18.2495017  10.6369987 104.9245006  18.2495017
  10.9359987 102.5395006  15.2595017  11.8929987 102.5395006  15.2595017
  10.6959987 103.4665006  15.2595017  18.2619987 103.4155006  26.5315017
  19.2189987 103.4155006  26.5315017  18.0219987 104.3425006  26.5315017
  14.2849987 104.1865006  19.1585017  15.2419987 104.1865006  19.1585017
  14.0449987 105.1135006  19.1585017  14.2469987 102.3795006  28.2665017
  15.2039987 102.3795006  28.2665017  14.0069987 103.3065006  28.2665017
   6.2929987 104.9145006  21.0655017   7.2499987 104.9145006  21.0655017
   6.0529987 105.8415006  21.0655017   6.2929987 103.6195006  24.7505017
   7.2499987 103.6195006  24.7505017   6.0529987 104.5465006  24.7505017
   6.5969987   0.0155006  29.5295017   7.5539987   0.0155006  29.5295017
   6.3569987   0.9425006  29.5295017  13.1799987 103.3985006  16.8315017
  14.1369987 103.3985006  16.8315017  12.9399987 104.3255006  16.8315017
   4.1339987 104.2135006  28.6385017   5.0909987 104.2135006  28.6385017
   3.8939987 105.1405006  28.6385017  16.9029987  95.1375006  16.7095017
  17.8599987  95.1375006  16.7095017  16.6629987  96.0645006  16.7095017
   5.1119987 103.7835006  18.2135017   6.0689987 103.7835006  18.2135017
   4.8719987 104.7105006  18.2135017   1.0499987 106.3035006  27.5415017
   2.0069987 106.3035006  27.5415017   0.8099987 107.2305006  27.5415017
  16.1299987 101.2335006  30.5295017  17.0869987 101.2335006  30.5295017
  15.8899987 102.1605006  30.5295017   3.2629987 107.6025006  28.5235017
   4.2199987 107.6025006  28.5235017   3.0229987 108.5295006  28.5235017
   5.9349987  96.1085006  24.4775017   6.8919987  96.1085006  24.4775017
   5.6949987  97.0355006  24.4775017  10.5819987  95.7905006  27.8545017
  11.5389987  95.7905006  27.8545017  10.3419987  96.7175006  27.8545017
  13.8849987  99.6085006  28.7425017  14.8419987  99.6085006  28.7425017
  13.6449987 100.5355006  28.7425017  14.6329987 104.4135006  14.5835017
  15.5899987 104.4135006  14.5835017  14.3929987 105.3405006  14.5835017
  10.2349987  98.3495006  15.1525017  11.1919987  98.3495006  15.1525017
   9.9949987  99.2765006  15.1525017   6.0409987 101.0805006  25.6885017
   6.9979987 101.0805006  25.6885017   5.8009987 102.0075006  25.6885017
   6.0009987 101.1905006  20.5935017   6.9579987 101.1905006  20.5935017
   5.7609987 102.1175006  20.5935017  11.5189987 101.6995006  19.3705017
  12.4759987 101.6995006  19.3705017  11.2789987 102.6265006  19.3705017
  10.5959987 101.9125006  30.8125017  11.5529987 101.9125006  30.8125017
  10.3559987 102.8395006  30.8125017  12.5539987 101.1795006  22.2005017
  13.5109987 101.1795006  22.2005017  12.3139987 102.1065006  22.2005017
   3.7039987 101.3455006  27.4405017   4.6609987 101.3455006  27.4405017
   3.4639987 102.2725006  27.4405017   7.0789987  98.7365006  14.2615017
   8.0359987  98.7365006  14.2615017   6.8389987  99.6635006  14.2615017
   0.4239987  97.7675006  21.7405017   1.3809987  97.7675006  21.7405017
   0.1839987  98.6945006  21.7405017   1.7989987  99.1765006  16.8485017
   2.7559987  99.1765006  16.8485017   1.5589987 100.1035006  16.8485017
  11.7689987 102.7755006  26.7875017  12.7259987 102.7755006  26.7875017
  11.5289987 103.7025006  26.7875017   8.5629987  98.7395006  21.6015017
   9.5199987  98.7395006  21.6015017   8.3229987  99.6665006  21.6015017
   3.3769987 100.2755006  20.4705017   4.3339987 100.2755006  20.4705017
   3.1369987 101.2025006  20.4705017   7.0239987 100.3365006  18.0875017
   7.9809987 100.3365006  18.0875017   6.7839987 101.2635006  18.0875017
  12.9719987  97.9765006  24.8505017  13.9289987  97.9765006  24.8505017
  12.7319987  98.9035006  24.8505017   5.7099987 101.5265006  15.6745017
   6.6669987 101.5265006  15.6745017   5.4699987 102.4535006  15.6745017
   3.8499987 106.1655006  30.7405017   4.8069987 106.1655006  30.7405017
   3.6099987 107.0925006  30.7405017   9.8579987 101.5055006  23.4975017
  10.8149987 101.5055006  23.4975017   9.6179987 102.4325006  23.4975017
   4.8549987  97.6565006  19.9135017   5.8119987  97.6565006  19.9135017
   4.6149987  98.5835006  19.9135017   8.4939987  99.8445006  25.9085017
   9.4509987  99.8445006  25.9085017   8.2539987 100.7715006  25.9085017
   9.0919987 106.0895006  17.6055017  10.0489987 106.0895006  17.6055017
   8.8519987 107.0165006  17.6055017  16.2309987 105.2645006  26.3875017
  17.1879987 105.2645006  26.3875017  15.9909987 106.1915006  26.3875017
  12.9189987  98.8835006  15.7825017  13.8759987  98.8835006  15.7825017
  12.6789987  99.8105006  15.7825017  10.5499987 106.2765006  28.8365017
  11.5069987 106.2765006  28.8365017  10.3099987 107.2035006  28.8365017
  13.6479987 100.7845006  17.4255017  14.6049987 100.7845006  17.4255017
  13.4079987 101.7115006  17.4255017   4.2009987 105.4405006  23.4195017
   5.1579987 105.4405006  23.4195017   3.9609987 106.3675006  23.4195017
  11.1929987 107.5265006  16.6665017  12.1499987 107.5265006  16.6665017
  10.9529987 108.4535006  16.6665017   1.1879987 103.8515006  28.6825017
   2.1449987 103.8515006  28.6825017   0.9479987 104.7785006  28.6825017
   8.1869987 103.4085006  30.8685017   9.1439987 103.4085006  30.8685017
   7.9469987 104.3355006  30.8685017  18.5539987 100.9365006  17.1785017
  19.5109987 100.9365006  17.1785017  18.3139987 101.8635006  17.1785017
  18.5499987 106.7705006  30.0045017  19.5069987 106.7705006  30.0045017
  18.3099987 107.6975006  30.0045017  14.0309987 104.5745006  24.6925017
  14.9879987 104.5745006  24.6925017  13.7909987 105.5015006  24.6925017
   2.2749987 103.7425006  15.3365017   3.2319987 103.7425006  15.3365017
   2.0349987 104.6695006  15.3365017   8.0709987 106.5555006  20.3065017
   9.0279987 106.5555006  20.3065017   7.8309987 107.4825006  20.3065017
  11.9799987 106.8095006  26.3665017  12.9369987 106.8095006  26.3665017
  11.7399987 107.7365006  26.3665017  14.2449987 107.7465006  15.4555017
  15.2019987 107.7465006  15.4555017  14.0049987 108.6735006  15.4555017
   2.7989987  98.5845006  28.2085017   3.7559987  98.5845006  28.2085017
   2.5589987  99.5115006  28.2085017  15.0769987 106.3975006  17.6555017
  16.0339987 106.3975006  17.6555017  14.8369987 107.3245006  17.6555017
   3.6339987 105.6995006  16.7625017   4.5909987 105.6995006  16.7625017
   3.3939987 106.6265006  16.7625017  11.5529987  98.3635006  27.1585017
  12.5099987  98.3635006  27.1585017  11.3129987  99.2905006  27.1585017
  12.3149987  97.9475006  18.2505017  13.2719987  97.9475006  18.2505017
  12.0749987  98.8745006  18.2505017   9.5319987  99.7015006  19.0755017
  10.4889987  99.7015006  19.0755017   9.2919987 100.6285006  19.0755017
  10.0819987 100.7115006  28.2635017  11.0389987 100.7115006  28.2635017
   9.8419987 101.6385006  28.2635017  10.3919987  96.7595006  19.9815017
  11.3489987  96.7595006  19.9815017  10.1519987  97.6865006  19.9815017
   6.0519987  97.8475006  16.6765017   7.0089987  97.8475006  16.6765017
   5.8119987  98.7745006  16.6765017  16.2779987  98.5895006  29.1135017
  17.2349987  98.5895006  29.1135017  16.0379987  99.5165006  29.1135017
  14.8759987 102.3715006  23.1445017  15.8329987 102.3715006  23.1445017
  14.6359987 103.2985006  23.1445017   2.5819987 100.9735006  14.9105017
   3.5389987 100.9735006  14.9105017   2.3419987 101.9005006  14.9105017
   3.4249987  95.7665006  23.5815017   4.3819987  95.7665006  23.5815017
   3.1849987  96.6935006  23.5815017   1.5449987 106.0765006  31.9725017
   2.5019987 106.0765006  31.9725017   1.3049987 107.0035006  31.9725017
   5.8479987 106.4235006  14.0605017   6.8049987 106.4235006  14.0605017
   5.6079987 107.3505006  14.0605017   8.2249987 106.0405006  31.4175017
   9.1819987 106.0405006  31.4175017   7.9849987 106.9675006  31.4175017
  11.1589987 107.4905006  13.8495017  12.1159987 107.4905006  13.8495017
  10.9189987 108.4175006  13.8495017  13.8929987 105.9665006  28.8315017
  14.8499987 105.9665006  28.8315017  13.6529987 106.8935006  28.8315017
   2.3669987 103.3065006  31.3995017   3.3239987 103.3065006  31.3995017
   2.1269987 104.2335006  31.3995017   7.0799987 104.4615006  16.4265017
   8.0369987 104.4615006  16.4265017   6.8399987 105.3885006  16.4265017
   6.3369987 102.2785006  28.7735017   7.2939987 102.2785006  28.7735017
   6.0969987 103.2055006  28.7735017   8.1359987 102.6405006  14.6755017
   9.0929987 102.6405006  14.6755017   7.8959987 103.5675006  14.6755017
  11.3879987 104.8095006  32.0515017  12.3449987 104.8095006  32.0515017
  11.1479987 105.7365006  32.0515017  17.5029987 104.9925006  14.1085017
  18.4599987 104.9925006  14.1085017  17.2629987 105.9195006  14.1085017
   6.7329987  99.6525006  29.8415017   7.6899987  99.6525006  29.8415017
   6.4929987 100.5795006  29.8415017   7.1319987  98.0305006  27.3745017
   8.0889987  98.0305006  27.3745017   6.8919987  98.9575006  27.3745017
   8.6899987 103.5105006  27.6225017   9.6469987 103.5105006  27.6225017
   8.4499987 104.4375006  27.6225017  13.0799987 101.2775006  32.5955017
  14.0369987 101.2775006  32.5955017  12.8399987 102.2045006  32.5955017
  14.4199987 104.0615006  30.7265017  15.3769987 104.0615006  30.7265017
  14.1799987 104.9885006  30.7265017   5.1759987 100.8915006  31.7555017
   6.1329987 100.8915006  31.7555017   4.9359987 101.8185006  31.7555017
   7.9159987  95.4745006  27.7845017   8.8729987  95.4745006  27.7845017
   7.6759987  96.4015006  27.7845017   9.1969987  99.7995006  31.3805017
  10.1539987  99.7995006  31.3805017   8.9569987 100.7265006  31.3805017
  11.9139987  98.9335006  30.4555017  12.8709987  98.9335006  30.4555017
  11.6739987  99.8605006  30.4555017  13.5099987  97.5625006  32.3955017
  14.4669987  97.5625006  32.3955017  13.2699987  98.4895006  32.3955017
   3.3209987  98.8235006  31.4915017   4.2779987  98.8235006  31.4915017
   3.0809987  99.7505006  31.4915017   8.1359987  94.8365006  30.4715017
   9.0929987  94.8365006  30.4715017   7.8959987  95.7635006  30.4715017
   8.5029987  96.4695006  32.5605017   9.4599987  96.4695006  32.5605017
   8.2629987  97.3965006  32.5605017   1.5659987 107.8675006  15.0005017
   2.5229987 107.8675006  15.0005017   1.3259987 108.7945006  15.0005017
  16.5939987 107.5675006  32.5805017  17.5509987 107.5675006  32.5805017
  16.3539987 108.4945006  32.5805017  17.9819987 105.8565006  18.0595017
  18.9389987 105.8565006  18.0595017  17.7419987 106.7835006  18.0595017
  18.3679987 103.9485006  19.9305017  19.3249987 103.9485006  19.9305017
  18.1279987 104.8755006  19.9305017  18.1049987 106.7195006  24.9145017
  19.0619987 106.7195006  24.9145017  17.8649987 107.6465006  24.9145017
  18.6649987 103.7955006  16.3295017  19.6219987 103.7955006  16.3295017
  18.4249987 104.7225006  16.3295017  17.0299987 101.0545006  14.8385017
  17.9869987 101.0545006  14.8385017  16.7899987 101.9815006  14.8385017
  16.1829987 102.4585006  20.4975017  17.1399987 102.4585006  20.4975017
  15.9429987 103.3855006  20.4975017   1.1799987 104.5275006  24.5415017
   2.1369987 104.5275006  24.5415017   0.9399987 105.4545006  24.5415017
  17.0289987 104.4525006  30.1485017  17.9859987 104.4525006  30.1485017
  16.7889987 105.3795006  30.1485017  18.5339987 102.3345006  30.8455017
  19.4909987 102.3345006  30.8455017  18.2939987 103.2615006  30.8455017
  16.2689987  98.5125006  13.9775017  17.2259987  98.5125006  13.9775017
  16.0289987  99.4395006  13.9775017  15.8369987 100.0505006  18.9275017
  16.7939987 100.0505006  18.9275017  15.5969987 100.9775006  18.9275017
  16.4799987 100.5975006  24.3955017  17.4369987 100.5975006  24.3955017
  16.2399987 101.5245006  24.3955017  16.5429987 101.3165006  27.1805017
  17.4999987 101.3165006  27.1805017  16.3029987 102.2435006  27.1805017
   0.8819987  99.8215006  30.6355017   1.8389987  99.8215006  30.6355017
   0.6419987 100.7485006  30.6355017  18.7919987  95.3265006  32.5115017
  19.7489987  95.3265006  32.5115017  18.5519987  96.2535006  32.5115017
  16.5109987  97.3335006  19.0025017  17.4679987  97.3335006  19.0025017
  16.2709987  98.2605006  19.0025017   2.0469987  98.1375006  23.5905017
   3.0039987  98.1375006  23.5905017   1.8069987  99.0645006  23.5905017
   0.8359987 101.1225006  24.7495017   1.7929987 101.1225006  24.7495017
   0.5959987 102.0495006  24.7495017  18.3409987  97.4325006  30.9015017
  19.2979987  97.4325006  30.9015017  18.1009987  98.3595006  30.9015017
  18.3389987  97.3725006  15.5565017  19.2959987  97.3725006  15.5565017
  18.0989987  98.2995006  15.5565017   0.8929987  97.3435006  18.6855017
   1.8499987  97.3435006  18.6855017   0.6529987  98.2705006  18.6855017
 108.2689987  96.0035006  26.9425017 109.2259987  96.0035006  26.9425017
 108.0289987  96.9305006  26.9425017  17.3449987  95.5495006  28.7405017
  18.3019987  95.5495006  28.7405017  17.1049987  96.4765006  28.7405017
  10.7549987  96.9965006  23.0195017  11.7119987  96.9965006  23.0195017
  10.5149987  97.9235006  23.0195017  15.8899987  95.0565006  23.1025017
  16.8469987  95.0565006  23.1025017  15.6499987  95.9835006  23.1025017
  17.5679987  96.2775006  21.3865017  18.5249987  96.2775006  21.3865017
  17.3279987  97.2045006  21.3865017   3.0959987  95.6245006  20.8535017
   4.0529987  95.6245006  20.8535017   2.8559987  96.5515006  20.8535017
   1.9409987  95.3825006  16.6545017   2.8979987  95.3825006  16.6545017
   1.7009987  96.3095006  16.6545017   7.6139987  95.5485006  20.6455017
   8.5709987  95.5485006  20.6455017   7.3739987  96.4755006  20.6455017
  13.2829987  95.5735006  22.2855017  14.2399987  95.5735006  22.2855017
  13.0429987  96.5005006  22.2855017  14.5799987  95.6045006  17.9665017
  15.5369987  95.6045006  17.9665017  14.3399987  96.5315006  17.9665017
   3.7349987  97.3355006  15.0895017   4.6919987  97.3355006  15.0895017
   3.4949987  98.2625006  15.0895017   8.7609987  97.5825006  17.5035017
   9.7179987  97.5825006  17.5035017   8.5209987  98.5095006  17.5035017
   2.9949987  96.1645006  30.3135017   3.9519987  96.1645006  30.3135017
   2.7549987  97.0915006  30.3135017   5.0119987  95.5425006  31.9305017
   5.9689987  95.5425006  31.9305017   4.7719987  96.4695006  31.9305017
  13.4239987  94.8345006  32.0955017  14.3809987  94.8345006  32.0955017
  13.1839987  95.7615006  32.0955017  31.0249987 104.7815006  20.7675017
  31.9819987 104.7815006  20.7675017  30.7849987 105.7085006  20.7675017
  29.9289987 104.0335006  24.2275017  30.8859987 104.0335006  24.2275017
  29.6889987 104.9605006  24.2275017  21.9359987 103.6705006  26.1175017
  22.8929987 103.6705006  26.1175017  21.6959987 104.5975006  26.1175017
  33.4889987 106.7935006  22.4285017  34.4459987 106.7935006  22.4285017
  33.2489987 107.7205006  22.4285017  23.3589987 107.5215006  24.7185017
  24.3159987 107.5215006  24.7185017  23.1189987 108.4485006  24.7185017
  19.8439987 101.6915006  19.7575017  20.8009987 101.6915006  19.7575017
  19.6039987 102.6185006  19.7575017  20.5699987 103.9015006  21.9395017
  21.5269987 103.9015006  21.9395017  20.3299987 104.8285006  21.9395017
  28.2829987 106.3995006  24.7015017  29.2399987 106.3995006  24.7015017
  28.0429987 107.3265006  24.7015017  36.9059987  98.0915006  25.4255017
  37.8629987  98.0915006  25.4255017  36.6659987  99.0185006  25.4255017
  31.4789987 100.9015006  24.9825017  32.4359987 100.9015006  24.9825017
  31.2389987 101.8285006  24.9825017  24.5829987  98.9785006  22.2375017
  25.5399987  98.9785006  22.2375017  24.3429987  99.9055006  22.2375017
  32.3219987  99.0645006  20.5975017  33.2789987  99.0645006  20.5975017
  32.0819987  99.9915006  20.5975017  21.2549987 101.4075006  22.9775017
  22.2119987 101.4075006  22.9775017  21.0149987 102.3345006  22.9775017
  26.3399987 102.9485006  22.2465017  27.2969987 102.9485006  22.2465017
  26.0999987 103.8755006  22.2465017  37.3529987  99.4975006  27.6945017
  38.3099987  99.4975006  27.6945017  37.1129987 100.4245006  27.6945017
  23.4819987  97.8795006  26.2755017  24.4389987  97.8795006  26.2755017
  23.2419987  98.8065006  26.2755017  30.8239987 107.3825006  19.8185017
  31.7809987 107.3825006  19.8185017  30.5839987 108.3095006  19.8185017
  25.9489987 105.5265006  26.4615017  26.9059987 105.5265006  26.4615017
  25.7089987 106.4535006  26.4615017  34.1179987  98.3995006  22.5875017
  35.0749987  98.3995006  22.5875017  33.8779987  99.3265006  22.5875017
  23.0309987  99.7675006  24.2635017  23.9879987  99.7675006  24.2635017
  22.7909987 100.6945006  24.2635017  24.4309987 107.5105006  27.2505017
  25.3879987 107.5105006  27.2505017  24.1909987 108.4375006  27.2505017
  20.4939987 107.0535006  18.1155017  21.4509987 107.0535006  18.1155017
  20.2539987 107.9805006  18.1155017  34.4699987  97.0875006  26.2705017
  35.4269987  97.0875006  26.2705017  34.2299987  98.0145006  26.2705017
  27.4559987  95.1945006  23.7585017  28.4129987  95.1945006  23.7585017
  27.2159987  96.1215006  23.7585017  35.1389987 106.9585006  28.4625017
  36.0959987 106.9585006  28.4625017  34.8989987 107.8855006  28.4625017
  29.7319987 103.9995006  18.2495017  30.6889987 103.9995006  18.2495017
  29.4919987 104.9265006  18.2495017  29.7919987 102.5405006  15.2585017
  30.7489987 102.5405006  15.2585017  29.5519987 103.4675006  15.2585017
  37.1129987 103.4185006  26.5335017  38.0699987 103.4185006  26.5335017
  36.8729987 104.3455006  26.5335017  33.1409987 104.1875006  19.1595017
  34.0979987 104.1875006  19.1595017  32.9009987 105.1145006  19.1595017
  33.0959987 102.3775006  28.2685017  34.0529987 102.3775006  28.2685017
  32.8559987 103.3045006  28.2685017  24.7669987 104.8455006  21.1065017
  25.7239987 104.8455006  21.1065017  24.5269987 105.7725006  21.1065017
  26.0499987 103.4415006  24.7955017  27.0069987 103.4415006  24.7955017
  25.8099987 104.3685006  24.7955017  25.4459987   0.0245006  29.5235017
  26.4029987   0.0245006  29.5235017  25.2059987   0.9515006  29.5235017
  32.0359987 103.3985006  16.8325017  32.9929987 103.3985006  16.8325017
  31.7959987 104.3255006  16.8325017  23.0109987 104.2445006  28.5925017
  23.9679987 104.2445006  28.5925017  22.7709987 105.1715006  28.5925017
  35.7599987  95.1365006  16.7075017  36.7169987  95.1365006  16.7075017
  35.5199987  96.0635006  16.7075017  23.7879987 103.9145006  18.6705017
  24.7449987 103.9145006  18.6705017  23.5479987 104.8415006  18.6705017
  19.8329987 106.3075006  27.5425017  20.7899987 106.3075006  27.5425017
  19.5929987 107.2345006  27.5425017  34.9859987 101.2335006  30.5305017
  35.9429987 101.2335006  30.5305017  34.7459987 102.1605006  30.5305017
  22.1429987 107.5415006  28.5005017  23.0999987 107.5415006  28.5005017
  21.9029987 108.4685006  28.5005017  24.7929987  96.0995006  24.4875017
  25.7499987  96.0995006  24.4875017  24.5529987  97.0265006  24.4875017
  29.5769987  96.0375006  27.6385017  30.5339987  96.0375006  27.6385017
  29.3369987  96.9645006  27.6385017  32.7429987  99.6095006  28.7435017
  33.6999987  99.6095006  28.7435017  32.5029987 100.5365006  28.7435017
  33.4889987 104.4125006  14.5825017  34.4459987 104.4125006  14.5825017
  33.2489987 105.3395006  14.5825017  29.0909987  98.3485006  15.1525017
  30.0479987  98.3485006  15.1525017  28.8509987  99.2755006  15.1525017
  24.8479987 101.0645006  25.6715017  25.8049987 101.0645006  25.6715017
  24.6079987 101.9915006  25.6715017  24.8489987 101.2405006  20.5905017
  25.8059987 101.2405006  20.5905017  24.6089987 102.1675006  20.5905017
  30.3719987 101.7015006  19.3635017  31.3289987 101.7015006  19.3635017
  30.1319987 102.6285006  19.3635017  29.4489987 101.9135006  30.8135017
  30.4059987 101.9135006  30.8135017  29.2089987 102.8405006  30.8135017
  31.4079987 101.1795006  22.1995017  32.3649987 101.1795006  22.1995017
  31.1679987 102.1065006  22.1995017  22.5519987 101.3615006  27.4215017
  23.5089987 101.3615006  27.4215017  22.3119987 102.2885006  27.4215017
  25.9229987  98.7385006  14.2685017  26.8799987  98.7385006  14.2685017
  25.6829987  99.6655006  14.2685017  19.1849987  98.4645006  21.3755017
  20.1419987  98.4645006  21.3755017  18.9449987  99.3915006  21.3755017
  20.4589987  99.1775006  16.7505017  21.4159987  99.1775006  16.7505017
  20.2189987 100.1045006  16.7505017  30.6299987 102.7775006  26.7925017
  31.5869987 102.7775006  26.7925017  30.3899987 103.7045006  26.7925017
  27.4239987  98.7165006  21.5935017  28.3809987  98.7165006  21.5935017
  27.1839987  99.6435006  21.5935017  22.2409987 100.3225006  20.4775017
  23.1979987 100.3225006  20.4775017  22.0009987 101.2495006  20.4775017
  25.8839987 100.3405006  18.0895017  26.8409987 100.3405006  18.0895017
  25.6439987 101.2675006  18.0895017  31.8309987  97.9735006  24.8485017
  32.7879987  97.9735006  24.8485017  31.5909987  98.9005006  24.8485017
  24.5759987 101.5295006  15.6845017  25.5329987 101.5295006  15.6845017
  24.3359987 102.4565006  15.6845017  22.7259987 106.1785006  30.7265017
  23.6829987 106.1785006  30.7265017  22.4859987 107.1055006  30.7265017
  28.6979987 101.5075006  23.4935017  29.6549987 101.5075006  23.4935017
  28.4579987 102.4345006  23.4935017  23.7219987  97.6485006  19.9295017
  24.6789987  97.6485006  19.9295017  23.4819987  98.5755006  19.9295017
  27.3409987  99.8535006  25.9065017  28.2979987  99.8535006  25.9065017
  27.1009987 100.7805006  25.9065017  27.9549987 106.0915006  17.6005017
  28.9119987 106.0915006  17.6005017  27.7149987 107.0185006  17.6005017
  35.0969987 105.2615006  26.3855017  36.0539987 105.2615006  26.3855017
  34.8569987 106.1885006  26.3855017  31.7759987  98.8825006  15.7785017
  32.7329987  98.8825006  15.7785017  31.5359987  99.8095006  15.7785017
  29.4109987 106.2795006  28.8425017  30.3679987 106.2795006  28.8425017
  29.1709987 107.2065006  28.8425017  32.5039987 100.7845006  17.4255017
  33.4609987 100.7845006  17.4255017  32.2639987 101.7115006  17.4255017
  22.9799987 105.5295006  23.2025017  23.9369987 105.5295006  23.2025017
  22.7399987 106.4565006  23.2025017  30.0489987 107.5275006  16.6675017
  31.0059987 107.5275006  16.6675017  29.8089987 108.4545006  16.6675017
  20.0479987 103.8445006  28.6715017  21.0049987 103.8445006  28.6715017
  19.8079987 104.7715006  28.6715017  27.0419987 103.4065006  30.8675017
  27.9989987 103.4065006  30.8675017  26.8019987 104.3335006  30.8675017
  37.4089987 100.9385006  17.1795017  38.3659987 100.9385006  17.1795017
  37.1689987 101.8655006  17.1795017  37.4049987 106.7715006  30.0065017
  38.3619987 106.7715006  30.0065017  37.1649987 107.6985006  30.0065017
  32.8889987 104.5745006  24.6925017  33.8459987 104.5745006  24.6925017
  32.6489987 105.5015006  24.6925017  21.1759987 103.7315006  15.3645017
  22.1329987 103.7315006  15.3645017  20.9359987 104.6585006  15.3645017
  26.8609987 106.5005006  20.3285017  27.8179987 106.5005006  20.3285017
  26.6209987 107.4275006  20.3285017  30.8259987 106.8035006  26.3645017
  31.7829987 106.8035006  26.3645017  30.5859987 107.7305006  26.3645017
  33.1079987 107.7295006  15.4415017  34.0649987 107.7295006  15.4415017
  32.8679987 108.6565006  15.4415017  21.6809987  98.5905006  28.2235017
  22.6379987  98.5905006  28.2235017  21.4409987  99.5175006  28.2235017
  33.9279987 106.3975006  17.6545017  34.8849987 106.3975006  17.6545017
  33.6879987 107.3245006  17.6545017  22.5779987 105.6805006  16.8395017
  23.5349987 105.6805006  16.8395017  22.3379987 106.6075006  16.8395017
  30.4129987  98.4135006  27.1655017  31.3699987  98.4135006  27.1655017
  30.1729987  99.3405006  27.1655017  31.1709987  97.9445006  18.2475017
  32.1279987  97.9445006  18.2475017  30.9309987  98.8715006  18.2475017
  28.3879987  99.7025006  19.0755017  29.3449987  99.7025006  19.0755017
  28.1479987 100.6295006  19.0755017  28.9309987 100.7115006  28.2645017
  29.8879987 100.7115006  28.2645017  28.6909987 101.6385006  28.2645017
  29.2449987  96.7575006  19.9805017  30.2019987  96.7575006  19.9805017
  29.0049987  97.6845006  19.9805017  24.8949987  97.8575006  16.6755017
  25.8519987  97.8575006  16.6755017  24.6549987  98.7845006  16.6755017
  35.1259987  98.5925006  29.1145017  36.0829987  98.5925006  29.1145017
  34.8859987  99.5195006  29.1145017  33.7319987 102.3725006  23.1425017
  34.6889987 102.3725006  23.1425017  33.4919987 103.2995006  23.1425017
  21.4839987 100.9615006  14.8675017  22.4409987 100.9615006  14.8675017
  21.2439987 101.8885006  14.8675017  22.3019987  95.7525006  23.5885017
  23.2589987  95.7525006  23.5885017  22.0619987  96.6795006  23.5885017
  20.4309987 106.0745006  31.9545017  21.3879987 106.0745006  31.9545017
  20.1909987 107.0015006  31.9545017  24.7039987 106.4225006  14.0625017
  25.6609987 106.4225006  14.0625017  24.4639987 107.3495006  14.0625017
  27.0819987 106.0395006  31.4165017  28.0389987 106.0395006  31.4165017
  26.8419987 106.9665006  31.4165017  30.0149987 107.4905006  13.8505017
  30.9719987 107.4905006  13.8505017  29.7749987 108.4175006  13.8505017
  32.7439987 105.9645006  28.8285017  33.7009987 105.9645006  28.8285017
  32.5039987 106.8915006  28.8285017  21.2729987 103.3445006  31.4065017
  22.2299987 103.3445006  31.4065017  21.0329987 104.2715006  31.4065017
  25.9169987 104.4595006  16.4395017  26.8739987 104.4595006  16.4395017
  25.6769987 105.3865006  16.4395017  25.1709987 102.2665006  28.7575017
  26.1279987 102.2665006  28.7575017  24.9309987 103.1935006  28.7575017
  26.9909987 102.6445006  14.6775017  27.9479987 102.6445006  14.6775017
  26.7509987 103.5715006  14.6775017  30.2449987 104.8095006  32.0485017
  31.2019987 104.8095006  32.0485017  30.0049987 105.7365006  32.0485017
  36.3599987 104.9955006  14.1085017  37.3169987 104.9955006  14.1085017
  36.1199987 105.9225006  14.1085017  25.5899987  99.6545006  29.8385017
  26.5469987  99.6545006  29.8385017  25.3499987 100.5815006  29.8385017
  25.9999987  98.0055006  27.3645017  26.9569987  98.0055006  27.3645017
  25.7599987  98.9325006  27.3645017  27.5289987 103.5055006  27.6175017
  28.4859987 103.5055006  27.6175017  27.2889987 104.4325006  27.6175017
  31.9359987 101.2765006  32.5955017  32.8929987 101.2765006  32.5955017
  31.6959987 102.2035006  32.5955017  33.2749987 104.0675006  30.7295017
  34.2319987 104.0675006  30.7295017  33.0349987 104.9945006  30.7295017
  24.0419987 100.8855006  31.7595017  24.9989987 100.8855006  31.7595017
  23.8019987 101.8125006  31.7595017  26.7879987  95.4835006  27.7595017
  27.7449987  95.4835006  27.7595017  26.5479987  96.4105006  27.7595017
  28.0669987  99.7445006  31.3675017  29.0239987  99.7445006  31.3675017
  27.8269987 100.6715006  31.3675017  30.7639987  98.9045006  30.4265017
  31.7209987  98.9045006  30.4265017  30.5239987  99.8315006  30.4265017
  32.3179987  97.5595006  32.3815017  33.2749987  97.5595006  32.3815017
  32.0779987  98.4865006  32.3815017  22.1409987  98.8195006  31.4885017
  23.0979987  98.8195006  31.4885017  21.9009987  99.7465006  31.4885017
  26.8689987  94.8375006  30.5495017  27.8259987  94.8375006  30.5495017
  26.6289987  95.7645006  30.5495017  27.3959987  96.5235006  32.4035017
  28.3529987  96.5235006  32.4035017  27.1559987  97.4505006  32.4035017
  20.4749987 107.7915006  15.0575017  21.4319987 107.7915006  15.0575017
  20.2349987 108.7185006  15.0575017  35.4499987 107.5675006  32.5805017
  36.4069987 107.5675006  32.5805017  35.2099987 108.4945006  32.5805017
  36.8399987 105.8665006  18.0735017  37.7969987 105.8665006  18.0735017
  36.5999987 106.7935006  18.0735017  37.2259987 103.9635006  19.9345017
  38.1829987 103.9635006  19.9345017  36.9859987 104.8905006  19.9345017
  36.9639987 106.7145006  24.8875017  37.9209987 106.7145006  24.8875017
  36.7239987 107.6415006  24.8875017  37.5189987 103.7905006  16.3245017
  38.4759987 103.7905006  16.3245017  37.2789987 104.7175006  16.3245017
  35.8879987 101.0545006  14.8405017  36.8449987 101.0545006  14.8405017
  35.6479987 101.9815006  14.8405017  35.0409987 102.4595006  20.4975017
  35.9979987 102.4595006  20.4975017  34.8009987 103.3865006  20.4975017
  20.0259987 104.5175006  24.5255017  20.9829987 104.5175006  24.5255017
  19.7859987 105.4445006  24.5255017  35.8849987 104.4545006  30.1505017
  36.8419987 104.4545006  30.1505017  35.6449987 105.3815006  30.1505017
  37.3929987 102.3355006  30.8365017  38.3499987 102.3355006  30.8365017
  37.1529987 103.2625006  30.8365017  35.1249987  98.5135006  13.9785017
  36.0819987  98.5135006  13.9785017  34.8849987  99.4405006  13.9785017
  34.6929987 100.0505006  18.9275017  35.6499987 100.0505006  18.9275017
  34.4529987 100.9775006  18.9275017  35.3329987 100.6055006  24.3915017
  36.2899987 100.6055006  24.3915017  35.0929987 101.5325006  24.3915017
  35.3969987 101.3265006  27.1795017  36.3539987 101.3265006  27.1795017
  35.1569987 102.2535006  27.1795017  19.6519987  99.8455006  30.6895017
  20.6089987  99.8455006  30.6895017  19.4119987 100.7725006  30.6895017
  37.6669987  95.3585006  32.5305017  38.6239987  95.3585006  32.5305017
  37.4269987  96.2855006  32.5305017  35.3679987  97.3335006  19.0025017
  36.3249987  97.3335006  19.0025017  35.1279987  98.2605006  19.0025017
  20.8549987  98.1295006  23.5505017  21.8119987  98.1295006  23.5505017
  20.6149987  99.0565006  23.5505017  19.1539987 101.1235006  24.6015017
  20.1109987 101.1235006  24.6015017  18.9139987 102.0505006  24.6015017
  37.2039987  97.4645006  30.8775017  38.1609987  97.4645006  30.8775017
  36.9639987  98.3915006  30.8775017  37.1859987  97.3695006  15.5505017
  38.1429987  97.3695006  15.5505017  36.9459987  98.2965006  15.5505017
  19.5079987  97.4075006  18.6755017  20.4649987  97.4075006  18.6755017
  19.2679987  98.3345006  18.6755017  19.4629987  96.0765006  26.9755017
  20.4199987  96.0765006  26.9755017  19.2229987  97.0035006  26.9755017
  36.1959987  95.5865006  28.7275017  37.1529987  95.5865006  28.7275017
  35.9559987  96.5135006  28.7275017  29.6139987  96.9985006  23.0175017
  30.5709987  96.9985006  23.0175017  29.3739987  97.9255006  23.0175017
  34.7469987  95.0545006  23.1065017  35.7039987  95.0545006  23.1065017
  34.5069987  95.9815006  23.1065017  36.4249987  96.2775006  21.3835017
  37.3819987  96.2775006  21.3835017  36.1849987  97.2045006  21.3835017
  21.9699987  95.6285006  20.8555017  22.9269987  95.6285006  20.8555017
  21.7299987  96.5555006  20.8555017  20.7569987  95.3875006  16.6025017
  21.7139987  95.3875006  16.6025017  20.5169987  96.3145006  16.6025017
  26.4699987  95.5475006  20.6465017  27.4269987  95.5475006  20.6465017
  26.2299987  96.4745006  20.6465017  32.1479987  95.5695006  22.2735017
  33.1049987  95.5695006  22.2735017  31.9079987  96.4965006  22.2735017
  33.4439987  95.6135006  17.9585017  34.4009987  95.6135006  17.9585017
  33.2039987  96.5405006  17.9585017  22.5909987  97.3265006  15.0875017
  23.5479987  97.3265006  15.0875017  22.3509987  98.2535006  15.0875017
  27.6189987  97.5775006  17.5055017  28.5759987  97.5775006  17.5055017
  27.3789987  98.5045006  17.5055017  21.8669987  96.1685006  30.3275017
  22.8239987  96.1685006  30.3275017  21.6269987  97.0955006  30.3275017
  23.9029987  95.5415006  31.9495017  24.8599987  95.5415006  31.9495017
  23.6629987  96.4685006  31.9495017  32.2659987  94.8335006  32.0945017
  33.2229987  94.8335006  32.0945017  32.0259987  95.7605006  32.0945017
  49.8809987 104.7815006  20.7675017  50.8379987 104.7815006  20.7675017
  49.6409987 105.7085006  20.7675017  48.7739987 104.0335006  24.2275017
  49.7309987 104.0335006  24.2275017  48.5339987 104.9605006  24.2275017
  41.1439987 103.6735006  25.7725017  42.1009987 103.6735006  25.7725017
  40.9039987 104.6005006  25.7725017  52.3459987 106.7955006  22.4295017
  53.3029987 106.7955006  22.4295017  52.1059987 107.7225006  22.4295017
  42.1819987 107.5905006  24.7005017  43.1389987 107.5905006  24.7005017
  41.9419987 108.5175006  24.7005017  38.7049987 101.7025006  19.7595017
  39.6619987 101.7025006  19.7595017  38.4649987 102.6295006  19.7595017
  39.4059987 103.9405006  21.8995017  40.3629987 103.9405006  21.8995017
  39.1659987 104.8675006  21.8995017  47.1439987 106.4075006  24.6995017
  48.1009987 106.4075006  24.6995017  46.9039987 107.3345006  24.6995017
  55.7799987  98.0695006  25.4365017  56.7369987  98.0695006  25.4365017
  55.5399987  98.9965006  25.4365017  50.3249987 100.8875006  24.9925017
  51.2819987 100.8875006  24.9925017  50.0849987 101.8145006  24.9925017
  43.4499987  98.9735006  22.2255017  44.4069987  98.9735006  22.2255017
  43.2099987  99.9005006  22.2255017  51.1799987  99.0645006  20.5965017
  52.1369987  99.0645006  20.5965017  50.9399987  99.9915006  20.5965017
  40.0689987 101.3825006  22.9645017  41.0259987 101.3825006  22.9645017
  39.8289987 102.3095006  22.9645017  45.2319987 102.9515006  22.2505017
  46.1889987 102.9515006  22.2505017  44.9919987 103.8785006  22.2505017
  56.2209987  99.4945006  27.6955017  57.1779987  99.4945006  27.6955017
  55.9809987 100.4215006  27.6955017  42.3539987  97.9005006  26.2695017
  43.3109987  97.9005006  26.2695017  42.1139987  98.8275006  26.2695017
  49.6789987 107.3815006  19.8185017  50.6359987 107.3815006  19.8185017
  49.4389987 108.3085006  19.8185017  44.8609987 105.5355006  26.5275017
  45.8179987 105.5355006  26.5275017  44.6209987 106.4625006  26.5275017
  52.9749987  98.3995006  22.5875017  53.9319987  98.3995006  22.5875017
  52.7349987  99.3265006  22.5875017  41.8929987  99.7615006  24.2635017
  42.8499987  99.7615006  24.2635017  41.6529987 100.6885006  24.2635017
  43.2929987 107.5405006  27.2555017  44.2499987 107.5405006  27.2555017
  43.0529987 108.4675006  27.2555017  39.3559987 107.0685006  18.1985017
  40.3129987 107.0685006  18.1985017  39.1159987 107.9955006  18.1985017
  53.3199987  97.0945006  26.2665017  54.2769987  97.0945006  26.2665017
  53.0799987  98.0215006  26.2665017  46.3049987  95.2045006  23.7295017
  47.2619987  95.2045006  23.7295017  46.0649987  96.1315006  23.7295017
  53.9899987 106.9525006  28.4555017  54.9469987 106.9525006  28.4555017
  53.7499987 107.8795006  28.4555017  48.5879987 103.9985006  18.2495017
  49.5449987 103.9985006  18.2495017  48.3479987 104.9255006  18.2495017
  48.6479987 102.5405006  15.2585017  49.6049987 102.5405006  15.2585017
  48.4079987 103.4675006  15.2585017  55.9679987 103.4175006  26.5325017
  56.9249987 103.4175006  26.5325017  55.7279987 104.3445006  26.5325017
  51.9959987 104.1865006  19.1595017  52.9529987 104.1865006  19.1595017
  51.7559987 105.1135006  19.1595017  51.9519987 102.3765006  28.2675017
  52.9089987 102.3765006  28.2675017  51.7119987 103.3035006  28.2675017
  43.6309987 104.8655006  21.0735017  44.5879987 104.8655006  21.0735017
  43.3909987 105.7925006  21.0735017  43.9689987 103.6445006  24.7285017
  44.9259987 103.6445006  24.7285017  43.7289987 104.5715006  24.7285017
  44.3129987   0.0125006  29.5265017  45.2699987   0.0125006  29.5265017
  44.0729987   0.9395006  29.5265017  50.8919987 103.3985006  16.8325017
  51.8489987 103.3985006  16.8325017  50.6519987 104.3255006  16.8325017
  41.8549987 104.2205006  28.6305017  42.8119987 104.2205006  28.6305017
  41.6149987 105.1475006  28.6305017  54.6149987  95.1365006  16.7095017
  55.5719987  95.1365006  16.7095017  54.3749987  96.0635006  16.7095017
  42.6219987 103.9125006  18.6955017  43.5789987 103.9125006  18.6955017
  42.3819987 104.8395006  18.6955017  38.6629987 106.3085006  27.5595017
  39.6199987 106.3085006  27.5595017  38.4229987 107.2355006  27.5595017
  53.8419987 101.2335006  30.5295017  54.7989987 101.2335006  30.5295017
  53.6019987 102.1605006  30.5295017  40.9809987 107.5705006  28.5005017
  41.9379987 107.5705006  28.5005017  40.7409987 108.4975006  28.5005017
  43.6609987  96.1165006  24.4685017  44.6179987  96.1165006  24.4685017
  43.4209987  97.0435006  24.4685017  48.2939987  95.8055006  27.8695017
  49.2509987  95.8055006  27.8695017  48.0539987  96.7325006  27.8695017
  51.5929987  99.6025006  28.7445017  52.5499987  99.6025006  28.7445017
  51.3529987 100.5295006  28.7445017  52.3449987 104.4135006  14.5835017
  53.3019987 104.4135006  14.5835017  52.1049987 105.3405006  14.5835017
  47.9469987  98.3495006  15.1525017  48.9039987  98.3495006  15.1525017
  47.7069987  99.2765006  15.1525017  43.7509987 101.0745006  25.6975017
  44.7079987 101.0745006  25.6975017  43.5109987 102.0015006  25.6975017
  43.7149987 101.2295006  20.5785017  44.6719987 101.2295006  20.5785017
  43.4749987 102.1565006  20.5785017  49.2269987 101.6985006  19.3655017
  50.1839987 101.6985006  19.3655017  48.9869987 102.6255006  19.3655017
  48.3079987 101.8995006  30.8115017  49.2649987 101.8995006  30.8115017
  48.0679987 102.8265006  30.8115017  50.2649987 101.1775006  22.2005017
  51.2219987 101.1775006  22.2005017  50.0249987 102.1045006  22.2005017
  41.3959987 101.3535006  27.4315017  42.3529987 101.3535006  27.4315017
  41.1559987 102.2805006  27.4315017  44.7789987  98.7385006  14.2685017
  45.7359987  98.7385006  14.2685017  44.5389987  99.6655006  14.2685017
  38.0409987  98.4645006  21.3755017  38.9979987  98.4645006  21.3755017
  37.8009987  99.3915006  21.3755017  39.3149987  99.1785006  16.7505017
  40.2719987  99.1785006  16.7505017  39.0749987 100.1055006  16.7505017
  49.4809987 102.7755006  26.7875017  50.4379987 102.7755006  26.7875017
  49.2409987 103.7025006  26.7875017  46.2749987  98.7395006  21.6015017
  47.2319987  98.7395006  21.6015017  46.0349987  99.6665006  21.6015017
  41.0939987 100.3145006  20.4635017  42.0509987 100.3145006  20.4635017
  40.8539987 101.2415006  20.4635017  44.7399987 100.3395006  18.0905017
  45.6969987 100.3395006  18.0905017  44.4999987 101.2665006  18.0905017
  50.6859987  97.9665006  24.8525017  51.6429987  97.9665006  24.8525017
  50.4459987  98.8935006  24.8525017  43.4309987 101.5295006  15.6845017
  44.3879987 101.5295006  15.6845017  43.1909987 102.4565006  15.6845017
  41.5769987 106.1825006  30.7275017  42.5339987 106.1825006  30.7275017
  41.3369987 107.1095006  30.7275017  47.5679987 101.5065006  23.4965017
  48.5249987 101.5065006  23.4965017  47.3279987 102.4335006  23.4965017
  42.5769987  97.6525006  19.9305017  43.5339987  97.6525006  19.9305017
  42.3369987  98.5795006  19.9305017  46.2059987  99.8455006  25.9085017
  47.1629987  99.8455006  25.9085017  45.9659987 100.7725006  25.9085017
  46.8109987 106.0905006  17.6005017  47.7679987 106.0905006  17.6005017
  46.5709987 107.0175006  17.6005017  53.9539987 105.2595006  26.3835017
  54.9109987 105.2595006  26.3835017  53.7139987 106.1865006  26.3835017
  50.6309987  98.8835006  15.7825017  51.5879987  98.8835006  15.7825017
  50.3909987  99.8105006  15.7825017  48.2619987 106.2765006  28.8365017
  49.2189987 106.2765006  28.8365017  48.0219987 107.2035006  28.8365017
  51.3599987 100.7845006  17.4255017  52.3169987 100.7845006  17.4255017
  51.1199987 101.7115006  17.4255017  41.8669987 105.4115006  23.3405017
  42.8239987 105.4115006  23.3405017  41.6269987 106.3385006  23.3405017
  48.9049987 107.5275006  16.6675017  49.8619987 107.5275006  16.6675017
  48.6649987 108.4545006  16.6675017  38.8949987 103.8525006  28.6775017
  39.8519987 103.8525006  28.6775017  38.6549987 104.7795006  28.6775017
  45.8979987 103.4065006  30.8685017  46.8549987 103.4065006  30.8685017
  45.6579987 104.3335006  30.8685017  56.2639987 100.9395006  17.1805017
  57.2209987 100.9395006  17.1805017  56.0239987 101.8665006  17.1805017
  56.2619987 106.7515006  30.0015017  57.2189987 106.7515006  30.0015017
  56.0219987 107.6785006  30.0015017  51.7459987 104.5745006  24.6925017
  52.7029987 104.5745006  24.6925017  51.5059987 105.5015006  24.6925017
  40.0329987 103.7335006  15.3645017  40.9899987 103.7335006  15.3645017
  39.7929987 104.6605006  15.3645017  45.7239987 106.5075006  20.3115017
  46.6809987 106.5075006  20.3115017  45.4839987 107.4345006  20.3115017
  49.6869987 106.8055006  26.3615017  50.6439987 106.8055006  26.3615017
  49.4469987 107.7325006  26.3615017  51.9569987 107.7465006  15.4555017
  52.9139987 107.7465006  15.4555017  51.7169987 108.6735006  15.4555017
  40.5459987  98.6155006  28.2345017  41.5029987  98.6155006  28.2345017
  40.3059987  99.5425006  28.2345017  52.7839987 106.3975006  17.6535017
  53.7409987 106.3975006  17.6535017  52.5439987 107.3245006  17.6535017
  41.4369987 105.6835006  16.8535017  42.3939987 105.6835006  16.8535017
  41.1969987 106.6105006  16.8535017  49.2669987  98.3705006  27.1475017
  50.2239987  98.3705006  27.1475017  49.0269987  99.2975006  27.1475017
  50.0269987  97.9475006  18.2515017  50.9839987  97.9475006  18.2515017
  49.7869987  98.8745006  18.2515017  47.2439987  99.7015006  19.0755017
  48.2009987  99.7015006  19.0755017  47.0039987 100.6285006  19.0755017
  47.7909987 100.7145006  28.2625017  48.7479987 100.7145006  28.2625017
  47.5509987 101.6415006  28.2625017  48.1059987  96.7575006  19.9825017
  49.0629987  96.7575006  19.9825017  47.8659987  97.6845006  19.9825017
  43.7579987  97.8505006  16.6795017  44.7149987  97.8505006  16.6795017
  43.5179987  98.7775006  16.6795017  53.9889987  98.5925006  29.1125017
  54.9459987  98.5925006  29.1125017  53.7489987  99.5195006  29.1125017
  52.5879987 102.3715006  23.1445017  53.5449987 102.3715006  23.1445017
  52.3479987 103.2985006  23.1445017  40.3399987 100.9615006  14.8675017
  41.2969987 100.9615006  14.8675017  40.0999987 101.8885006  14.8675017
  41.1649987  95.7615006  23.5765017  42.1219987  95.7615006  23.5765017
  40.9249987  96.6885006  23.5765017  39.2859987 106.0755006  31.9555017
  40.2429987 106.0755006  31.9555017  39.0459987 107.0025006  31.9555017
  43.5609987 106.4225006  14.0605017  44.5179987 106.4225006  14.0605017
  43.3209987 107.3495006  14.0605017  45.9379987 106.0405006  31.4165017
  46.8949987 106.0405006  31.4165017  45.6979987 106.9675006  31.4165017
  48.8789987 107.4795006  13.8525017  49.8359987 107.4795006  13.8525017
  48.6389987 108.4065006  13.8525017  51.6069987 105.9695006  28.8325017
  52.5639987 105.9695006  28.8325017  51.3669987 106.8965006  28.8325017
  40.1279987 103.3445006  31.4055017  41.0849987 103.3445006  31.4055017
  39.8879987 104.2715006  31.4055017  44.7729987 104.4575006  16.4425017
  45.7299987 104.4575006  16.4425017  44.5329987 105.3845006  16.4425017
  44.0489987 102.2775006  28.7735017  45.0059987 102.2775006  28.7735017
  43.8089987 103.2045006  28.7735017  45.8469987 102.6445006  14.6775017
  46.8039987 102.6445006  14.6775017  45.6069987 103.5715006  14.6775017
  49.1009987 104.8085006  32.0505017  50.0579987 104.8085006  32.0505017
  48.8609987 105.7355006  32.0505017  55.2159987 104.9925006  14.1085017
  56.1729987 104.9925006  14.1085017  54.9759987 105.9195006  14.1085017
  44.4449987  99.6545006  29.8375017  45.4019987  99.6545006  29.8375017
  44.2049987 100.5815006  29.8375017  44.8449987  98.0275006  27.3735017
  45.8019987  98.0275006  27.3735017  44.6049987  98.9545006  27.3735017
  46.4009987 103.5105006  27.6225017  47.3579987 103.5105006  27.6225017
  46.1609987 104.4375006  27.6225017  50.7879987 101.2655006  32.5995017
  51.7449987 101.2655006  32.5995017  50.5479987 102.1925006  32.5995017
  52.1299987 104.0625006  30.7275017  53.0869987 104.0625006  30.7275017
  51.8899987 104.9895006  30.7275017  42.8829987 100.8975006  31.7465017
  43.8399987 100.8975006  31.7465017  42.6429987 101.8245006  31.7465017
  45.6289987  95.4625006  27.7805017  46.5859987  95.4625006  27.7805017
  45.3889987  96.3895006  27.7805017  46.9239987  99.7495006  31.3865017
  47.8809987  99.7495006  31.3865017  46.6839987 100.6765006  31.3865017
  49.6159987  98.9355006  30.4645017  50.5729987  98.9355006  30.4645017
  49.3759987  99.8625006  30.4645017  51.2069987  97.5725006  32.3785017
  52.1639987  97.5725006  32.3785017  50.9669987  98.4995006  32.3785017
  40.9989987  98.8215006  31.4885017  41.9559987  98.8215006  31.4885017
  40.7589987  99.7485006  31.4885017  45.8719987  94.8525006  30.4735017
  46.8289987  94.8525006  30.4735017  45.6319987  95.7795006  30.4735017
  46.2799987  96.4995006  32.5415017  47.2369987  96.4995006  32.5415017
  46.0399987  97.4265006  32.5415017  39.3309987 107.7895006  15.0595017
  40.2879987 107.7895006  15.0595017  39.0909987 108.7165006  15.0595017
  54.3849987 107.3935006  32.6815017  55.3419987 107.3935006  32.6815017
  54.1449987 108.3205006  32.6815017  55.6959987 105.8665006  18.0735017
  56.6529987 105.8665006  18.0735017  55.4559987 106.7935006  18.0735017
  56.0819987 103.9635006  19.9345017  57.0389987 103.9635006  19.9345017
  55.8419987 104.8905006  19.9345017  55.8199987 106.7135006  24.8865017
  56.7769987 106.7135006  24.8865017  55.5799987 107.6405006  24.8865017
  56.3749987 103.7905006  16.3245017  57.3319987 103.7905006  16.3245017
  56.1349987 104.7175006  16.3245017  54.7419987 101.0555006  14.8415017
  55.6989987 101.0555006  14.8415017  54.5019987 101.9825006  14.8415017
  53.8969987 102.4595006  20.4965017  54.8539987 102.4595006  20.4965017
  53.6569987 103.3865006  20.4965017  38.8869987 104.5355006  24.5355017
  39.8439987 104.5355006  24.5355017  38.6469987 105.4625006  24.5355017
  54.7389987 104.4555006  30.1495017  55.6959987 104.4555006  30.1495017
  54.4989987 105.3825006  30.1495017  56.2509987 102.3365006  30.8355017
  57.2079987 102.3365006  30.8355017  56.0109987 103.2635006  30.8355017
  53.9809987  98.5135006  13.9775017  54.9379987  98.5135006  13.9775017
  53.7409987  99.4405006  13.9775017  53.5489987 100.0505006  18.9275017
  54.5059987 100.0505006  18.9275017  53.3089987 100.9775006  18.9275017
  54.1919987 100.5965006  24.3945017  55.1489987 100.5965006  24.3945017
  53.9519987 101.5235006  24.3945017  54.2579987 101.3175006  27.1795017
  55.2149987 101.3175006  27.1795017  54.0179987 102.2445006  27.1795017
  38.5099987  99.8465006  30.6925017  39.4669987  99.8465006  30.6925017
  38.2699987 100.7735006  30.6925017  56.5239987  95.3605006  32.5255017
  57.4809987  95.3605006  32.5255017  56.2839987  96.2875006  32.5255017
  54.2269987  97.3315006  19.0025017  55.1839987  97.3315006  19.0025017
  53.9869987  98.2585006  19.0025017  39.7149987  98.1345006  23.5525017
  40.6719987  98.1345006  23.5525017  39.4749987  99.0615006  23.5525017
  37.9999987 101.1295006  24.6015017  38.9569987 101.1295006  24.6015017
  37.7599987 102.0565006  24.6015017  56.0549987  97.4715006  30.8825017
  57.0119987  97.4715006  30.8825017  55.8149987  98.3985006  30.8825017
  56.0509987  97.3725006  15.5565017  57.0079987  97.3725006  15.5565017
  55.8109987  98.2995006  15.5565017  38.3669987  97.4115006  18.6745017
  39.3239987  97.4115006  18.6745017  38.1269987  98.3385006  18.6745017
  38.3199987  96.1265006  26.9905017  39.2769987  96.1265006  26.9905017
  38.0799987  97.0535006  26.9905017  55.0619987  95.5695006  28.7225017
  56.0189987  95.5695006  28.7225017  54.8219987  96.4965006  28.7225017
  48.4659987  96.9985006  23.0175017  49.4229987  96.9985006  23.0175017
  48.2259987  97.9255006  23.0175017  53.6049987  95.0575006  23.1005017
  54.5619987  95.0575006  23.1005017  53.3649987  95.9845006  23.1005017
  55.2759987  96.2815006  21.3835017  56.2329987  96.2815006  21.3835017
  55.0359987  97.2085006  21.3835017  40.8259987  95.6295006  20.8535017
  41.7829987  95.6295006  20.8535017  40.5859987  96.5565006  20.8535017
  39.6139987  95.3855006  16.6025017  40.5709987  95.3855006  16.6025017
  39.3739987  96.3125006  16.6025017  45.3269987  95.5475006  20.6455017
  46.2839987  95.5475006  20.6455017  45.0869987  96.4745006  20.6455017
  50.9949987  95.5735006  22.2855017  51.9519987  95.5735006  22.2855017
  50.7549987  96.5005006  22.2855017  52.2919987  95.6045006  17.9665017
  53.2489987  95.6045006  17.9665017  52.0519987  96.5315006  17.9665017
  41.4469987  97.3265006  15.0885017  42.4039987  97.3265006  15.0885017
  41.2069987  98.2535006  15.0885017  46.4749987  97.5815006  17.5025017
  47.4319987  97.5815006  17.5025017  46.2349987  98.5085006  17.5025017
  40.7159987  96.1865006  30.3585017  41.6729987  96.1865006  30.3585017
  40.4759987  97.1135006  30.3585017  42.7249987  95.5325006  31.9365017
  43.6819987  95.5325006  31.9365017  42.4849987  96.4595006  31.9365017
  51.1229987  94.8725006  32.1155017  52.0799987  94.8725006  32.1155017
  50.8829987  95.7995006  32.1155017  68.7349987 104.7795006  20.7765017
  69.6919987 104.7795006  20.7765017  68.4949987 105.7065006  20.7765017
  67.6499987 104.0325006  24.2475017  68.6069987 104.0325006  24.2475017
  67.4099987 104.9595006  24.2475017  59.9999987 103.6735006  25.7715017
  60.9569987 103.6735006  25.7715017  59.7599987 104.6005006  25.7715017
  71.2039987 106.8005006  22.4185017  72.1609987 106.8005006  22.4185017
  70.9639987 107.7275006  22.4185017  61.0379987 107.5905006  24.7005017
  61.9949987 107.5905006  24.7005017  60.7979987 108.5175006  24.7005017
  57.5599987 101.7025006  19.7595017  58.5169987 101.7025006  19.7595017
  57.3199987 102.6295006  19.7595017  58.2619987 103.9405006  21.8995017
  59.2189987 103.9405006  21.8995017  58.0219987 104.8675006  21.8995017
  66.0009987 106.3945006  24.7155017  66.9579987 106.3945006  24.7155017
  65.7609987 107.3215006  24.7155017  74.6359987  98.0695006  25.4365017
  75.5929987  98.0695006  25.4365017  74.3959987  98.9965006  25.4365017
  69.1659987 100.8775006  25.0245017  70.1229987 100.8775006  25.0245017
  68.9259987 101.8045006  25.0245017  62.3099987  98.9665006  22.2285017
  63.2669987  98.9665006  22.2285017  62.0699987  99.8935006  22.2285017
  70.0519987  99.0645006  20.5795017  71.0089987  99.0645006  20.5795017
  69.8119987  99.9915006  20.5795017  58.9259987 101.3825006  22.9645017
  59.8829987 101.3825006  22.9645017  58.6859987 102.3095006  22.9645017
  64.0879987 102.9505006  22.2515017  65.0449987 102.9505006  22.2515017
  63.8479987 103.8775006  22.2515017  75.0669987  99.5055006  27.6955017
  76.0239987  99.5055006  27.6955017  74.8269987 100.4325006  27.6955017
  61.1929987  97.8725006  26.2705017  62.1499987  97.8725006  26.2705017
  60.9529987  98.7995006  26.2705017  68.5359987 107.3785006  19.8245017
  69.4929987 107.3785006  19.8245017  68.2959987 108.3055006  19.8245017
  63.7349987 105.5335006  26.5435017  64.6919987 105.5335006  26.5435017
  63.4949987 106.4605006  26.5435017  71.8369987  98.4135006  22.5905017
  72.7939987  98.4135006  22.5905017  71.5969987  99.3405006  22.5905017
  60.7529987  99.7425006  24.2795017  61.7099987  99.7425006  24.2795017
  60.5129987 100.6695006  24.2795017  62.1489987 107.5405006  27.2555017
  63.1059987 107.5405006  27.2555017  61.9089987 108.4675006  27.2555017
  58.2119987 107.0685006  18.1985017  59.1689987 107.0685006  18.1985017
  57.9719987 107.9955006  18.1985017  72.1619987  97.1175006  26.3015017
  73.1189987  97.1175006  26.3015017  71.9219987  98.0445006  26.3015017
  65.1009987  95.2195006  23.7695017  66.0579987  95.2195006  23.7695017
  64.8609987  96.1465006  23.7695017  73.0169987 106.9615006  28.4095017
  73.9739987 106.9615006  28.4095017  72.7769987 107.8885006  28.4095017
  67.4499987 103.9975006  18.2495017  68.4069987 103.9975006  18.2495017
  67.2099987 104.9245006  18.2495017  67.5029987 102.5355006  15.2565017
  68.4599987 102.5355006  15.2565017  67.2629987 103.4625006  15.2565017
  74.7959987 103.3765006  26.5075017  75.7529987 103.3765006  26.5075017
  74.5559987 104.3035006  26.5075017  70.8499987 104.1815006  19.1615017
  71.8069987 104.1815006  19.1615017  70.6099987 105.1085006  19.1615017
  70.7679987 102.3725006  28.2875017  71.7249987 102.3725006  28.2875017
  70.5279987 103.2995006  28.2875017  62.4869987 104.8655006  21.0735017
  63.4439987 104.8655006  21.0735017  62.2469987 105.7925006  21.0735017
  62.8319987 103.6425006  24.7315017  63.7889987 103.6425006  24.7315017
  62.5919987 104.5695006  24.7315017  63.1709987   0.0155006  29.5295017
  64.1279987   0.0155006  29.5295017  62.9309987   0.9425006  29.5295017
  69.7459987 103.3965006  16.8345017  70.7029987 103.3965006  16.8345017
  69.5059987 104.3235006  16.8345017  60.7109987 104.2185006  28.6285017
  61.6679987 104.2185006  28.6285017  60.4709987 105.1455006  28.6285017
  73.4769987  95.1605006  16.7395017  74.4339987  95.1605006  16.7395017
  73.2369987  96.0875006  16.7395017  61.4779987 103.9125006  18.6955017
  62.4349987 103.9125006  18.6955017  61.2379987 104.8395006  18.6955017
  57.5179987 106.3095006  27.5595017  58.4749987 106.3095006  27.5595017
  57.2779987 107.2365006  27.5595017  72.6649987 101.2405006  30.5385017
  73.6219987 101.2405006  30.5385017  72.4249987 102.1675006  30.5385017
  59.8379987 107.5655006  28.4985017  60.7949987 107.5655006  28.4985017
  59.5979987 108.4925006  28.4985017  62.4889987  96.0885006  24.4825017
  63.4459987  96.0885006  24.4825017  62.2489987  97.0155006  24.4825017
  67.1669987  95.8755006  27.9145017  68.1239987  95.8755006  27.9145017
  66.9269987  96.8025006  27.9145017  70.5009987  99.6655006  28.7495017
  71.4579987  99.6655006  28.7495017  70.2609987 100.5925006  28.7495017
  71.2179987 104.4545006  14.6735017  72.1749987 104.4545006  14.6735017
  70.9779987 105.3815006  14.6735017  66.8109987  98.3535006  15.1715017
  67.7679987  98.3535006  15.1715017  66.5709987  99.2805006  15.1715017
  62.6079987 101.0755006  25.6985017  63.5649987 101.0755006  25.6985017
  62.3679987 102.0025006  25.6985017  62.5699987 101.2295006  20.5795017
  63.5269987 101.2295006  20.5795017  62.3299987 102.1565006  20.5795017
  68.0839987 101.7005006  19.3725017  69.0409987 101.7005006  19.3725017
  67.8439987 102.6275006  19.3725017  67.1939987 101.8795006  30.7635017
  68.1509987 101.8795006  30.7635017  66.9539987 102.8065006  30.7635017
  69.1219987 101.1715006  22.2045017  70.0789987 101.1715006  22.2045017
  68.8819987 102.0985006  22.2045017  60.2539987 101.3535006  27.4315017
  61.2109987 101.3535006  27.4315017  60.0139987 102.2805006  27.4315017
  63.6349987  98.8125006  14.3035017  64.5919987  98.8125006  14.3035017
  63.3949987  99.7395006  14.3035017  56.8949987  98.4655006  21.3775017
  57.8519987  98.4655006  21.3775017  56.6549987  99.3925006  21.3775017
  58.1679987  99.1785006  16.7525017  59.1249987  99.1785006  16.7525017
  57.9279987 100.1055006  16.7525017  68.3919987 102.7805006  26.8405017
  69.3489987 102.7805006  26.8405017  68.1519987 103.7075006  26.8405017
  65.1239987  98.7785006  21.5945017  66.0809987  98.7785006  21.5945017
  64.8839987  99.7055006  21.5945017  59.9499987 100.3135006  20.4645017
  60.9069987 100.3135006  20.4645017  59.7099987 101.2405006  20.4645017
  63.5859987 100.3615006  18.1215017  64.5429987 100.3615006  18.1215017
  63.3459987 101.2885006  18.1215017  69.5969987  97.9995006  24.8175017
  70.5539987  97.9995006  24.8175017  69.3569987  98.9265006  24.8175017
  62.2769987 101.5545006  15.6865017  63.2339987 101.5545006  15.6865017
  62.0369987 102.4815006  15.6865017  60.4349987 106.1835006  30.7265017
  61.3919987 106.1835006  30.7265017  60.1949987 107.1105006  30.7265017
  66.4259987 101.5125006  23.4935017  67.3829987 101.5125006  23.4935017
  66.1859987 102.4395006  23.4935017  61.4409987  97.6475006  19.9385017
  62.3979987  97.6475006  19.9385017  61.2009987  98.5745006  19.9385017
  65.0699987  99.8395006  25.9365017  66.0269987  99.8395006  25.9365017
  64.8299987 100.7665006  25.9365017  65.6669987 106.0905006  17.6005017
  66.6239987 106.0905006  17.6005017  65.4269987 107.0175006  17.6005017
  72.7549987 105.2585006  26.3905017  73.7119987 105.2585006  26.3905017
  72.5149987 106.1855006  26.3905017  69.5109987  98.8905006  15.7965017
  70.4679987  98.8905006  15.7965017  69.2709987  99.8175006  15.7965017
  67.0859987 106.2975006  28.8555017  68.0429987 106.2975006  28.8555017
  66.8459987 107.2245006  28.8555017  70.2329987 100.7695006  17.4145017
  71.1899987 100.7695006  17.4145017  69.9929987 101.6965006  17.4145017
  60.7229987 105.4115006  23.3405017  61.6799987 105.4115006  23.3405017
  60.4829987 106.3385006  23.3405017  67.7609987 107.5265006  16.6675017
  68.7179987 107.5265006  16.6675017  67.5209987 108.4535006  16.6675017
  57.7509987 103.8525006  28.6765017  58.7079987 103.8525006  28.6765017
  57.5109987 104.7795006  28.6765017  64.7559987 103.4265006  30.8585017
  65.7129987 103.4265006  30.8585017  64.5159987 104.3535006  30.8585017
  75.0839987 100.9245006  17.1785017  76.0409987 100.9245006  17.1785017
  74.8439987 101.8515006  17.1785017  75.1319987 106.7855006  30.0455017
  76.0889987 106.7855006  30.0455017  74.8919987 107.7125006  30.0455017
  70.5829987 104.5625006  24.7255017  71.5399987 104.5625006  24.7255017
  70.3429987 105.4895006  24.7255017  58.8879987 103.7325006  15.3645017
  59.8449987 103.7325006  15.3645017  58.6479987 104.6595006  15.3645017
  64.5799987 106.5075006  20.3125017  65.5369987 106.5075006  20.3125017
  64.3399987 107.4345006  20.3125017  68.5899987 106.8115006  26.3835017
  69.5469987 106.8115006  26.3835017  68.3499987 107.7385006  26.3835017
  70.8079987 107.7395006  15.4475017  71.7649987 107.7395006  15.4475017
  70.5679987 108.6665006  15.4475017  59.3989987  98.5945006  28.2185017
  60.3559987  98.5945006  28.2185017  59.1589987  99.5215006  28.2185017
  71.6429987 106.4025006  17.6605017  72.5999987 106.4025006  17.6605017
  71.4029987 107.3295006  17.6605017  60.2929987 105.6835006  16.8525017
  61.2499987 105.6835006  16.8525017  60.0529987 106.6105006  16.8525017
  67.9909987  98.2045006  26.7055017  68.9479987  98.2045006  26.7055017
  67.7509987  99.1315006  26.7055017  68.9199987  97.9405006  18.2425017
  69.8769987  97.9405006  18.2425017  68.6799987  98.8675006  18.2425017
  66.0839987  99.7315006  19.0675017  67.0409987  99.7315006  19.0675017
  65.8439987 100.6585006  19.0675017  66.6539987 100.7275006  28.2515017
  67.6109987 100.7275006  28.2515017  66.4139987 101.6545006  28.2515017
  66.8339987  96.9045006  19.7855017  67.7909987  96.9045006  19.7855017
  66.5939987  97.8315006  19.7855017  62.6119987  97.8645006  16.6695017
  63.5689987  97.8645006  16.6695017  62.3719987  98.7915006  16.6695017
  72.8449987  98.5645006  29.1085017  73.8019987  98.5645006  29.1085017
  72.6049987  99.4915006  29.1085017  71.4429987 102.3745006  23.1435017
  72.3999987 102.3745006  23.1435017  71.2029987 103.3015006  23.1435017
  59.1959987 100.9605006  14.8675017  60.1529987 100.9605006  14.8675017
  58.9559987 101.8875006  14.8675017  60.0539987  95.7175006  23.5595017
  61.0109987  95.7175006  23.5595017  59.8139987  96.6445006  23.5595017
  58.1519987 106.0745006  31.9455017  59.1089987 106.0745006  31.9455017
  57.9119987 107.0015006  31.9455017  62.4169987 106.4225006  14.0605017
  63.3739987 106.4225006  14.0605017  62.1769987 107.3495006  14.0605017
  64.8219987 106.0385006  31.4025017  65.7789987 106.0385006  31.4025017
  64.5819987 106.9655006  31.4025017  67.7239987 107.4905006  13.8525017
  68.6809987 107.4905006  13.8525017  67.4839987 108.4175006  13.8525017
  70.7839987 106.3025006  29.2115017  71.7409987 106.3025006  29.2115017
  70.5439987 107.2295006  29.2115017  58.9939987 103.3335006  31.4025017
  59.9509987 103.3335006  31.4025017  58.7539987 104.2605006  31.4025017
  63.6309987 104.4585006  16.4455017  64.5879987 104.4585006  16.4455017
  63.3909987 105.3855006  16.4455017  62.9059987 102.2785006  28.7735017
  63.8629987 102.2785006  28.7735017  62.6659987 103.2055006  28.7735017
  64.7079987 102.6475006  14.6775017  65.6649987 102.6475006  14.6775017
  64.4679987 103.5745006  14.6775017  67.9719987 104.7935006  32.0005017
  68.9289987 104.7935006  32.0005017  67.7319987 105.7205006  32.0005017
  74.0509987 105.0215006  14.1725017  75.0079987 105.0215006  14.1725017
  73.8109987 105.9485006  14.1725017  63.3269987  99.6555006  29.8405017
  64.2839987  99.6555006  29.8405017  63.0869987 100.5825006  29.8405017
  63.7209987  98.0345006  27.3805017  64.6779987  98.0345006  27.3805017
  63.4809987  98.9615006  27.3805017  65.3269987 103.5385006  27.6495017
  66.2839987 103.5385006  27.6495017  65.0869987 104.4655006  27.6495017
  69.6569987 101.3035006  32.5675017  70.6139987 101.3035006  32.5675017
  69.4169987 102.2305006  32.5675017  70.9839987 104.0505006  30.6735017
  71.9409987 104.0505006  30.6735017  70.7439987 104.9775006  30.6735017
  61.7559987 100.8905006  31.7565017  62.7129987 100.8905006  31.7565017
  61.5159987 101.8175006  31.7565017  64.5159987  95.4945006  27.7965017
  65.4729987  95.4945006  27.7965017  64.2759987  96.4215006  27.7965017
  65.7589987  99.7735006  31.3565017  66.7159987  99.7735006  31.3565017
  65.5189987 100.7005006  31.3565017  68.4149987  99.1715006  31.1185017
  69.3719987  99.1715006  31.1185017  68.1749987 100.0985006  31.1185017
  70.0629987  97.5425006  32.3645017  71.0199987  97.5425006  32.3645017
  69.8229987  98.4695006  32.3645017  59.8539987  98.8205006  31.4875017
  60.8109987  98.8205006  31.4875017  59.6139987  99.7475006  31.4875017
  64.7339987  94.8615006  30.4595017  65.6909987  94.8615006  30.4595017
  64.4939987  95.7885006  30.4595017  65.0879987  96.4835006  32.5475017
  66.0449987  96.4835006  32.5475017  64.8479987  97.4105006  32.5475017
  58.1859987 107.7915006  15.0585017  59.1429987 107.7915006  15.0585017
  57.9459987 108.7185006  15.0585017  73.1589987 107.5695006  32.5985017
  74.1159987 107.5695006  32.5985017  72.9189987 108.4965006  32.5985017
  74.5519987 105.8665006  18.0735017  75.5089987 105.8665006  18.0735017
  74.3119987 106.7935006  18.0735017  74.9389987 103.9655006  19.9345017
  75.8959987 103.9655006  19.9345017  74.6989987 104.8925006  19.9345017
  74.6499987 106.7015006  24.8335017  75.6069987 106.7015006  24.8335017
  74.4099987 107.6285006  24.8335017  75.2159987 103.7755006  16.3265017
  76.1729987 103.7755006  16.3265017  74.9759987 104.7025006  16.3265017
  73.5979987 101.0295006  14.8575017  74.5549987 101.0295006  14.8575017
  73.3579987 101.9565006  14.8575017  72.7539987 102.4485006  20.4845017
  73.7109987 102.4485006  20.4845017  72.5139987 103.3755006  20.4845017
  57.7429987 104.5355006  24.5355017  58.6999987 104.5355006  24.5355017
  57.5029987 105.4625006  24.5355017  73.5909987 104.4495006  30.1465017
  74.5479987 104.4495006  30.1465017  73.3509987 105.3765006  30.1465017
  75.0999987 102.3305006  30.8405017  76.0569987 102.3305006  30.8405017
  74.8599987 103.2575006  30.8405017  72.8399987  98.5255006  14.0115017
  73.7969987  98.5255006  14.0115017  72.5999987  99.4525006  14.0115017
  72.4089987 100.0245006  18.8695017  73.3659987 100.0245006  18.8695017
  72.1689987 100.9515006  18.8695017  73.0489987 100.5965006  24.3925017
  74.0059987 100.5965006  24.3925017  72.8089987 101.5235006  24.3925017
  73.0959987 101.3075006  27.1795017  74.0529987 101.3075006  27.1795017
  72.8559987 102.2345006  27.1795017  57.3709987  99.8485006  30.6895017
  58.3279987  99.8485006  30.6895017  57.1309987 100.7755006  30.6895017
  75.3809987  95.3605006  32.5325017  76.3379987  95.3605006  32.5325017
  75.1409987  96.2875006  32.5325017  73.0789987  97.3155006  18.9905017
  74.0359987  97.3155006  18.9905017  72.8389987  98.2425006  18.9905017
  58.5709987  98.1385006  23.5465017  59.5279987  98.1385006  23.5465017
  58.3309987  99.0655006  23.5465017  56.8559987 101.1285006  24.6005017
  57.8129987 101.1285006  24.6005017  56.6159987 102.0555006  24.6005017
  74.9179987  97.4695006  30.8835017  75.8749987  97.4695006  30.8835017
  74.6779987  98.3965006  30.8835017  75.0029987  97.3145006  15.4865017
  75.9599987  97.3145006  15.4865017  74.7629987  98.2415006  15.4865017
  57.2259987  97.4025006  18.6775017  58.1829987  97.4025006  18.6775017
  56.9859987  98.3295006  18.6775017  57.1709987  96.0715006  26.9745017
  58.1279987  96.0715006  26.9745017  56.9309987  96.9985006  26.9745017
  73.9359987  95.5585006  28.7205017  74.8929987  95.5585006  28.7205017
  73.6959987  96.4855006  28.7205017  67.2629987  97.3105006  23.2245017
  68.2199987  97.3105006  23.2245017  67.0229987  98.2375006  23.2245017
  72.5219987  95.0645006  23.1345017  73.4789987  95.0645006  23.1345017
  72.2819987  95.9915006  23.1345017  74.1279987  96.2925006  21.3405017
  75.0849987  96.2925006  21.3405017  73.8879987  97.2195006  21.3405017
  59.6839987  95.6075006  20.8585017  60.6409987  95.6075006  20.8585017
  59.4439987  96.5345006  20.8585017  58.4659987  95.3885006  16.5935017
  59.4229987  95.3885006  16.5935017  58.2259987  96.3155006  16.5935017
  64.1639987  95.5485006  20.6575017  65.1209987  95.5485006  20.6575017
  63.9239987  96.4755006  20.6575017  70.1709987  95.5535006  22.2545017
  71.1279987  95.5535006  22.2545017  69.9309987  96.4805006  22.2545017
  71.1539987  95.6155006  17.9495017  72.1109987  95.6155006  17.9495017
  70.9139987  96.5425006  17.9495017  60.3039987  97.3265006  15.0875017
  61.2609987  97.3265006  15.0875017  60.0639987  98.2535006  15.0875017
  65.3089987  97.5825006  17.5215017  66.2659987  97.5825006  17.5215017
  65.0689987  98.5095006  17.5215017  59.5819987  96.1585006  30.3145017
  60.5389987  96.1585006  30.3145017  59.3419987  97.0855006  30.3145017
  61.5809987  95.5285006  31.9325017  62.5379987  95.5285006  31.9325017
  61.3409987  96.4555006  31.9325017  69.9889987  94.8405006  32.0875017
  70.9459987  94.8405006  32.0875017  69.7489987  95.7675006  32.0875017
  87.5929987 104.7805006  20.7675017  88.5499987 104.7805006  20.7675017
  87.3529987 105.7075006  20.7675017  86.4859987 104.0325006  24.2275017
  87.4429987 104.0325006  24.2275017  86.2459987 104.9595006  24.2275017
  78.8809987 103.6475006  25.7485017  79.8379987 103.6475006  25.7485017
  78.6409987 104.5745006  25.7485017  90.0519987 106.7985006  22.4275017
  91.0089987 106.7985006  22.4275017  89.8119987 107.7255006  22.4275017
  79.9929987 107.5905006  24.6385017  80.9499987 107.5905006  24.6385017
  79.7529987 108.5175006  24.6385017  76.4159987 101.7015006  19.7545017
  77.3729987 101.7015006  19.7545017  76.1759987 102.6285006  19.7545017
  77.1129987 103.9295006  21.8835017  78.0699987 103.9295006  21.8835017
  76.8729987 104.8565006  21.8835017  84.8549987 106.4095006  24.7005017
  85.8119987 106.4095006  24.7005017  84.6149987 107.3365006  24.7005017
  93.4919987  98.0685006  25.4355017  94.4489987  98.0685006  25.4355017
  93.2519987  98.9955006  25.4355017  88.0369987 100.8885006  24.9925017
  88.9939987 100.8885006  24.9925017  87.7969987 101.8155006  24.9925017
  81.1609987  98.9745006  22.2265017  82.1179987  98.9745006  22.2265017
  80.9209987  99.9015006  22.2265017  88.8909987  99.0655006  20.5985017
  89.8479987  99.0655006  20.5985017  88.6509987  99.9925006  20.5985017
  77.7819987 101.3815006  22.9645017  78.7389987 101.3815006  22.9645017
  77.5419987 102.3085006  22.9645017  82.9439987 102.9495006  22.2495017
  83.9009987 102.9495006  22.2495017  82.7039987 103.8765006  22.2495017
  93.9309987  99.5025006  27.6955017  94.8879987  99.5025006  27.6955017
  93.6909987 100.4295006  27.6955017  80.0459987  97.8735006  26.2705017
  81.0029987  97.8735006  26.2705017  79.8059987  98.8005006  26.2705017
  87.3869987 107.3785006  19.8195017  88.3439987 107.3785006  19.8195017
  87.1469987 108.3055006  19.8195017  82.5829987 105.5315006  26.5305017
  83.5399987 105.5315006  26.5305017  82.3429987 106.4585006  26.5305017
  90.6859987  98.4005006  22.5885017  91.6429987  98.4005006  22.5885017
  90.4459987  99.3275006  22.5885017  79.6089987  99.7425006  24.2795017
  80.5659987  99.7425006  24.2795017  79.3689987 100.6695006  24.2795017
  81.0149987 107.5365006  27.2575017  81.9719987 107.5365006  27.2575017
  80.7749987 108.4635006  27.2575017  77.0669987 107.0675006  18.1955017
  78.0239987 107.0675006  18.1955017  76.8269987 107.9945006  18.1955017
  91.0329987  97.0915006  26.2695017  91.9899987  97.0915006  26.2695017
  90.7929987  98.0185006  26.2695017  84.0149987  95.2035006  23.7285017
  84.9719987  95.2035006  23.7285017  83.7749987  96.1305006  23.7285017
  91.7079987 106.9595006  28.4635017  92.6649987 106.9595006  28.4635017
  91.4679987 107.8865006  28.4635017  86.2999987 103.9985006  18.2495017
  87.2569987 103.9985006  18.2495017  86.0599987 104.9255006  18.2495017
  86.3599987 102.5405006  15.2585017  87.3169987 102.5405006  15.2585017
  86.1199987 103.4675006  15.2585017  93.6809987 103.4185006  26.5345017
  94.6379987 103.4185006  26.5345017  93.4409987 104.3455006  26.5345017
  89.7089987 104.1845006  19.1575017  90.6659987 104.1845006  19.1575017
  89.4689987 105.1115006  19.1575017  89.6639987 102.3775006  28.2685017
  90.6209987 102.3775006  28.2685017  89.4239987 103.3045006  28.2685017
  81.3429987 104.8655006  21.0745017  82.2999987 104.8655006  21.0745017
  81.1029987 105.7925006  21.0745017  81.6949987 103.6315006  24.7285017
  82.6519987 103.6315006  24.7285017  81.4549987 104.5585006  24.7285017
  82.0589987   0.0075006  29.5265017  83.0159987   0.0075006  29.5265017
  81.8189987   0.9345006  29.5265017  88.6039987 103.3985006  16.8315017
  89.5609987 103.3985006  16.8315017  88.3639987 104.3255006  16.8315017
  79.5659987 104.2005006  28.6435017  80.5229987 104.2005006  28.6435017
  79.3259987 105.1275006  28.6435017  92.3299987  95.1405006  16.7185017
  93.2869987  95.1405006  16.7185017  92.0899987  96.0675006  16.7185017
  80.3329987 103.9105006  18.6955017  81.2899987 103.9105006  18.6955017
  80.0929987 104.8375006  18.6955017  75.7759987 105.9795006  27.6345017
  76.7329987 105.9795006  27.6345017  75.5359987 106.9065006  27.6345017
  91.5529987 101.2345006  30.5295017  92.5099987 101.2345006  30.5295017
  91.3129987 102.1615006  30.5295017  78.9479987 107.6235006  28.8865017
  79.9049987 107.6235006  28.8865017  78.7079987 108.5505006  28.8865017
  81.3639987  96.0995006  24.4905017  82.3209987  96.0995006  24.4905017
  81.1239987  97.0265006  24.4905017  86.0079987  95.7905006  27.8545017
  86.9649987  95.7905006  27.8545017  85.7679987  96.7175006  27.8545017
  89.3089987  99.6085006  28.7425017  90.2659987  99.6085006  28.7425017
  89.0689987 100.5355006  28.7425017  90.0559987 104.4135006  14.5825017
  91.0129987 104.4135006  14.5825017  89.8159987 105.3405006  14.5825017
  85.6539987  98.3445006  15.1475017  86.6109987  98.3445006  15.1475017
  85.4139987  99.2715006  15.1475017  81.4629987 101.0745006  25.6985017
  82.4199987 101.0745006  25.6985017  81.2229987 102.0015006  25.6985017
  81.4269987 101.2295006  20.5785017  82.3839987 101.2295006  20.5785017
  81.1869987 102.1565006  20.5785017  86.9409987 101.6975006  19.3665017
  87.8979987 101.6975006  19.3665017  86.7009987 102.6245006  19.3665017
  86.0199987 101.9125006  30.8125017  86.9769987 101.9125006  30.8125017
  85.7799987 102.8395006  30.8125017  87.9779987 101.1795006  22.2005017
  88.9349987 101.1795006  22.2005017  87.7379987 102.1065006  22.2005017
  79.1099987 101.3545006  27.4325017  80.0669987 101.3545006  27.4325017
  78.8699987 102.2815006  27.4325017  82.4909987  98.7385006  14.2685017
  83.4479987  98.7385006  14.2685017  82.2509987  99.6655006  14.2685017
  75.7429987  98.4665006  21.3425017  76.6999987  98.4665006  21.3425017
  75.5029987  99.3935006  21.3425017  76.9919987  99.1675006  16.7405017
  77.9489987  99.1675006  16.7405017  76.7519987 100.0945006  16.7405017
  87.1929987 102.7755006  26.7875017  88.1499987 102.7755006  26.7875017
  86.9529987 103.7025006  26.7875017  83.9909987  98.7395006  21.5995017
  84.9479987  98.7395006  21.5995017  83.7509987  99.6665006  21.5995017
  78.8119987 100.3155006  20.4665017  79.7689987 100.3155006  20.4665017
  78.5719987 101.2425006  20.4665017  82.4519987 100.3395006  18.0895017
  83.4089987 100.3395006  18.0895017  82.2119987 101.2665006  18.0895017
  88.3969987  97.9765006  24.8495017  89.3539987  97.9765006  24.8495017
  88.1569987  98.9035006  24.8495017  81.1439987 101.5305006  15.6845017
  82.1009987 101.5305006  15.6845017  80.9039987 102.4575006  15.6845017
  79.3059987 106.0485006  30.8085017  80.2629987 106.0485006  30.8085017
  79.0659987 106.9755006  30.8085017  85.2779987 101.5055006  23.4955017
  86.2349987 101.5055006  23.4955017  85.0379987 102.4325006  23.4955017
  80.2899987  97.6525006  19.9295017  81.2469987  97.6525006  19.9295017
  80.0499987  98.5795006  19.9295017  83.9169987  99.8455006  25.9085017
  84.8739987  99.8455006  25.9085017  83.6769987 100.7725006  25.9085017
  84.5179987 106.1075006  17.6025017  85.4749987 106.1075006  17.6025017
  84.2779987 107.0345006  17.6025017  91.6649987 105.2615006  26.3855017
  92.6219987 105.2615006  26.3855017  91.4249987 106.1885006  26.3855017
  88.3319987  98.8825006  15.8145017  89.2889987  98.8825006  15.8145017
  88.0919987  99.8095006  15.8145017  85.9739987 106.2765006  28.8365017
  86.9309987 106.2765006  28.8365017  85.7339987 107.2035006  28.8365017
  89.0729987 100.7895006  17.4275017  90.0299987 100.7895006  17.4275017
  88.8329987 101.7165006  17.4275017  79.5729987 105.4005006  23.3295017
  80.5299987 105.4005006  23.3295017  79.3329987 106.3275006  23.3295017
  86.6179987 107.5275006  16.6735017  87.5749987 107.5275006  16.6735017
  86.3779987 108.4545006  16.6735017  76.6409987 103.8015006  28.6825017
  77.5979987 103.8015006  28.6825017  76.4009987 104.7285006  28.6825017
  83.6099987 103.4075006  30.8675017  84.5669987 103.4075006  30.8675017
  83.3699987 104.3345006  30.8675017  93.9779987 100.9365006  17.1795017
  94.9349987 100.9365006  17.1795017  93.7379987 101.8635006  17.1795017
  93.9739987 106.7715006  30.0055017  94.9309987 106.7715006  30.0055017
  93.7339987 107.6985006  30.0055017  89.4579987 104.5755006  24.6925017
  90.4149987 104.5755006  24.6925017  89.2179987 105.5025006  24.6925017
  77.7439987 103.7305006  15.3685017  78.7009987 103.7305006  15.3685017
  77.5039987 104.6575006  15.3685017  83.4379987 106.5295006  20.3135017
  84.3949987 106.5295006  20.3135017  83.1979987 107.4565006  20.3135017
  87.4039987 106.8085006  26.3665017  88.3609987 106.8085006  26.3665017
  87.1639987 107.7355006  26.3665017  89.6679987 107.7495006  15.4565017
  90.6249987 107.7495006  15.4565017  89.4279987 108.6765006  15.4565017
  78.2519987  98.5975006  28.2205017  79.2089987  98.5975006  28.2205017
  78.0119987  99.5245006  28.2205017  90.4969987 106.3975006  17.6545017
  91.4539987 106.3975006  17.6545017  90.2569987 107.3245006  17.6545017
  79.1489987 105.6825006  16.8525017  80.1059987 105.6825006  16.8525017
  78.9089987 106.6095006  16.8525017  86.9769987  98.3635006  27.1585017
  87.9339987  98.3635006  27.1585017  86.7369987  99.2905006  27.1585017
  87.7239987  97.9615006  18.2665017  88.6809987  97.9615006  18.2665017
  87.4839987  98.8885006  18.2665017  84.9559987  99.7015006  19.0755017
  85.9129987  99.7015006  19.0755017  84.7159987 100.6285006  19.0755017
  85.5059987 100.7115006  28.2635017  86.4629987 100.7115006  28.2635017
  85.2659987 101.6385006  28.2635017  85.8169987  96.7575006  19.9805017
  86.7739987  96.7575006  19.9805017  85.5769987  97.6845006  19.9805017
  81.4699987  97.8515006  16.6805017  82.4269987  97.8515006  16.6805017
  81.2299987  98.7785006  16.6805017  91.7009987  98.5905006  29.1125017
  92.6579987  98.5905006  29.1125017  91.4609987  99.5175006  29.1125017
  90.2999987 102.3715006  23.1445017  91.2569987 102.3715006  23.1445017
  90.0599987 103.2985006  23.1445017  78.0319987 100.9525006  14.8685017
  78.9889987 100.9525006  14.8685017  77.7919987 101.8795006  14.8685017
  78.8649987  95.7515006  23.5865017  79.8219987  95.7515006  23.5865017
  78.6249987  96.6785006  23.5865017  76.9809987 106.0705006  31.9715017
  77.9379987 106.0705006  31.9715017  76.7409987 106.9975006  31.9715017
  81.2709987 106.4175006  14.0765017  82.2279987 106.4175006  14.0765017
  81.0309987 107.3445006  14.0765017  83.6519987 106.0395006  31.4185017
  84.6089987 106.0395006  31.4185017  83.4119987 106.9665006  31.4185017
  86.5989987 107.4895006  13.8665017  87.5559987 107.4895006  13.8665017
  86.3589987 108.4165006  13.8665017  89.3159987 105.9655006  28.8315017
  90.2729987 105.9655006  28.8315017  89.0759987 106.8925006  28.8315017
  77.8359987 103.3425006  31.4045017  78.7929987 103.3425006  31.4045017
  77.5959987 104.2695006  31.4045017  82.4839987 104.4585006  16.4425017
  83.4409987 104.4585006  16.4425017  82.2439987 105.3855006  16.4425017
  81.7649987 102.2735006  28.7725017  82.7219987 102.2735006  28.7725017
  81.5249987 103.2005006  28.7725017  83.5579987 102.6445006  14.6775017
  84.5149987 102.6445006  14.6775017  83.3179987 103.5715006  14.6775017
  86.8119987 104.8095006  32.0515017  87.7689987 104.8095006  32.0515017
  86.5719987 105.7365006  32.0515017  92.9269987 104.9925006  14.1075017
  93.8839987 104.9925006  14.1075017  92.6869987 105.9195006  14.1075017
  82.1569987  99.6525006  29.8405017  83.1139987  99.6525006  29.8405017
  81.9169987 100.5795006  29.8405017  82.5549987  98.0295006  27.3735017
  83.5119987  98.0295006  27.3735017  82.3149987  98.9565006  27.3735017
  84.1129987 103.5105006  27.6225017  85.0699987 103.5105006  27.6225017
  83.8729987 104.4375006  27.6225017  88.5039987 101.2775006  32.5965017
  89.4609987 101.2775006  32.5965017  88.2639987 102.2045006  32.5965017
  89.8439987 104.0625006  30.7275017  90.8009987 104.0625006  30.7275017
  89.6039987 104.9895006  30.7275017  80.6099987 100.8835006  31.7605017
  81.5669987 100.8835006  31.7605017  80.3699987 101.8105006  31.7605017
  83.3499987  95.4685006  27.7795017  84.3069987  95.4685006  27.7795017
  83.1099987  96.3955006  27.7795017  84.6209987  99.7985006  31.3785017
  85.5779987  99.7985006  31.3785017  84.3809987 100.7255006  31.3785017
  87.3379987  98.9325006  30.4555017  88.2949987  98.9325006  30.4555017
  87.0979987  99.8595006  30.4555017  88.9349987  97.5615006  32.3995017
  89.8919987  97.5615006  32.3995017  88.6949987  98.4885006  32.3995017
  78.7089987  98.8205006  31.4875017  79.6659987  98.8205006  31.4875017
  78.4689987  99.7475006  31.4875017  83.5599987  94.8365006  30.4715017
  84.5169987  94.8365006  30.4715017  83.3199987  95.7635006  30.4715017
  83.9269987  96.4705006  32.5605017  84.8839987  96.4705006  32.5605017
  83.6869987  97.3975006  32.5605017  77.0509987 107.7995006  15.0625017
  78.0079987 107.7995006  15.0625017  76.8109987 108.7265006  15.0625017
  92.0189987 107.5655006  32.5815017  92.9759987 107.5655006  32.5815017
  91.7789987 108.4925006  32.5815017  93.4079987 105.8665006  18.0735017
  94.3649987 105.8665006  18.0735017  93.1679987 106.7935006  18.0735017
  93.7939987 103.9645006  19.9335017  94.7509987 103.9645006  19.9335017
  93.5539987 104.8915006  19.9335017  93.5319987 106.7145006  24.8875017
  94.4889987 106.7145006  24.8875017  93.2919987 107.6415006  24.8875017
  94.0869987 103.7915006  16.3245017  95.0439987 103.7915006  16.3245017
  93.8469987 104.7185006  16.3245017  92.4539987 101.0505006  14.8405017
  93.4109987 101.0505006  14.8405017  92.2139987 101.9775006  14.8405017
  91.6089987 102.4595006  20.4965017  92.5659987 102.4595006  20.4965017
  91.3689987 103.3865006  20.4965017  76.5979987 104.5005006  24.5355017
  77.5549987 104.5005006  24.5355017  76.3579987 105.4275006  24.5355017
  92.4499987 104.4545006  30.1475017  93.4069987 104.4545006  30.1475017
  92.2099987 105.3815006  30.1475017  93.9609987 102.3275006  30.8745017
  94.9179987 102.3275006  30.8745017  93.7209987 103.2545006  30.8745017
  91.6889987  98.5095006  13.9815017  92.6459987  98.5095006  13.9815017
  91.4489987  99.4365006  13.9815017  91.2609987 100.0505006  18.9275017
  92.2179987 100.0505006  18.9275017  91.0209987 100.9775006  18.9275017
  91.9039987 100.5935006  24.3955017  92.8609987 100.5935006  24.3955017
  91.6639987 101.5205006  24.3955017  91.9709987 101.3165006  27.1805017
  92.9279987 101.3165006  27.1805017  91.7309987 102.2435006  27.1805017
  76.2199987  99.8485006  30.6925017  77.1769987  99.8485006  30.6925017
  75.9799987 100.7755006  30.6925017  94.2369987  95.3645006  32.5315017
  95.1939987  95.3645006  32.5315017  93.9969987  96.2915006  32.5315017
  91.9349987  97.3315006  18.9995017  92.8919987  97.3315006  18.9995017
  91.6949987  98.2585006  18.9995017  77.4229987  98.1395006  23.5505017
  78.3799987  98.1395006  23.5505017  77.1829987  99.0665006  23.5505017
  75.7139987 101.1205006  24.5975017  76.6709987 101.1205006  24.5975017
  75.4739987 102.0475006  24.5975017  93.7669987  97.4725006  30.8815017
  94.7239987  97.4725006  30.8815017  93.5269987  98.3995006  30.8815017
  93.7699987  97.3745006  15.5615017  94.7269987  97.3745006  15.5615017
  93.5299987  98.3015006  15.5615017  76.0759987  97.4025006  18.6575017
  77.0329987  97.4025006  18.6575017  75.8359987  98.3295006  18.6575017
  76.0299987  96.0775006  26.9785017  76.9869987  96.0775006  26.9785017
  75.7899987  97.0045006  26.9785017  92.7799987  95.5665006  28.7185017
  93.7369987  95.5665006  28.7185017  92.5399987  96.4935006  28.7185017
  86.1789987  96.9985006  23.0185017  87.1359987  96.9985006  23.0185017
  85.9389987  97.9255006  23.0185017  91.3129987  95.0585006  23.1005017
  92.2699987  95.0585006  23.1005017  91.0729987  95.9855006  23.1005017
  92.9919987  96.2775006  21.3875017  93.9489987  96.2775006  21.3875017
  92.7519987  97.2045006  21.3875017  78.5379987  95.6295006  20.8555017
  79.4949987  95.6295006  20.8555017  78.2979987  96.5565006  20.8555017
  77.3139987  95.3835006  16.5895017  78.2709987  95.3835006  16.5895017
  77.0739987  96.3105006  16.5895017  83.0389987  95.5485006  20.6455017
  83.9959987  95.5485006  20.6455017  82.7989987  96.4755006  20.6455017
  88.7059987  95.5735006  22.2845017  89.6629987  95.5735006  22.2845017
  88.4659987  96.5005006  22.2845017  90.0049987  95.6125006  17.9925017
  90.9619987  95.6125006  17.9925017  89.7649987  96.5395006  17.9925017
  79.1569987  97.3295006  15.0895017  80.1139987  97.3295006  15.0895017
  78.9169987  98.2565006  15.0895017  84.1859987  97.5815006  17.5025017
  85.1429987  97.5815006  17.5025017  83.9459987  98.5085006  17.5025017
  78.4359987  96.1615006  30.3195017  79.3929987  96.1615006  30.3195017
  78.1959987  97.0885006  30.3195017  80.4409987  95.5355006  31.9325017
  81.3979987  95.5355006  31.9325017  80.2009987  96.4625006  31.9325017
  88.8449987  94.8405006  32.1005017  89.8019987  94.8405006  32.1005017
  88.6049987  95.7675006  32.1005017 106.4129987 104.7755006  20.7575017
 107.3699987 104.7755006  20.7575017 106.1729987 105.7025006  20.7575017
 105.2109987 104.0455006  24.2545017 106.1679987 104.0455006  24.2545017
 104.9709987 104.9725006  24.2545017  97.7489987 103.6515006  25.7495017
  98.7059987 103.6515006  25.7495017  97.5089987 104.5785006  25.7495017
  98.7489987 107.5945006  24.7015017  99.7059987 107.5945006  24.7015017
  98.5089987 108.5215006  24.7015017  95.2729987 101.7025006  19.7595017
  96.2299987 101.7025006  19.7595017  95.0329987 102.6295006  19.7595017
  95.9779987 103.9415006  21.9025017  96.9349987 103.9415006  21.9025017
  95.7379987 104.8685006  21.9025017 103.7059987 106.3935006  24.7065017
 104.6629987 106.3935006  24.7065017 103.4659987 107.3205006  24.7065017
 106.1329987 100.7875006  24.8915017 107.0899987 100.7875006  24.8915017
 105.8929987 101.7145006  24.8915017 100.0229987  98.9855006  22.2345017
 100.9799987  98.9855006  22.2345017  99.7829987  99.9125006  22.2345017
 107.7169987  99.5305006  20.2025017 108.6739987  99.5305006  20.2025017
 107.4769987 100.4575006  20.2025017  96.6339987 101.3835006  22.9615017
  97.5909987 101.3835006  22.9615017  96.3939987 102.3105006  22.9615017
 101.7719987 102.9515006  22.2895017 102.7289987 102.9515006  22.2895017
 101.5319987 103.8785006  22.2895017  98.9199987  97.8945006  26.2765017
  99.8769987  97.8945006  26.2765017  98.6799987  98.8215006  26.2765017
 106.2489987 107.3825006  19.8305017 107.2059987 107.3825006  19.8305017
 106.0089987 108.3095006  19.8305017 101.4379987 105.4985006  26.5165017
 102.3949987 105.4985006  26.5165017 101.1979987 106.4255006  26.5165017
  98.4469987  99.7295006  24.2615017  99.4039987  99.7295006  24.2615017
  98.2069987 100.6565006  24.2615017  99.8649987 107.5205006  27.2495017
 100.8219987 107.5205006  27.2495017  99.6249987 108.4475006  27.2495017
  95.9239987 107.0685006  18.1985017  96.8809987 107.0685006  18.1985017
  95.6839987 107.9955006  18.1985017 102.8719987  95.1995006  23.7125017
 103.8289987  95.1995006  23.7125017 102.6319987  96.1265006  23.7125017
 105.1309987 103.9945006  18.2355017 106.0879987 103.9945006  18.2355017
 104.8909987 104.9215006  18.2355017 105.1949987 102.5315006  15.2515017
 106.1519987 102.5315006  15.2515017 104.9549987 103.4585006  15.2515017
 100.1969987 104.8685006  21.0725017 101.1539987 104.8685006  21.0725017
  99.9569987 105.7955006  21.0725017 100.5529987 103.6425006  24.7235017
 101.5099987 103.6425006  24.7235017 100.3129987 104.5695006  24.7235017
 100.8819987   0.0135006  29.5225017 101.8389987   0.0135006  29.5225017
 100.6419987   0.9405006  29.5225017 107.4659987 103.3915006  16.8565017
 108.4229987 103.3915006  16.8565017 107.2259987 104.3185006  16.8565017
  98.4349987 104.2205006  28.6185017  99.3919987 104.2205006  28.6185017
  98.1949987 105.1475006  28.6185017  99.1899987 103.9125006  18.6965017
 100.1469987 103.9125006  18.6965017  98.9499987 104.8395006  18.6965017
  95.2279987 106.3095006  27.5585017  96.1849987 106.3095006  27.5585017
  94.9879987 107.2365006  27.5585017  97.5529987 107.5665006  28.4995017
  98.5099987 107.5665006  28.4995017  97.3129987 108.4935006  28.4995017
 100.2289987  96.0925006  24.4705017 101.1859987  96.0925006  24.4705017
  99.9889987  97.0195006  24.4705017 104.9099987  95.7595006  27.8405017
 105.8669987  95.7595006  27.8405017 104.6699987  96.6865006  27.8405017
 104.5259987  98.3455006  15.1735017 105.4829987  98.3455006  15.1735017
 104.2859987  99.2725006  15.1735017 100.2029987 101.0095006  25.6485017
 101.1599987 101.0095006  25.6485017  99.9629987 101.9365006  25.6485017
 100.2869987 101.2155006  20.5805017 101.2439987 101.2155006  20.5805017
 100.0469987 102.1425006  20.5805017 105.7849987 101.7005006  19.3735017
 106.7419987 101.7005006  19.3735017 105.5449987 102.6275006  19.3735017
 104.8899987 101.9325006  30.8225017 105.8469987 101.9325006  30.8225017
 104.6499987 102.8595006  30.8225017 106.7769987 101.1455006  22.1945017
 107.7339987 101.1455006  22.1945017 106.5369987 102.0725006  22.1945017
  98.0019987 101.3455006  27.4345017  98.9589987 101.3455006  27.4345017
  97.7619987 102.2725006  27.4345017 101.3479987  98.7385006  14.2685017
 102.3049987  98.7385006  14.2685017 101.1079987  99.6655006  14.2685017
  94.6089987  98.4645006  21.3755017  95.5659987  98.4645006  21.3755017
  94.3689987  99.3915006  21.3755017  95.8829987  99.1785006  16.7515017
  96.8399987  99.1785006  16.7515017  95.6429987 100.1055006  16.7515017
 106.0019987 102.7745006  26.8035017 106.9589987 102.7745006  26.8035017
 105.7619987 103.7015006  26.8035017 102.8529987  98.6725006  21.5935017
 103.8099987  98.6725006  21.5935017 102.6129987  99.5995006  21.5935017
  97.6619987 100.3165006  20.4635017  98.6189987 100.3165006  20.4635017
  97.4219987 101.2435006  20.4635017 101.3089987 100.3405006  18.0915017
 102.2659987 100.3405006  18.0915017 101.0689987 101.2675006  18.0915017
 107.4529987  98.5135006  25.0695017 108.4099987  98.5135006  25.0695017
 107.2129987  99.4405006  25.0695017 100.0029987 101.5295006  15.6845017
 100.9599987 101.5295006  15.6845017  99.7629987 102.4565006  15.6845017
  98.1429987 106.1795006  30.7285017  99.0999987 106.1795006  30.7285017
  97.9029987 107.1065006  30.7285017 104.0299987 101.4915006  23.4545017
 104.9869987 101.4915006  23.4545017 103.7899987 102.4185006  23.4545017
  99.1469987  97.6565006  19.9325017 100.1039987  97.6565006  19.9325017
  98.9069987  98.5835006  19.9325017 102.7869987  99.8805006  25.8875017
 103.7439987  99.8805006  25.8875017 102.5469987 100.8075006  25.8875017
 103.3879987 106.0825006  17.5975017 104.3449987 106.0825006  17.5975017
 103.1479987 107.0095006  17.5975017 107.1549987  98.9045006  15.7875017
 108.1119987  98.9045006  15.7875017 106.9149987  99.8315006  15.7875017
 104.8189987 106.2615006  28.8175017 105.7759987 106.2615006  28.8175017
 104.5789987 107.1885006  28.8175017   0.1219987 100.8925006  17.4835017
   1.0789987 100.8925006  17.4835017  -0.1180013 101.8195006  17.4835017
  98.4469987 105.4175006  23.3505017  99.4039987 105.4175006  23.3505017
  98.2069987 106.3445006  23.3505017 105.4739987 107.5175006  16.6695017
 106.4309987 107.5175006  16.6695017 105.2339987 108.4445006  16.6695017
  95.4649987 103.8515006  28.6775017  96.4219987 103.8515006  28.6775017
  95.2249987 104.7785006  28.6775017 102.4709987 103.4055006  30.8675017
 103.4279987 103.4055006  30.8675017 102.2309987 104.3325006  30.8675017
  96.5999987 103.7315006  15.3655017  97.5569987 103.7315006  15.3655017
  96.3599987 104.6585006  15.3655017 102.2859987 106.5095006  20.3095017
 103.2429987 106.5095006  20.3095017 102.0459987 107.4365006  20.3095017
 106.2649987 106.8055006  26.3565017 107.2219987 106.8055006  26.3565017
 106.0249987 107.7325006  26.3565017  97.1149987  98.5895006  28.2175017
  98.0719987  98.5895006  28.2175017  96.8749987  99.5165006  28.2175017
  98.0049987 105.6835006  16.8525017  98.9619987 105.6835006  16.8525017
  97.7649987 106.6105006  16.8525017 105.8619987  98.3205006  27.1285017
 106.8189987  98.3205006  27.1285017 105.6219987  99.2475006  27.1285017
 106.3249987  98.1685006  18.2235017 107.2819987  98.1685006  18.2235017
 106.0849987  99.0955006  18.2235017 103.7959987  99.7235006  19.0795017
 104.7529987  99.7235006  19.0795017 103.5559987 100.6505006  19.0795017
 104.3109987 100.6895006  28.2665017 105.2679987 100.6895006  28.2665017
 104.0709987 101.6165006  28.2665017 104.7199987  96.7525006  20.0275017
 105.6769987  96.7525006  20.0275017 104.4799987  97.6795006  20.0275017
 100.3259987  97.8495006  16.6815017 101.2829987  97.8495006  16.6815017
 100.0859987  98.7765006  16.6815017  96.9099987 100.9585006  14.8525017
  97.8669987 100.9585006  14.8525017  96.6699987 101.8855006  14.8525017
  97.7479987  95.7375006  23.5805017  98.7049987  95.7375006  23.5805017
  97.5079987  96.6645006  23.5805017  95.8509987 106.0645006  31.9685017
  96.8079987 106.0645006  31.9685017  95.6109987 106.9915006  31.9685017
 100.1289987 106.4225006  14.0605017 101.0859987 106.4225006  14.0605017
  99.8889987 107.3495006  14.0605017 102.4899987 106.0435006  31.4325017
 103.4469987 106.0435006  31.4325017 102.2499987 106.9705006  31.4325017
 105.4549987 107.4775006  13.8415017 106.4119987 107.4775006  13.8415017
 105.2149987 108.4045006  13.8415017  96.6809987 103.3295006  31.4225017
  97.6379987 103.3295006  31.4225017  96.4409987 104.2565006  31.4225017
 101.3369987 104.4595006  16.4395017 102.2939987 104.4595006  16.4395017
 101.0969987 105.3865006  16.4395017 100.6199987 102.2765006  28.7655017
 101.5769987 102.2765006  28.7655017 100.3799987 103.2035006  28.7655017
 102.4139987 102.6405006  14.6775017 103.3709987 102.6405006  14.6775017
 102.1739987 103.5675006  14.6775017 105.6729987 104.8105006  32.0825017
 106.6299987 104.8105006  32.0825017 105.4329987 105.7375006  32.0825017
 101.0179987  99.6535006  29.8395017 101.9749987  99.6535006  29.8395017
 100.7779987 100.5805006  29.8395017 101.4029987  98.0685006  27.3815017
 102.3599987  98.0685006  27.3815017 101.1629987  98.9955006  27.3815017
 103.2199987 103.7215006  27.8135017 104.1769987 103.7215006  27.8135017
 102.9799987 104.6485006  27.8135017 107.3899987 101.2985006  32.7015017
 108.3469987 101.2985006  32.7015017 107.1499987 102.2255006  32.7015017
  99.4499987 100.8855006  31.7745017 100.4069987 100.8855006  31.7745017
  99.2099987 101.8125006  31.7745017 102.2309987  95.4845006  27.7615017
 103.1879987  95.4845006  27.7615017 101.9909987  96.4115006  27.7615017
 103.4669987  99.8115006  31.3715017 104.4239987  99.8115006  31.3715017
 103.2269987 100.7385006  31.3715017 106.1389987  98.9025006  30.4315017
 107.0959987  98.9025006  30.4315017 105.8989987  99.8295006  30.4315017
 107.7699987  97.6015006  32.3695017 108.7269987  97.6015006  32.3695017
 107.5299987  98.5285006  32.3695017  97.5719987  98.8185006  31.4885017
  98.5289987  98.8185006  31.4885017  97.3319987  99.7455006  31.4885017
 102.4119987  94.8375006  30.4705017 103.3689987  94.8375006  30.4705017
 102.1719987  95.7645006  30.4705017 102.7809987  96.4675006  32.5565017
 103.7379987  96.4675006  32.5565017 102.5409987  97.3945006  32.5565017
  95.8989987 107.7905006  15.0605017  96.8559987 107.7905006  15.0605017
  95.6589987 108.7175006  15.0605017  95.4569987 104.5345006  24.5375017
  96.4139987 104.5345006  24.5375017  95.2169987 105.4615006  24.5375017
  95.0839987  99.8565006  30.7285017  96.0409987  99.8565006  30.7285017
  94.8439987 100.7835006  30.7285017  96.2799987  98.1365006  23.5515017
  97.2369987  98.1365006  23.5515017  96.0399987  99.0635006  23.5515017
  94.5679987 101.1305006  24.6025017  95.5249987 101.1305006  24.6025017
  94.3279987 102.0575006  24.6025017  94.9309987  97.4085006  18.6765017
  95.8879987  97.4085006  18.6765017  94.6909987  98.3355006  18.6765017
  94.8849987  96.0775006  26.9775017  95.8419987  96.0775006  26.9775017
  94.6449987  97.0045006  26.9775017 105.0179987  96.9715006  23.0095017
 105.9749987  96.9715006  23.0095017 104.7779987  97.8985006  23.0095017
  97.4059987  95.6255006  20.8545017  98.3629987  95.6255006  20.8545017
  97.1659987  96.5525006  20.8545017  96.1829987  95.3855006  16.6015017
  97.1399987  95.3855006  16.6015017  95.9429987  96.3125006  16.6015017
 101.9399987  95.4475006  20.6565017 102.8969987  95.4475006  20.6565017
 101.6999987  96.3745006  20.6565017 107.4519987  95.4915006  22.4015017
 108.4089987  95.4915006  22.4015017 107.2119987  96.4185006  22.4015017
  98.0149987  97.3275006  15.0875017  98.9719987  97.3275006  15.0875017
  97.7749987  98.2545006  15.0875017 103.0449987  97.5825006  17.4995017
 104.0019987  97.5825006  17.4995017 102.8049987  98.5095006  17.4995017
  97.2889987  96.1675006  30.3265017  98.2459987  96.1675006  30.3265017
  97.0489987  97.0945006  30.3265017  99.2929987  95.5445006  31.9405017
 100.2499987  95.5445006  31.9405017  99.0529987  96.4715006  31.9405017
  -0.0910013  94.8985006  32.1225017   0.8659987  94.8985006  32.1225017
  -0.3310013  95.8255006  32.1225017  12.1979987  10.4775006  39.5945017
  13.1549987  10.4775006  39.5945017  11.9579987  11.4045006  39.5945017
  11.0719987   9.7475006  43.0815017  12.0289987   9.7475006  43.0815017
  10.8319987  10.6745006  43.0815017   3.4769987   9.3805006  44.6105017
   4.4339987   9.3805006  44.6105017   3.2369987  10.3075006  44.6105017
  14.7579987  12.7145006  41.3655017  15.7149987  12.7145006  41.3655017
  14.5179987  13.6415006  41.3655017   4.3399987  13.8495006  43.1615017
   5.2969987  13.8495006  43.1615017   4.0999987  14.7765006  43.1615017
   1.0659987   7.5265006  38.5645017   2.0229987   7.5265006  38.5645017
   0.8259987   8.4535006  38.5645017   1.6879987   9.6205006  40.7425017
   2.6449987   9.6205006  40.7425017   1.4479987  10.5475006  40.7425017
  11.8979987  17.8485006  41.6085017  12.8549987  17.8485006  41.6085017
  11.6579987  18.7755006  41.6085017   9.4479987  12.1545006  43.5235017
  10.4049987  12.1545006  43.5235017   9.2079987  13.0815006  43.5235017
  18.0799987   3.7595006  44.2835017  19.0369987   3.7595006  44.2835017
  17.8399987   4.6865006  44.2835017  12.6149987   6.5985006  43.8515017
  13.5719987   6.5985006  43.8515017  12.3749987   7.5255006  43.8515017
   5.7429987   4.6965006  41.0635017   6.6999987   4.6965006  41.0635017
   5.5029987   5.6235006  41.0635017  13.4749987   4.7815006  39.4555017
  14.4319987   4.7815006  39.4555017  13.2349987   5.7085006  39.4555017
   2.5389987   7.1485006  41.7225017   3.4959987   7.1485006  41.7225017
   2.2989987   8.0755006  41.7225017   7.5199987   8.6575006  41.1065017
   8.4769987   8.6575006  41.1065017   7.2799987   9.5845006  41.1065017
  18.5099987   5.2205006  46.5465017  19.4669987   5.2205006  46.5465017
  18.2699987   6.1475006  46.5465017   4.6359987   3.6015006  45.1405017
   5.5929987   3.6015006  45.1405017   4.3959987   4.5285006  45.1405017
  11.9579987  13.0955006  38.6785017  12.9149987  13.0955006  38.6785017
  11.7179987  14.0225006  38.6785017   7.1539987  11.2415006  45.3815017
   8.1109987  11.2415006  45.3815017   6.9139987  12.1685006  45.3815017
  15.2649987   4.1035006  41.4345017  16.2219987   4.1035006  41.4345017
  15.0249987   5.0305006  41.4345017   4.2029987   5.4535006  43.1455017
   5.1599987   5.4535006  43.1455017   3.9629987   6.3805006  43.1455017
   5.5919987  13.2295006  46.1855017   6.5489987  13.2295006  46.1855017
   5.3519987  14.1565006  46.1855017   1.6969987  12.8865006  36.9555017
   2.6539987  12.8865006  36.9555017   1.4569987  13.8135006  36.9555017
  15.2949987  14.4755006  43.7905017  16.2519987  14.4755006  43.7905017
  15.0549987  15.4025006  43.7905017  15.6389987   2.8045006  45.1865017
  16.5959987   2.8045006  45.1865017  15.3989987   3.7315006  45.1865017
   8.5609987   0.9635006  42.4465017   9.5179987   0.9635006  42.4465017
   8.3209987   1.8905006  42.4465017  13.4379987  16.3265006  40.1975017
  14.3949987  16.3265006  40.1975017  13.1979987  17.2535006  40.1975017
  14.7469987  14.2465006  38.8685017  15.7039987  14.2465006  38.8685017
  14.5069987  15.1735006  38.8685017  16.3559987  12.8125006  47.3245017
  17.3129987  12.8125006  47.3245017  16.1159987  13.7395006  47.3245017
  10.8749987   9.7255006  37.1055017  11.8319987   9.7255006  37.1055017
  10.6349987  10.6525006  37.1055017  10.9359987   8.2595006  34.1145017
  11.8929987   8.2595006  34.1145017  10.6959987   9.1865006  34.1145017
  18.2589987   9.1295006  45.3845017  19.2159987   9.1295006  45.3845017
  18.0189987  10.0565006  45.3845017  14.3119987   9.9405006  38.0195017
  15.2689987   9.9405006  38.0195017  14.0719987  10.8675006  38.0195017
  14.2369987   8.0975006  47.1305017  15.1939987   8.0975006  47.1305017
  13.9969987   9.0245006  47.1305017   5.9519987  10.6085006  39.9325017
   6.9089987  10.6085006  39.9325017   5.7119987  11.5355006  39.9325017
   7.2599987  13.9935006  42.6125017   8.2169987  13.9935006  42.6125017
   7.0199987  14.9205006  42.6125017   6.2829987   9.3405006  43.5845017
   7.2399987   9.3405006  43.5845017   6.0429987  10.2675006  43.5845017
  12.6789987  14.9095006  44.2815017  13.6359987  14.9095006  44.2815017
  12.4389987  15.8365006  44.2815017   7.2049987  13.7595006  48.2875017
   8.1619987  13.7595006  48.2875017   6.9649987  14.6865006  48.2875017
  13.1769987   9.1225006  35.6955017  14.1339987   9.1225006  35.6955017
  12.9369987  10.0495006  35.6955017   4.1249987   9.9315006  47.4775017
   5.0819987   9.9315006  47.4775017   3.8849987  10.8585006  47.4775017
  10.8989987  15.8505006  39.1545017  11.8559987  15.8505006  39.1545017
  10.6589987  16.7775006  39.1545017   5.4399987  15.8095006  49.0435017
   6.3969987  15.8095006  49.0435017   5.1999987  16.7365006  49.0435017
  16.9189987   0.8985006  35.5525017  17.8759987   0.8985006  35.5525017
  16.6789987   1.8255006  35.5525017   4.9259987   9.6335006  37.5495017
   5.8829987   9.6335006  37.5495017   4.6859987  10.5605006  37.5495017
  18.0249987  15.2135006  33.9365017  18.9819987  15.2135006  33.9365017
  17.7849987  16.1405006  33.9365017   1.1249987  12.0175006  46.3655017
   2.0819987  12.0175006  46.3655017   0.8849987  12.9445006  46.3655017
   1.0109987  14.9135006  42.9435017   1.9679987  14.9135006  42.9435017
   0.7709987  15.8405006  42.9435017  18.7539987  14.6855006  49.7575017
  19.7109987  14.6855006  49.7575017  18.5139987  15.6125006  49.7575017
   9.9459987  15.0235006  47.7685017  10.9029987  15.0235006  47.7685017
   9.7059987  15.9505006  47.7685017  10.3789987  18.7745006  37.5735017
  11.3359987  18.7745006  37.5735017  10.1389987  19.7015006  37.5735017
   4.0209987  17.6305006  39.3655017   4.9779987  17.6305006  39.3655017
   3.7809987  18.5575006  39.3655017  13.4429987  17.9825006  34.5465017
  14.3999987  17.9825006  34.5465017  13.2029987  18.9095006  34.5465017
  13.1399987  17.9115006  37.3375017  14.0969987  17.9115006  37.3375017
  12.8999987  18.8385006  37.3375017  16.1179987   6.9475006  49.3925017
  17.0749987   6.9475006  49.3925017  15.8779987   7.8745006  49.3925017
   3.2629987  13.3885006  47.3955017   4.2199987  13.3885006  47.3955017
   3.0229987  14.3155006  47.3955017   6.0029987   1.9335006  43.2695017
   6.9599987   1.9335006  43.2695017   5.7629987   2.8605006  43.2695017
  10.6079987   1.5595006  46.7585017  11.5649987   1.5595006  46.7585017
  10.3679987   2.4865006  46.7585017  13.8809987   5.3005006  47.5945017
  14.8379987   5.3005006  47.5945017  13.6409987   6.2275006  47.5945017
  14.6319987  10.1585006  33.4485017  15.5889987  10.1585006  33.4485017
  14.3919987  11.0855006  33.4485017  10.2329987   4.0655006  34.0205017
  11.1899987   4.0655006  34.0205017   9.9929987   4.9925006  34.0205017
   6.0449987   6.7915006  44.5585017   7.0019987   6.7915006  44.5585017
   5.8049987   7.7185006  44.5585017   5.9859987   6.9495006  39.4365017
   6.9429987   6.9495006  39.4365017   5.7459987   7.8765006  39.4365017
  11.5249987   7.4215006  38.2245017  12.4819987   7.4215006  38.2245017
  11.2849987   8.3485006  38.2245017  10.5979987   7.6245006  49.6695017
  11.5549987   7.6245006  49.6695017  10.3579987   8.5515006  49.6695017
  12.5529987   6.9015006  41.0575017  13.5099987   6.9015006  41.0575017
  12.3129987   7.8285006  41.0575017   3.7049987   7.0675006  46.2965017
   4.6619987   7.0675006  46.2965017   3.4649987   7.9945006  46.2965017
   7.0769987   4.4905006  33.1315017   8.0339987   4.4905006  33.1315017
   6.8369987   5.4175006  33.1315017   0.4449987   3.4715006  40.5595017
   1.4019987   3.4715006  40.5595017   0.2049987   4.3985006  40.5595017
   1.8009987   4.9145006  35.7205017   2.7579987   4.9145006  35.7205017
   1.5609987   5.8415006  35.7205017  11.7699987   8.5035006  45.6415017
  12.7269987   8.5035006  45.6415017  11.5299987   9.4305006  45.6415017
   8.5689987   4.4755006  40.4535017   9.5259987   4.4755006  40.4535017
   8.3289987   5.4025006  40.4535017   3.3939987   6.0305006  39.3105017
   4.3509987   6.0305006  39.3105017   3.1539987   6.9575006  39.3105017
   7.0209987   6.0725006  36.9575017   7.9779987   6.0725006  36.9575017
   6.7809987   6.9995006  36.9575017  12.9819987   3.6755006  43.7015017
  13.9389987   3.6755006  43.7015017  12.7419987   4.6025006  43.7015017
   5.7069987   7.2555006  34.5325017   6.6639987   7.2555006  34.5325017
   5.4669987   8.1825006  34.5325017  16.1709987  19.3725006  50.0245017
  17.1279987  19.3725006  50.0245017  15.9309987  20.2995006  50.0245017
   3.8579987  11.7925006  49.6055017   4.8149987  11.7925006  49.6055017
   3.6179987  12.7195006  49.6055017   9.8579987   7.2275006  42.3525017
  10.8149987   7.2275006  42.3525017   9.6179987   8.1545006  42.3525017
   4.8429987   3.3775006  38.7575017   5.7999987   3.3775006  38.7575017
   4.6029987   4.3045006  38.7575017   8.4919987   5.5785006  44.7605017
   9.4489987   5.5785006  44.7605017   8.2519987   6.5055006  44.7605017
   9.0799987  11.7925006  36.4565017  10.0369987  11.7925006  36.4565017
   8.8399987  12.7195006  36.4565017  16.2449987  10.9585006  45.2685017
  17.2019987  10.9585006  45.2685017  16.0049987  11.8855006  45.2685017
  12.9299987   4.6015006  34.6345017  13.8869987   4.6015006  34.6345017
  12.6899987   5.5285006  34.6345017  10.5669987  12.0295006  47.6975017
  11.5239987  12.0295006  47.6975017  10.3269987  12.9565006  47.6975017
  13.6469987   6.5055006  36.2815017  14.6039987   6.5055006  36.2815017
  13.4069987   7.4325006  36.2815017   4.1839987  11.1645006  42.2575017
   5.1409987  11.1645006  42.2575017   3.9439987  12.0915006  42.2575017
  11.1859987  13.2565006  35.4895017  12.1429987  13.2565006  35.4895017
  10.9459987  14.1835006  35.4895017   1.1629987   9.5825006  47.5365017
   2.1199987   9.5825006  47.5365017   0.9229987  10.5095006  47.5365017
   8.1889987   9.1325006  49.7215017   9.1459987   9.1325006  49.7215017
   7.9489987  10.0595006  49.7215017  12.8609987  14.4645006  47.6405017
  13.8179987  14.4645006  47.6405017  12.6209987  15.3915006  47.6405017
  18.5419987   6.6685006  36.0395017  19.4989987   6.6685006  36.0395017
  18.3019987   7.5955006  36.0395017  18.5009987  12.3375006  48.8015017
  19.4579987  12.3375006  48.8015017  18.2609987  13.2645006  48.8015017
  16.8119987  15.4905006  36.4585017  17.7689987  15.4905006  36.4585017
  16.5719987  16.4175006  36.4585017  14.0349987  10.3215006  43.5205017
  14.9919987  10.3215006  43.5205017  13.7949987  11.2485006  43.5205017
   6.5679987  14.6175006  39.6405017   7.5249987  14.6175006  39.6405017
   6.3279987  15.5445006  39.6405017   2.2869987   9.4625006  34.2405017
   3.2439987   9.4625006  34.2405017   2.0469987  10.3895006  34.2405017
   7.9829987  12.2895006  39.1675017   8.9399987  12.2895006  39.1675017
   7.7429987  13.2165006  39.1675017   8.4319987  16.4695006  45.5585017
   9.3889987  16.4695006  45.5585017   8.1919987  17.3965006  45.5585017
   6.6709987  17.2885006  38.7115017   7.6279987  17.2885006  38.7115017
   6.4309987  18.2155006  38.7115017  11.9949987  12.5135006  45.1865017
  12.9519987  12.5135006  45.1865017  11.7549987  13.4405006  45.1865017
  14.2709987  13.5335006  34.2815017  15.2279987  13.5335006  34.2815017
  14.0309987  14.4605006  34.2815017  14.7289987  17.0745006  47.6955017
  15.6859987  17.0745006  47.6955017  14.4889987  18.0015006  47.6955017
  18.7419987  17.9095006  34.5355017  19.6989987  17.9095006  34.5355017
  18.5019987  18.8365006  34.5355017   2.8199987   4.3355006  47.1065017
   3.7769987   4.3355006  47.1065017   2.5799987   5.2625006  47.1065017
  15.0679987  12.1765006  36.5165017  16.0249987  12.1765006  36.5165017
  14.8279987  13.1035006  36.5165017   2.4749987  16.1175006  45.4895017
   3.4319987  16.1175006  45.4895017   2.2349987  17.0445006  45.4895017
   8.3909987  14.6175006  32.7605017   9.3479987  14.6175006  32.7605017
   8.1509987  15.5445006  32.7605017   7.2229987  14.1495006  35.2145017
   8.1799987  14.1495006  35.2145017   6.9829987  15.0765006  35.2145017
   3.6929987  11.3765006  35.6975017   4.6499987  11.3765006  35.6975017
   3.4529987  12.3035006  35.6975017  11.5539987   4.0815006  46.0125017
  12.5109987   4.0815006  46.0125017  11.3139987   5.0085006  46.0125017
  12.3279987   3.6585006  37.1065017  13.2849987   3.6585006  37.1065017
  12.0879987   4.5855006  37.1065017   9.9969987  15.8195006  35.9355017
  10.9539987  15.8195006  35.9355017   9.7569987  16.7465006  35.9355017
   9.5449987   5.3995006  37.9335017  10.5019987   5.3995006  37.9335017
   9.3049987   6.3265006  37.9335017  10.0839987   6.4285006  47.1185017
  11.0409987   6.4285006  47.1185017   9.8439987   7.3555006  47.1185017
  10.4039987   2.4775006  38.8495017  11.3609987   2.4775006  38.8495017
  10.1639987   3.4045006  38.8495017   7.3779987  16.8555006  35.9455017
   8.3349987  16.8555006  35.9455017   7.1379987  17.7825006  35.9455017
   6.0459987   3.5805006  35.5345017   7.0029987   3.5805006  35.5345017
   5.8059987   4.5075006  35.5345017  16.2749987   4.3255006  47.9575017
  17.2319987   4.3255006  47.9575017  16.0349987   5.2525006  47.9575017
  14.8749987   8.0945006  41.9985017  15.8319987   8.0945006  41.9985017
  14.6349987   9.0215006  41.9985017   4.2909987  14.0185006  34.5805017
   5.2479987  14.0185006  34.5805017   4.0509987  14.9455006  34.5805017
   2.5779987   6.6945006  33.7695017   3.5349987   6.6945006  33.7695017
   2.3379987   7.6215006  33.7695017  15.9519987  17.3445006  43.6285017
  16.9089987  17.3445006  43.6285017  15.7119987  18.2715006  43.6285017
   3.2309987   1.6585006  42.3135017   4.1879987   1.6585006  42.3135017
   2.9909987   2.5855006  42.3135017   2.3859987  15.4015006  38.6015017
   3.3429987  15.4015006  38.6015017   2.1459987  16.3285006  38.6015017
   1.7149987  17.9865006  49.8225017   2.6719987  17.9865006  49.8225017
   1.4749987  18.9135006  49.8225017   6.2719987  16.9485006  51.5035017
   7.2289987  16.9485006  51.5035017   6.0319987  17.8755006  51.5035017
  10.3969987  16.4725006  32.8955017  11.3539987  16.4725006  32.8955017
  10.1569987  17.3995006  32.8955017  12.8019987  15.3385006  50.2385017
  13.7589987  15.3385006  50.2385017  12.5619987  16.2655006  50.2385017
  14.9679987  16.2305006  33.0935017  15.9249987  16.2305006  33.0935017
  14.7279987  17.1575006  33.0935017   1.5169987  11.8315006  50.8695017
   2.4739987  11.8315006  50.8695017   1.2769987  12.7585006  50.8695017
   5.8659987  12.1645006  32.9265017   6.8229987  12.1645006  32.9265017
   5.6259987  13.0915006  32.9265017   8.2299987  11.8025006  50.2735017
   9.1869987  11.8025006  50.2735017   7.9899987  12.7295006  50.2735017
  11.2829987  13.2575006  32.6875017  12.2399987  13.2575006  32.6875017
  11.0429987  14.1845006  32.6875017  13.9319987  11.6705006  47.6605017
  14.8889987  11.6705006  47.6605017  13.6919987  12.5975006  47.6605017
   2.3699987   9.0275006  50.2605017   3.3269987   9.0275006  50.2605017
   2.1299987   9.9545006  50.2605017   7.0599987  10.1725006  35.3125017
   8.0169987  10.1725006  35.3125017   6.8199987  11.0995006  35.3125017
   6.3379987   7.9995006  47.6305017   7.2949987   7.9995006  47.6305017
   6.0979987   8.9265006  47.6305017   8.1329987   8.3945006  33.5355017
   9.0899987   8.3945006  33.5355017   7.8929987   9.3215006  33.5355017
  11.3909987  10.5385006  50.9445017  12.3479987  10.5385006  50.9445017
  11.1509987  11.4655006  50.9445017  17.4899987  10.7245006  32.9635017
  18.4469987  10.7245006  32.9635017  17.2499987  11.6515006  32.9635017
   6.7229987   5.3685006  48.6935017   7.6799987   5.3685006  48.6935017
   6.4829987   6.2955006  48.6935017   7.1399987   3.7465006  46.2335017
   8.0969987   3.7465006  46.2335017   6.8999987   4.6735006  46.2335017
   8.6809987   9.2185006  46.4775017   9.6379987   9.2185006  46.4775017
   8.4409987  10.1455006  46.4775017  13.0809987   6.9995006  51.4575017
  14.0379987   6.9995006  51.4575017  12.8409987   7.9265006  51.4575017
  14.4089987   9.7865006  49.5925017  15.3659987   9.7865006  49.5925017
  14.1689987  10.7135006  49.5925017   5.1879987   6.6245006  50.6315017
   6.1449987   6.6245006  50.6315017   4.9479987   7.5515006  50.6315017
   8.0039987   1.2295006  46.5065017   8.9609987   1.2295006  46.5065017
   7.7639987   2.1565006  46.5065017   9.1969987   5.5115006  50.2145017
  10.1539987   5.5115006  50.2145017   8.9569987   6.4385006  50.2145017
  11.9099987   4.6865006  49.3255017  12.8669987   4.6865006  49.3255017
  11.6699987   5.6135006  49.3255017  13.5389987   3.3065006  51.2625017
  14.4959987   3.3065006  51.2625017  13.2989987   4.2335006  51.2625017
   3.3269987   4.5345006  50.3605017   4.2839987   4.5345006  50.3605017
   3.0869987   5.4615006  50.3605017   8.7149987 108.5235006  49.3785017
   9.6719987 108.5235006  49.3785017   8.4749987 109.4505006  49.3785017
   8.4849987   2.2575006  51.4705017   9.4419987   2.2575006  51.4705017
   8.2449987   3.1845006  51.4705017   7.9809987  19.0905006  34.5965017
   8.9379987  19.0905006  34.5965017   7.7409987  20.0175006  34.5965017
   1.5939987  13.7035006  34.0505017   2.5509987  13.7035006  34.0505017
   1.3539987  14.6305006  34.0505017 108.0929987  19.1275006  39.0705017
 109.0499987  19.1275006  39.0705017 107.8529987  20.0545006  39.0705017
   1.5129987  17.3425006  41.0215017   2.4699987  17.3425006  41.0215017
   1.2729987  18.2695006  41.0215017  18.6719987  17.9905006  43.7775017
  19.6289987  17.9905006  43.7775017  18.4319987  18.9175006  43.7775017
  17.8409987  17.8625006  46.1945017  18.7979987  17.8625006  46.1945017
  17.6009987  18.7895006  46.1945017  16.6699987  13.2835006  51.4955017
  17.6269987  13.2835006  51.4955017  16.4299987  14.2105006  51.4955017
  17.9899987  11.6325006  36.9145017  18.9469987  11.6325006  36.9145017
  17.7499987  12.5595006  36.9145017  18.3639987   9.7025006  38.7825017
  19.3209987   9.7025006  38.7825017  18.1239987  10.6295006  38.7825017
  18.1109987  12.4235006  43.7455017  19.0679987  12.4235006  43.7455017
  17.8709987  13.3505006  43.7455017  16.6549987  15.3155006  46.0245017
  17.6119987  15.3155006  46.0245017  16.4149987  16.2425006  46.0245017
  18.6629987   9.5395006  35.1795017  19.6199987   9.5395006  35.1795017
  18.4229987  10.4665006  35.1795017  17.0299987   6.7835006  33.7015017
  17.9869987   6.7835006  33.7015017  16.7899987   7.7105006  33.7015017
  16.1769987   8.1875006  39.3475017  17.1339987   8.1875006  39.3475017
  15.9369987   9.1145006  39.3475017   1.1829987  10.2585006  43.4095017
   2.1399987  10.2585006  43.4095017   0.9429987  11.1855006  43.4095017
  17.0139987  10.1465006  49.0275017  17.9709987  10.1465006  49.0275017
  16.7739987  11.0735006  49.0275017  18.5359987   8.0475006  49.6915017
  19.4929987   8.0475006  49.6915017  18.2959987   8.9745006  49.6915017
  16.2569987   4.2585006  32.8585017  17.2139987   4.2585006  32.8585017
  16.0169987   5.1855006  32.8585017  15.8349987   5.7785006  37.7835017
  16.7919987   5.7785006  37.7835017  15.5949987   6.7055006  37.7835017
  16.4789987   6.3265006  43.2435017  17.4359987   6.3265006  43.2435017
  16.2389987   7.2535006  43.2435017  16.5469987   7.0585006  46.0315017
  17.5039987   7.0585006  46.0315017  16.3069987   7.9855006  46.0315017
   0.8839987   5.5375006  49.4755017   1.8409987   5.5375006  49.4755017
   0.6439987   6.4645006  49.4755017  18.7489987   1.1865006  51.3255017
  19.7059987   1.1865006  51.3255017  18.5089987   2.1135006  51.3255017
  16.4969987   3.0585006  37.8325017  17.4539987   3.0585006  37.8325017
  16.2569987   3.9855006  37.8325017   2.0509987   3.9335006  42.4055017
   3.0079987   3.9335006  42.4055017   1.8109987   4.8605006  42.4055017
   0.8839987   6.8355006  43.6155017   1.8409987   6.8355006  43.6155017
   0.6439987   7.7625006  43.6155017  18.3389987   3.2105006  49.7265017
  19.2959987   3.2105006  49.7265017  18.0989987   4.1375006  49.7265017
  18.3529987   3.1185006  34.4225017  19.3099987   3.1185006  34.4225017
  18.1129987   4.0455006  34.4225017   0.8769987   3.0305006  37.5655017
   1.8339987   3.0305006  37.5655017   0.6369987   3.9575006  37.5655017
  15.4049987  18.0175006  39.5225017  16.3619987  18.0175006  39.5225017
  15.1649987  18.9445006  39.5225017 108.3439987   1.8595006  45.8995017
 109.3009987   1.8595006  45.8995017 108.1039987   2.7865006  45.8995017
   2.8149987  15.0105006  50.0125017   3.7719987  15.0105006  50.0125017
   2.5749987  15.9375006  50.0125017   5.7349987  15.9795006  46.2675017
   6.6919987  15.9795006  46.2675017   5.4949987  16.9065006  46.2675017
  10.0569987  17.4035006  49.1815017  11.0139987  17.4035006  49.1815017
   9.8169987  18.3305006  49.1815017  12.3509987  18.6725006  48.4715017
  13.3079987  18.6725006  48.4715017  12.1109987  19.5995006  48.4715017
  17.4409987   1.4245006  47.5265017  18.3979987   1.4245006  47.5265017
  17.2009987   2.3515006  47.5265017   3.1499987  19.2355006  46.2975017
   4.1069987  19.2355006  46.2975017   2.9099987  20.1625006  46.2975017
   5.6469987  18.8175006  45.3415017   6.6039987  18.8175006  45.3415017
   5.4069987  19.7445006  45.3415017  10.3339987  18.7155006  44.5075017
  11.2909987  18.7155006  44.5075017  10.0939987  19.6425006  44.5075017
  12.6529987  17.5375006  45.4615017  13.6099987  17.5375006  45.4615017
  12.4129987  18.4645006  45.4615017  15.1599987  19.1205006  45.7375017
  16.1169987  19.1205006  45.7375017  14.9199987  20.0475006  45.7375017
   2.6369987  17.8935006  43.2625017   3.5939987  17.8935006  43.2625017
   2.3969987  18.8205006  43.2625017   4.6819987  16.5835006  41.8575017
   5.6389987  16.5835006  41.8575017   4.4419987  17.5105006  41.8575017
   7.2699987  17.0625006  42.7295017   8.2269987  17.0625006  42.7295017
   7.0299987  17.9895006  42.7295017  10.7439987   2.7455006  41.8685017
  11.7009987   2.7455006  41.8685017  10.5039987   3.6725006  41.8685017
  15.9649987   1.0815006  42.1245017  16.9219987   1.0815006  42.1245017
  15.7249987   2.0085006  42.1245017  17.5979987   1.9945006  40.2485017
  18.5549987   1.9945006  40.2485017  17.3579987   2.9215006  40.2485017
   3.1079987   1.3445006  39.6505017   4.0649987   1.3445006  39.6505017
   2.8679987   2.2715006  39.6505017   2.1929987   1.4875006  35.8275017
   3.1499987   1.4875006  35.8275017   1.9529987   2.4145006  35.8275017
   7.6319987   1.3045006  39.4915017   8.5889987   1.3045006  39.4915017
   7.3919987   2.2315006  39.4915017  13.2229987   1.3265006  41.1385017
  14.1799987   1.3265006  41.1385017  12.9829987   2.2535006  41.1385017
  14.5769987   1.3525006  36.8825017  15.5339987   1.3525006  36.8825017
  14.3369987   2.2795006  36.8825017   1.9209987  17.0705006  36.4375017
   2.8779987  17.0705006  36.4375017   1.6809987  17.9975006  36.4375017
   3.7389987   3.0435006  33.9195017   4.6959987   3.0435006  33.9195017
   3.4989987   3.9705006  33.9195017   8.7359987   3.3105006  36.3695017
   9.6929987   3.3105006  36.3695017   8.4959987   4.2375006  36.3695017
  10.6769987  18.3365006  34.8065017  11.6339987  18.3365006  34.8065017
  10.4369987  19.2635006  34.8065017  17.3649987  17.8605006  37.5265017
  18.3219987  17.8605006  37.5265017  17.1249987  18.7875006  37.5265017
   2.9879987   1.9195006  49.2365017   3.9449987   1.9195006  49.2365017
   2.7479987   2.8465006  49.2365017   5.0089987   1.2555006  50.7805017
   5.9659987   1.2555006  50.7805017   4.7689987   2.1825006  50.7805017
   3.5879987  18.0045006  33.3915017   4.5449987  18.0045006  33.3915017
   3.3479987  18.9315006  33.3915017  13.4929987 108.3825006  50.8095017
  14.4499987 108.3825006  50.8095017  13.2529987 109.3095006  50.8095017
  16.5569987  16.5885006  49.6675017  17.5139987  16.5885006  49.6675017
  16.3169987  17.5155006  49.6675017  31.0399987  10.4765006  39.6125017
  31.9969987  10.4765006  39.6125017  30.7999987  11.4035006  39.6125017
  29.9209987   9.7495006  43.0865017  30.8779987   9.7495006  43.0865017
  29.6809987  10.6765006  43.0865017  22.2839987   9.4015006  44.6345017
  23.2409987   9.4015006  44.6345017  22.0439987  10.3285006  44.6345017
  33.6899987  12.6425006  41.4185017  34.6469987  12.6425006  41.4185017
  33.4499987  13.5695006  41.4185017  23.2119987  13.8525006  43.1565017
  24.1689987  13.8525006  43.1565017  22.9719987  14.7795006  43.1565017
  19.8549987   7.4315006  38.6145017  20.8119987   7.4315006  38.6145017
  19.6149987   8.3585006  38.6145017  20.5509987   9.6535006  40.7475017
  21.5079987   9.6535006  40.7475017  20.3109987  10.5805006  40.7475017
  30.7229987  17.8465006  41.6025017  31.6799987  17.8465006  41.6025017
  30.4829987  18.7735006  41.6025017  28.3039987  12.1555006  43.5235017
  29.2609987  12.1555006  43.5235017  28.0639987  13.0825006  43.5235017
  36.9359987   3.7595006  44.2835017  37.8929987   3.7595006  44.2835017
  36.6959987   4.6865006  44.2835017  31.4709987   6.5975006  43.8515017
  32.4279987   6.5975006  43.8515017  31.2309987   7.5245006  43.8515017
  24.5999987   4.7025006  41.0745017  25.5569987   4.7025006  41.0745017
  24.3599987   5.6295006  41.0745017  32.3299987   4.7815006  39.4555017
  33.2869987   4.7815006  39.4555017  32.0899987   5.7085006  39.4555017
  21.2149987   7.1055006  41.8205017  22.1719987   7.1055006  41.8205017
  20.9749987   8.0325006  41.8205017  26.3769987   8.6595006  41.1085017
  27.3339987   8.6595006  41.1085017  26.1369987   9.5865006  41.1085017
  37.3669987   5.2215006  46.5465017  38.3239987   5.2215006  46.5465017
  37.1269987   6.1485006  46.5465017  23.4929987   3.6045006  45.1335017
  24.4499987   3.6045006  45.1335017  23.2529987   4.5315006  45.1335017
  30.6649987  13.0295006  38.6845017  31.6219987  13.0295006  38.6845017
  30.4249987  13.9565006  38.6845017  26.0089987  11.2415006  45.3815017
  26.9659987  11.2415006  45.3815017  25.7689987  12.1685006  45.3815017
  34.1209987   4.1035006  41.4345017  35.0779987   4.1035006  41.4345017
  33.8809987   5.0305006  41.4345017  23.0399987   5.4805006  43.1275017
  23.9969987   5.4805006  43.1275017  22.7999987   6.4075006  43.1275017
  24.4439987  13.2315006  46.1925017  25.4009987  13.2315006  46.1925017
  24.2039987  14.1585006  46.1925017  20.5339987  12.8675006  36.9845017
  21.4909987  12.8675006  36.9845017  20.2939987  13.7945006  36.9845017
  34.1519987  14.5235006  43.7305017  35.1089987  14.5235006  43.7305017
  33.9119987  15.4505006  43.7305017  34.4949987   2.8045006  45.1865017
  35.4519987   2.8045006  45.1865017  34.2549987   3.7315006  45.1865017
  27.4179987   0.9635006  42.4465017  28.3749987   0.9635006  42.4465017
  27.1779987   1.8905006  42.4465017  32.3829987  16.4085006  40.3765017
  33.3399987  16.4085006  40.3765017  32.1429987  17.3355006  40.3765017
  32.8789987  14.1705006  39.3875017  33.8359987  14.1705006  39.3875017
  32.6389987  15.0975006  39.3875017  35.2399987  12.8155006  47.3325017
  36.1969987  12.8155006  47.3325017  34.9999987  13.7425006  47.3325017
  29.7179987   9.7075006  37.0965017  30.6749987   9.7075006  37.0965017
  29.4779987  10.6345006  37.0965017  29.7779987   8.2445006  34.1135017
  30.7349987   8.2445006  34.1135017  29.5379987   9.1715006  34.1135017
  37.1159987   9.1305006  45.3865017  38.0729987   9.1305006  45.3865017
  36.8759987  10.0575006  45.3865017  33.1309987   9.8825006  38.0185017
  34.0879987   9.8825006  38.0185017  32.8909987  10.8095006  38.0185017
  33.0909987   8.0975006  47.1315017  34.0479987   8.0975006  47.1315017
  32.8509987   9.0245006  47.1315017  24.7819987  10.5915006  39.9385017
  25.7389987  10.5915006  39.9385017  24.5419987  11.5185006  39.9385017
  26.1179987  13.9935006  42.6125017  27.0749987  13.9935006  42.6125017
  25.8779987  14.9205006  42.6125017  25.1229987   9.3385006  43.5835017
  26.0799987   9.3385006  43.5835017  24.8829987  10.2655006  43.5835017
  31.5079987  14.9035006  44.2895017  32.4649987  14.9035006  44.2895017
  31.2679987  15.8305006  44.2895017  26.0619987  13.7595006  48.2875017
  27.0189987  13.7595006  48.2875017  25.8219987  14.6865006  48.2875017
  32.0309987   9.1075006  35.6865017  32.9879987   9.1075006  35.6865017
  31.7909987  10.0345006  35.6865017  22.9969987   9.9285006  47.4645017
  23.9539987   9.9285006  47.4645017  22.7569987  10.8555006  47.4645017
  29.7269987  15.8555006  39.1655017  30.6839987  15.8555006  39.1655017
  29.4869987  16.7825006  39.1655017  24.3199987  15.7985006  49.0445017
  25.2769987  15.7985006  49.0445017  24.0799987  16.7255006  49.0445017
  35.7749987   0.8985006  35.5525017  36.7319987   0.8985006  35.5525017
  35.5349987   1.8255006  35.5525017  23.7609987   9.6215006  37.5485017
  24.7179987   9.6215006  37.5485017  23.5209987  10.5485006  37.5485017
  36.8949987  15.2225006  33.8515017  37.8519987  15.2225006  33.8515017
  36.6549987  16.1495006  33.8515017  19.8609987  12.0435006  46.4015017
  20.8179987  12.0435006  46.4015017  19.6209987  12.9705006  46.4015017
  19.5909987  14.7875006  43.2175017  20.5479987  14.7875006  43.2175017
  19.3509987  15.7145006  43.2175017  37.8369987  15.4675006  48.9015017
  38.7939987  15.4675006  48.9015017  37.5969987  16.3945006  48.9015017
  28.8019987  15.0235006  47.7695017  29.7589987  15.0235006  47.7695017
  28.5619987  15.9505006  47.7695017  29.2359987  18.7715006  37.5715017
  30.1929987  18.7715006  37.5715017  28.9959987  19.6985006  37.5715017
  22.8769987  17.6375006  39.3805017  23.8339987  17.6375006  39.3805017
  22.6369987  18.5645006  39.3805017  32.2939987  17.9775006  34.5635017
  33.2509987  17.9775006  34.5635017  32.0539987  18.9045006  34.5635017
  31.9889987  17.9145006  37.3345017  32.9459987  17.9145006  37.3345017
  31.7489987  18.8415006  37.3345017  34.9829987   6.9585006  49.3885017
  35.9399987   6.9585006  49.3885017  34.7429987   7.8855006  49.3885017
  22.1289987  13.3505006  47.3685017  23.0859987  13.3505006  47.3685017
  21.8889987  14.2775006  47.3685017  24.8859987   1.9225006  43.2795017
  25.8429987   1.9225006  43.2795017  24.6459987   2.8495006  43.2795017
  29.4639987   1.5595006  46.7585017  30.4209987   1.5595006  46.7585017
  29.2239987   2.4865006  46.7585017  32.7359987   5.2995006  47.5935017
  33.6929987   5.2995006  47.5935017  32.4959987   6.2265006  47.5935017
  33.4839987  10.1165006  33.4225017  34.4409987  10.1165006  33.4225017
  33.2439987  11.0435006  33.4225017  29.0889987   4.0655006  34.0205017
  30.0459987   4.0655006  34.0205017  28.8489987   4.9925006  34.0205017
  24.8939987   6.7895006  44.5565017  25.8509987   6.7895006  44.5565017
  24.6539987   7.7165006  44.5565017  24.8589987   6.9495006  39.4345017
  25.8159987   6.9495006  39.4345017  24.6189987   7.8765006  39.4345017
  30.3689987   7.4085006  38.2245017  31.3259987   7.4085006  38.2245017
  30.1289987   8.3355006  38.2245017  29.4539987   7.6255006  49.6675017
  30.4109987   7.6255006  49.6675017  29.2139987   8.5525006  49.6675017
  31.4089987   6.9015006  41.0575017  32.3659987   6.9015006  41.0575017
  31.1689987   7.8285006  41.0575017  22.5419987   7.0735006  46.2875017
  23.4989987   7.0735006  46.2875017  22.3019987   8.0005006  46.2875017
  25.9219987   4.4945006  33.1395017  26.8789987   4.4945006  33.1395017
  25.6819987   5.4215006  33.1395017  19.1749987   4.2085006  40.2245017
  20.1319987   4.2085006  40.2245017  18.9349987   5.1355006  40.2245017
  20.4639987   4.9275006  35.6315017  21.4209987   4.9275006  35.6315017
  20.2239987   5.8545006  35.6315017  30.6249987   8.5035006  45.6415017
  31.5819987   8.5035006  45.6415017  30.3849987   9.4305006  45.6415017
  27.4249987   4.4745006  40.4535017  28.3819987   4.4745006  40.4535017
  27.1849987   5.4015006  40.4535017  22.2409987   6.0435006  39.3245017
  23.1979987   6.0435006  39.3245017  22.0009987   6.9705006  39.3245017
  25.8819987   6.0705006  36.9575017  26.8389987   6.0705006  36.9575017
  25.6419987   6.9975006  36.9575017  31.8379987   3.6755006  43.7015017
  32.7949987   3.6755006  43.7015017  31.5979987   4.6025006  43.7015017
  24.5759987   7.2505006  34.5405017  25.5329987   7.2505006  34.5405017
  24.3359987   8.1775006  34.5405017  35.0619987  19.3515006  50.0205017
  36.0189987  19.3515006  50.0205017  34.8219987  20.2785006  50.0205017
  22.7039987  11.8245006  49.5885017  23.6609987  11.8245006  49.5885017
  22.4639987  12.7515006  49.5885017  28.7119987   7.2265006  42.3525017
  29.6689987   7.2265006  42.3525017  28.4719987   8.1535006  42.3525017
  23.7079987   3.3695006  38.7755017  24.6649987   3.3695006  38.7755017
  23.4679987   4.2965006  38.7755017  27.3469987   5.5785006  44.7605017
  28.3039987   5.5785006  44.7605017  27.1069987   6.5055006  44.7605017
  27.9369987  11.7895006  36.4565017  28.8939987  11.7895006  36.4565017
  27.6969987  12.7165006  36.4565017  35.0999987  10.9665006  45.2635017
  36.0569987  10.9665006  45.2635017  34.8599987  11.8935006  45.2635017
  31.7859987   4.6015006  34.6335017  32.7429987   4.6015006  34.6335017
  31.5459987   5.5285006  34.6335017  29.4229987  12.0295006  47.6985017
  30.3799987  12.0295006  47.6985017  29.1829987  12.9565006  47.6985017
  32.5029987   6.5025006  36.2815017  33.4599987   6.5025006  36.2815017
  32.2629987   7.4295006  36.2815017  23.0389987  11.1595006  42.2575017
  23.9959987  11.1595006  42.2575017  22.7989987  12.0865006  42.2575017
  30.0369987  13.2495006  35.4965017  30.9939987  13.2495006  35.4965017
  29.7969987  14.1765006  35.4965017  20.0369987   9.5655006  47.5185017
  20.9939987   9.5655006  47.5185017  19.7969987  10.4925006  47.5185017
  27.0449987   9.1345006  49.7195017  28.0019987   9.1345006  49.7195017
  26.8049987  10.0615006  49.7195017  31.7159987  14.4655006  47.6415017
  32.6729987  14.4655006  47.6415017  31.4759987  15.3925006  47.6415017
  37.3969987   6.6695006  36.0395017  38.3539987   6.6695006  36.0395017
  37.1569987   7.5965006  36.0395017  37.3839987  12.5175006  48.8595017
  38.3409987  12.5175006  48.8595017  37.1439987  13.4445006  48.8595017
  35.8559987  15.7975006  36.1825017  36.8129987  15.7975006  36.1825017
  35.6159987  16.7245006  36.1825017  32.8889987  10.2885006  43.5555017
  33.8459987  10.2885006  43.5555017  32.6489987  11.2155006  43.5555017
  25.4129987  14.6255006  39.6425017  26.3699987  14.6255006  39.6425017
  25.1729987  15.5525006  39.6425017  21.1749987   9.4715006  34.2125017
  22.1319987   9.4715006  34.2125017  20.9349987  10.3985006  34.2125017
  26.8359987  12.2895006  39.1675017  27.7929987  12.2895006  39.1675017
  26.5959987  13.2165006  39.1675017  27.2939987  16.4665006  45.5565017
  28.2509987  16.4665006  45.5565017  27.0539987  17.3935006  45.5565017
  25.5089987  17.2935006  38.7075017  26.4659987  17.2935006  38.7075017
  25.2689987  18.2205006  38.7075017  30.8329987  12.4975006  45.2005017
  31.7899987  12.4975006  45.2005017  30.5929987  13.4245006  45.2005017
  33.1229987  13.5295006  34.2725017  34.0799987  13.5295006  34.2725017
  32.8829987  14.4565006  34.2725017  33.6009987  17.0675006  47.6945017
  34.5579987  17.0675006  47.6945017  33.3609987  17.9945006  47.6945017
  37.6149987  17.9185006  34.5135017  38.5719987  17.9185006  34.5135017
  37.3749987  18.8455006  34.5135017  21.6879987   4.3045006  47.1035017
  22.6449987   4.3045006  47.1035017  21.4479987   5.2315006  47.1035017
  33.9459987  11.6765006  36.2075017  34.9029987  11.6765006  36.2075017
  33.7059987  12.6035006  36.2075017  21.3509987  16.1195006  45.4755017
  22.3079987  16.1195006  45.4755017  21.1109987  17.0465006  45.4755017
  27.1719987  14.6435006  33.0895017  28.1289987  14.6435006  33.0895017
  26.9319987  15.5705006  33.0895017  26.0009987  14.1295006  35.2745017
  26.9579987  14.1295006  35.2745017  25.7609987  15.0565006  35.2745017
  22.5799987  11.3945006  35.7075017  23.5369987  11.3945006  35.7075017
  22.3399987  12.3215006  35.7075017  30.4099987   4.0815006  46.0125017
  31.3669987   4.0815006  46.0125017  30.1699987   5.0085006  46.0125017
  31.1869987   3.6595006  37.1075017  32.1439987   3.6595006  37.1075017
  30.9469987   4.5865006  37.1075017  28.8659987  15.8365006  35.9635017
  29.8229987  15.8365006  35.9635017  28.6259987  16.7635006  35.9635017
  28.4019987   5.3985006  37.9335017  29.3589987   5.3985006  37.9335017
  28.1619987   6.3255006  37.9335017  28.9399987   6.4285006  47.1195017
  29.8969987   6.4285006  47.1195017  28.6999987   7.3555006  47.1195017
  29.2599987   2.4775006  38.8495017  30.2169987   2.4775006  38.8495017
  29.0199987   3.4045006  38.8495017  26.2349987  16.8535006  35.9455017
  27.1919987  16.8535006  35.9455017  25.9949987  17.7805006  35.9455017
  24.8989987   3.5775006  35.5355017  25.8559987   3.5775006  35.5355017
  24.6589987   4.5045006  35.5355017  35.1309987   4.3265006  47.9575017
  36.0879987   4.3265006  47.9575017  34.8909987   5.2535006  47.9575017
  33.7309987   8.0935006  41.9975017  34.6879987   8.0935006  41.9975017
  33.4909987   9.0205006  41.9975017  23.1449987  14.0105006  34.5845017
  24.1019987  14.0105006  34.5845017  22.9049987  14.9375006  34.5845017
  21.4829987   6.6865006  33.7225017  22.4399987   6.6865006  33.7225017
  21.2429987   7.6135006  33.7225017  34.8019987  17.3385006  43.6615017
  35.7589987  17.3385006  43.6615017  34.5619987  18.2655006  43.6615017
  22.0679987   1.6735006  42.3165017  23.0249987   1.6735006  42.3165017
  21.8279987   2.6005006  42.3165017  21.2439987  15.3935006  38.5975017
  22.2009987  15.3935006  38.5975017  21.0039987  16.3205006  38.5975017
  20.5739987  18.1855006  50.0965017  21.5309987  18.1855006  50.0965017
  20.3339987  19.1125006  50.0965017  25.1199987  16.9555006  51.5045017
  26.0769987  16.9555006  51.5045017  24.8799987  17.8825006  51.5045017
  29.2739987  16.4795006  32.9615017  30.2309987  16.4795006  32.9615017
  29.0339987  17.4065006  32.9615017  31.6569987  15.3385006  50.2385017
  32.6139987  15.3385006  50.2385017  31.4169987  16.2655006  50.2385017
  33.8149987  16.2265006  33.0745017  34.7719987  16.2265006  33.0745017
  33.5749987  17.1535006  33.0745017  20.3919987  11.8085006  50.8845017
  21.3489987  11.8085006  50.8845017  20.1519987  12.7355006  50.8845017
  24.7039987  12.1515006  32.9385017  25.6609987  12.1515006  32.9385017
  24.4639987  13.0785006  32.9385017  27.0879987  11.8025006  50.2745017
  28.0449987  11.8025006  50.2745017  26.8479987  12.7295006  50.2745017
  30.2239987  13.2325006  32.7215017  31.1809987  13.2325006  32.7215017
  29.9839987  14.1595006  32.7215017  32.7909987  11.6725006  47.6605017
  33.7479987  11.6725006  47.6605017  32.5509987  12.5995006  47.6605017
  21.2829987   9.0415006  50.2625017  22.2399987   9.0415006  50.2625017
  21.0429987   9.9685006  50.2625017  25.9179987  10.1735006  35.3115017
  26.8749987  10.1735006  35.3115017  25.6779987  11.1005006  35.3115017
  25.1939987   7.9985006  47.6295017  26.1509987   7.9985006  47.6295017
  24.9539987   8.9255006  47.6295017  26.9879987   8.3935006  33.5365017
  27.9449987   8.3935006  33.5365017  26.7479987   9.3205006  33.5365017
  30.2499987  10.5435006  50.9455017  31.2069987  10.5435006  50.9455017
  30.0099987  11.4705006  50.9455017  36.3569987  10.7275006  32.9555017
  37.3139987  10.7275006  32.9555017  36.1169987  11.6545006  32.9555017
  25.5799987   5.3675006  48.6935017  26.5369987   5.3675006  48.6935017
  25.3399987   6.2945006  48.6935017  25.9959987   3.7415006  46.2315017
  26.9529987   3.7415006  46.2315017  25.7559987   4.6685006  46.2315017
  27.5369987   9.2185006  46.4765017  28.4939987   9.2185006  46.4765017
  27.2969987  10.1455006  46.4765017  31.9349987   6.9965006  51.4495017
  32.8919987   6.9965006  51.4495017  31.6949987   7.9235006  51.4495017
  33.2619987   9.7875006  49.5935017  34.2189987   9.7875006  49.5935017
  33.0219987  10.7145006  49.5935017  24.0459987   6.6195006  50.6135017
  25.0029987   6.6195006  50.6135017  23.8059987   7.5465006  50.6135017
  26.8599987   1.2295006  46.5065017  27.8169987   1.2295006  46.5065017
  26.6199987   2.1565006  46.5065017  28.0449987   5.5145006  50.2305017
  29.0019987   5.5145006  50.2305017  27.8049987   6.4415006  50.2305017
  30.7649987   4.6875006  49.3245017  31.7219987   4.6875006  49.3245017
  30.5249987   5.6145006  49.3245017  32.3949987   3.3055006  51.2605017
  33.3519987   3.3055006  51.2605017  32.1549987   4.2325006  51.2605017
  22.1389987   4.5265006  50.3535017  23.0959987   4.5265006  50.3535017
  21.8989987   5.4535006  50.3535017  27.5709987 108.5295006  49.3795017
  28.5279987 108.5295006  49.3795017  27.3309987 109.4565006  49.3795017
  27.3429987   2.2545006  51.4685017  28.2999987   2.2545006  51.4685017
  27.1029987   3.1815006  51.4685017  26.8379987  19.0915006  34.5955017
  27.7949987  19.0915006  34.5955017  26.5979987  20.0185006  34.5955017
  20.4039987  13.6935006  34.0665017  21.3609987  13.6935006  34.0665017
  20.1639987  14.6205006  34.0665017  19.1449987  19.0755006  39.0585017
  20.1019987  19.0755006  39.0585017  18.9049987  20.0025006  39.0585017
  19.9659987  17.1935006  40.9025017  20.9229987  17.1935006  40.9025017
  19.7259987  18.1205006  40.9025017  37.5159987  17.9895006  43.8545017
  38.4729987  17.9895006  43.8545017  37.2759987  18.9165006  43.8545017
  37.1089987  17.5945006  46.8125017  38.0659987  17.5945006  46.8125017
  36.8689987  18.5215006  46.8125017  35.5379987  13.3175006  51.4545017
  36.4949987  13.3175006  51.4545017  35.2979987  14.2445006  51.4545017
  36.9369987  11.5355006  36.8375017  37.8939987  11.5355006  36.8375017
  36.6969987  12.4625006  36.8375017  37.2219987   9.6895006  38.7845017
  38.1789987   9.6895006  38.7845017  36.9819987  10.6165006  38.7845017
  36.9779987  12.4225006  43.7715017  37.9349987  12.4225006  43.7715017
  36.7379987  13.3495006  43.7715017  35.5229987  15.3135006  46.0495017
  36.4799987  15.3135006  46.0495017  35.2829987  16.2405006  46.0495017
  37.5279987   9.5345006  35.1705017  38.4849987   9.5345006  35.1705017
  37.2879987  10.4615006  35.1705017  35.8969987   6.7725006  33.6975017
  36.8539987   6.7725006  33.6975017  35.6569987   7.6995006  33.6975017
  35.0409987   8.1735006  39.3535017  35.9979987   8.1735006  39.3535017
  34.8009987   9.1005006  39.3535017  20.0409987  10.2695006  43.3985017
  20.9979987  10.2695006  43.3985017  19.8009987  11.1965006  43.3985017
  35.8819987  10.1585006  49.0255017  36.8389987  10.1585006  49.0255017
  35.6419987  11.0855006  49.0255017  37.3929987   8.0485006  49.6915017
  38.3499987   8.0485006  49.6915017  37.1529987   8.9755006  49.6915017
  35.1129987   4.2585006  32.8575017  36.0699987   4.2585006  32.8575017
  34.8729987   5.1855006  32.8575017  34.6909987   5.7805006  37.7835017
  35.6479987   5.7805006  37.7835017  34.4509987   6.7075006  37.7835017
  35.3349987   6.3255006  43.2435017  36.2919987   6.3255006  43.2435017
  35.0949987   7.2525006  43.2435017  35.3999987   7.0545006  46.0315017
  36.3569987   7.0545006  46.0315017  35.1599987   7.9815006  46.0315017
  19.6569987   5.5765006  49.5445017  20.6139987   5.5765006  49.5445017
  19.4169987   6.5035006  49.5445017  37.6059987   1.1865006  51.3265017
  38.5629987   1.1865006  51.3265017  37.3659987   2.1135006  51.3265017
  35.3529987   3.0585006  37.8325017  36.3099987   3.0585006  37.8325017
  35.1129987   3.9855006  37.8325017  20.8289987   3.8995006  42.4075017
  21.7859987   3.8995006  42.4075017  20.5889987   4.8265006  42.4075017
  19.1439987   6.8515006  43.4585017  20.1009987   6.8515006  43.4585017
  18.9039987   7.7785006  43.4585017  37.1949987   3.2095006  49.7265017
  38.1519987   3.2095006  49.7265017  36.9549987   4.1365006  49.7265017
  37.2089987   3.1185006  34.4225017  38.1659987   3.1185006  34.4225017
  36.9689987   4.0455006  34.4225017  19.4929987   3.0925006  37.5495017
  20.4499987   3.0925006  37.5495017  19.2529987   4.0195006  37.5495017
  34.2449987  18.0835006  39.4735017  35.2019987  18.0835006  39.4735017
  34.0049987  19.0105006  39.4735017  19.4709987   1.8185006  45.8395017
  20.4279987   1.8185006  45.8395017  19.2309987   2.7455006  45.8395017
  21.6939987  14.9875006  49.9895017  22.6509987  14.9875006  49.9895017
  21.4539987  15.9145006  49.9895017  24.6069987  15.9735006  46.2625017
  25.5639987  15.9735006  46.2625017  24.3669987  16.9005006  46.2625017
  28.9129987  17.4035006  49.1835017  29.8699987  17.4035006  49.1835017
  28.6729987  18.3305006  49.1835017  31.2119987  18.6735006  48.4705017
  32.1689987  18.6735006  48.4705017  30.9719987  19.6005006  48.4705017
  36.2969987   1.4255006  47.5265017  37.2539987   1.4255006  47.5265017
  36.0569987   2.3525006  47.5265017  22.0239987  19.2335006  46.2835017
  22.9809987  19.2335006  46.2835017  21.7839987  20.1605006  46.2835017
  24.4849987  18.8065006  45.3405017  25.4419987  18.8065006  45.3405017
  24.2449987  19.7335006  45.3405017  29.1889987  18.7155006  44.5095017
  30.1459987  18.7155006  44.5095017  28.9489987  19.6425006  44.5095017
  31.4979987  17.5465006  45.5045017  32.4549987  17.5465006  45.5045017
  31.2579987  18.4735006  45.5045017  34.0809987  19.1155006  45.7615017
  35.0379987  19.1155006  45.7615017  33.8409987  20.0425006  45.7615017
  21.4649987  17.8785006  43.1885017  22.4219987  17.8785006  43.1885017
  21.2249987  18.8055006  43.1885017  23.5489987  16.5845006  41.8565017
  24.5059987  16.5845006  41.8565017  23.3089987  17.5115006  41.8565017
  26.1359987  17.0665006  42.7285017  27.0929987  17.0665006  42.7285017
  25.8959987  17.9935006  42.7285017  29.5999987   2.7455006  41.8685017
  30.5569987   2.7455006  41.8685017  29.3599987   3.6725006  41.8685017
  34.8209987   1.0815006  42.1245017  35.7779987   1.0815006  42.1245017
  34.5809987   2.0085006  42.1245017  36.4539987   1.9945006  40.2485017
  37.4109987   1.9945006  40.2485017  36.2139987   2.9215006  40.2485017
  21.9269987   1.3245006  39.7075017  22.8839987   1.3245006  39.7075017
  21.6869987   2.2515006  39.7075017  21.0309987   1.5195006  35.8575017
  21.9879987   1.5195006  35.8575017  20.7909987   2.4465006  35.8575017
  26.4869987   1.3035006  39.4915017  27.4439987   1.3035006  39.4915017
  26.2469987   2.2305006  39.4915017  32.0789987   1.3265006  41.1385017
  33.0359987   1.3265006  41.1385017  31.8389987   2.2535006  41.1385017
  33.4329987   1.3525006  36.8815017  34.3899987   1.3525006  36.8815017
  33.1929987   2.2795006  36.8815017  20.6719987  17.0555006  36.4435017
  21.6289987  17.0555006  36.4435017  20.4319987  17.9825006  36.4435017
  22.5959987   3.0375006  33.9115017  23.5529987   3.0375006  33.9115017
  22.3559987   3.9645006  33.9115017  27.5969987   3.3085006  36.3675017
  28.5539987   3.3085006  36.3675017  27.3569987   4.2355006  36.3675017
  36.2489987  17.9105006  37.5385017  37.2059987  17.9105006  37.5385017
  36.0089987  18.8375006  37.5385017  21.8439987   1.9025006  49.2315017
  22.8009987   1.9025006  49.2315017  21.6039987   2.8295006  49.2315017
  23.8689987   1.2455006  50.7745017  24.8259987   1.2455006  50.7745017
  23.6289987   2.1725006  50.7745017  22.4649987  18.0275006  33.4085017
  23.4219987  18.0275006  33.4085017  22.2249987  18.9545006  33.4085017
  32.3489987 108.3825006  50.8105017  33.3059987 108.3825006  50.8105017
  32.1089987 109.3095006  50.8105017  35.4809987  16.6005006  49.6065017
  36.4379987  16.6005006  49.6065017  35.2409987  17.5275006  49.6065017
  49.9129987  10.4745006  39.6045017  50.8699987  10.4745006  39.6045017
  49.6729987  11.4015006  39.6045017  48.7829987   9.7485006  43.0805017
  49.7399987   9.7485006  43.0805017  48.5429987  10.6755006  43.0805017
  41.1399987   9.4025006  44.6345017  42.0969987   9.4025006  44.6345017
  40.8999987  10.3295006  44.6345017  52.4519987  12.7015006  41.3415017
  53.4089987  12.7015006  41.3415017  52.2119987  13.6285006  41.3415017
  42.0679987  13.8525006  43.1575017  43.0249987  13.8525006  43.1575017
  41.8279987  14.7795006  43.1575017  38.7099987   7.4335006  38.6145017
  39.6669987   7.4335006  38.6145017  38.4699987   8.3605006  38.6145017
  39.4079987   9.6545006  40.7485017  40.3649987   9.6545006  40.7485017
  39.1679987  10.5815006  40.7485017  47.1579987  12.1515006  43.5185017
  48.1149987  12.1515006  43.5185017  46.9179987  13.0785006  43.5185017
  55.7919987   3.7595006  44.2835017  56.7489987   3.7595006  44.2835017
  55.5519987   4.6865006  44.2835017  50.3269987   6.5975006  43.8515017
  51.2839987   6.5975006  43.8515017  50.0869987   7.5245006  43.8515017
  43.4559987   4.7025006  41.0745017  44.4129987   4.7025006  41.0745017
  43.2159987   5.6295006  41.0745017  51.1879987   4.7825006  39.4545017
  52.1449987   4.7825006  39.4545017  50.9479987   5.7095006  39.4545017
  40.0709987   7.1055006  41.8205017  41.0279987   7.1055006  41.8205017
  39.8309987   8.0325006  41.8205017  45.2329987   8.6595006  41.1065017
  46.1899987   8.6595006  41.1065017  44.9929987   9.5865006  41.1065017
  56.2209987   5.2215006  46.5475017  57.1779987   5.2215006  46.5475017
  55.9809987   6.1485006  46.5475017  42.3489987   3.6035006  45.1335017
  43.3059987   3.6035006  45.1335017  42.1089987   4.5305006  45.1335017
  49.6189987  13.0815006  38.6775017  50.5759987  13.0815006  38.6775017
  49.3789987  14.0085006  38.6775017  44.8659987  11.2415006  45.3815017
  45.8229987  11.2415006  45.3815017  44.6259987  12.1685006  45.3815017
  52.9769987   4.1045006  41.4345017  53.9339987   4.1045006  41.4345017
  52.7369987   5.0315006  41.4345017  41.8959987   5.4805006  43.1275017
  42.8529987   5.4805006  43.1275017  41.6559987   6.4075006  43.1275017
  43.3029987  13.2305006  46.1915017  44.2599987  13.2305006  46.1915017
  43.0629987  14.1575006  46.1915017  39.4339987  12.8705006  36.9775017
  40.3909987  12.8705006  36.9775017  39.1939987  13.7975006  36.9775017
  52.9839987  14.4975006  43.6655017  53.9409987  14.4975006  43.6655017
  52.7439987  15.4245006  43.6655017  53.3509987   2.8045006  45.1865017
  54.3079987   2.8045006  45.1865017  53.1109987   3.7315006  45.1865017
  46.2739987   0.9635006  42.4465017  47.2309987   0.9635006  42.4465017
  46.0339987   1.8905006  42.4465017  52.4169987  14.2305006  38.8255017
  53.3739987  14.2305006  38.8255017  52.1769987  15.1575006  38.8255017
  48.5849987   9.7215006  37.0955017  49.5419987   9.7215006  37.0955017
  48.3449987  10.6485006  37.0955017  48.6639987   8.2925006  34.1005017
  49.6209987   8.2925006  34.1005017  48.4239987   9.2195006  34.1005017
  55.9439987   9.0965006  45.3625017  56.9009987   9.0965006  45.3625017
  55.7039987  10.0235006  45.3625017  52.0209987   9.9335006  38.0225017
  52.9779987   9.9335006  38.0225017  51.7809987  10.8605006  38.0225017
  51.9519987   8.0985006  47.1295017  52.9089987   8.0985006  47.1295017
  51.7119987   9.0255006  47.1295017  43.6419987  10.5975006  39.9315017
  44.5989987  10.5975006  39.9315017  43.4019987  11.5245006  39.9315017
  44.9719987  13.9945006  42.6095017  45.9289987  13.9945006  42.6095017
  44.7319987  14.9215006  42.6095017  43.9789987   9.3385006  43.5835017
  44.9359987   9.3385006  43.5835017  43.7389987  10.2655006  43.5835017
  50.3429987  14.8915006  44.2715017  51.2999987  14.8915006  44.2715017
  50.1029987  15.8185006  44.2715017  44.9179987  13.7595006  48.2875017
  45.8749987  13.7595006  48.2875017  44.6779987  14.6865006  48.2875017
  50.8579987   9.1725006  35.7015017  51.8149987   9.1725006  35.7015017
  50.6179987  10.0995006  35.7015017  41.8519987   9.9275006  47.4635017
  42.8089987   9.9275006  47.4635017  41.6119987  10.8545006  47.4635017
  43.1579987  15.8085006  49.0415017  44.1149987  15.8085006  49.0415017
  42.9179987  16.7355006  49.0415017  54.6359987   0.9025006  35.5975017
  55.5929987   0.9025006  35.5975017  54.3959987   1.8295006  35.5975017
  42.6169987   9.6225006  37.5465017  43.5739987   9.6225006  37.5465017
  42.3769987  10.5495006  37.5465017  55.7399987  15.2005006  33.9285017
  56.6969987  15.2005006  33.9285017  55.4999987  16.1275006  33.9285017
  38.7099987  12.0435006  46.4145017  39.6669987  12.0435006  46.4145017
  38.4699987  12.9705006  46.4145017  38.4589987  14.7825006  43.2115017
  39.4159987  14.7825006  43.2115017  38.2189987  15.7095006  43.2115017
  47.6569987  15.0235006  47.7675017  48.6139987  15.0235006  47.7675017
  47.4169987  15.9505006  47.7675017  41.7309987  17.6235006  39.3795017
  42.6879987  17.6235006  39.3795017  41.4909987  18.5505006  39.3795017
  53.8359987   6.9505006  49.3925017  54.7929987   6.9505006  49.3925017
  53.5959987   7.8775006  49.3925017  40.9799987  13.3625006  47.3815017
  41.9369987  13.3625006  47.3815017  40.7399987  14.2895006  47.3815017
  43.7419987   1.9225006  43.2795017  44.6989987   1.9225006  43.2795017
  43.5019987   2.8495006  43.2795017  48.3199987   1.5595006  46.7585017
  49.2769987   1.5595006  46.7585017  48.0799987   2.4865006  46.7585017
  51.5929987   5.3015006  47.5955017  52.5499987   5.3015006  47.5955017
  51.3529987   6.2285006  47.5955017  52.3169987  10.2035006  33.4425017
  53.2739987  10.2035006  33.4425017  52.0769987  11.1305006  33.4425017
  47.9199987   4.0695006  34.0185017  48.8769987   4.0695006  34.0185017
  47.6799987   4.9965006  34.0185017  43.7499987   6.7895006  44.5565017
  44.7069987   6.7895006  44.5565017  43.5099987   7.7165006  44.5565017
  43.7149987   6.9495006  39.4345017  44.6719987   6.9495006  39.4345017
  43.4749987   7.8765006  39.4345017  49.2399987   7.4155006  38.2275017
  50.1969987   7.4155006  38.2275017  48.9999987   8.3425006  38.2275017
  48.3099987   7.6255006  49.6675017  49.2669987   7.6255006  49.6675017
  48.0699987   8.5525006  49.6675017  50.2649987   6.9015006  41.0575017
  51.2219987   6.9015006  41.0575017  50.0249987   7.8285006  41.0575017
  41.3979987   7.0735006  46.2875017  42.3549987   7.0735006  46.2875017
  41.1579987   8.0005006  46.2875017  44.7769987   4.4945006  33.1395017
  45.7339987   4.4945006  33.1395017  44.5369987   5.4215006  33.1395017
  38.0309987   4.2085006  40.2245017  38.9879987   4.2085006  40.2245017
  37.7909987   5.1355006  40.2245017  39.3199987   4.9275006  35.6315017
  40.2769987   4.9275006  35.6315017  39.0799987   5.8545006  35.6315017
  49.4769987   8.5035006  45.6415017  50.4339987   8.5035006  45.6415017
  49.2369987   9.4305006  45.6415017  46.2809987   4.4745006  40.4535017
  47.2379987   4.4745006  40.4535017  46.0409987   5.4015006  40.4535017
  41.0969987   6.0435006  39.3245017  42.0539987   6.0435006  39.3245017
  40.8569987   6.9705006  39.3245017  44.7389987   6.0705006  36.9565017
  45.6959987   6.0705006  36.9565017  44.4989987   6.9975006  36.9565017
  50.6939987   3.6755006  43.7015017  51.6509987   3.6755006  43.7015017
  50.4539987   4.6025006  43.7015017  43.4279987   7.2495006  34.5405017
  44.3849987   7.2495006  34.5405017  43.1879987   8.1765006  34.5405017
  53.8859987  19.3665006  50.0345017  54.8429987  19.3665006  50.0345017
  53.6459987  20.2935006  50.0345017  41.5679987  11.8115006  49.5925017
  42.5249987  11.8115006  49.5925017  41.3279987  12.7385006  49.5925017
  47.5679987   7.2265006  42.3525017  48.5249987   7.2265006  42.3525017
  47.3279987   8.1535006  42.3525017  42.5639987   3.3695006  38.7755017
  43.5209987   3.3695006  38.7755017  42.3239987   4.2965006  38.7755017
  46.2029987   5.5785006  44.7605017  47.1599987   5.5785006  44.7605017
  45.9629987   6.5055006  44.7605017  46.7829987  11.7825006  36.4775017
  47.7399987  11.7825006  36.4775017  46.5429987  12.7095006  36.4775017
  53.9439987  10.9255006  45.2475017  54.9009987  10.9255006  45.2475017
  53.7039987  11.8525006  45.2475017  50.6169987   4.5995006  34.6645017
  51.5739987   4.5995006  34.6645017  50.3769987   5.5265006  34.6645017
  48.3049987  12.0355006  47.7035017  49.2619987  12.0355006  47.7035017
  48.0649987  12.9625006  47.7035017  51.3559987   6.5155006  36.2885017
  52.3129987   6.5155006  36.2885017  51.1159987   7.4425006  36.2885017
  41.8959987  11.1595006  42.2575017  42.8529987  11.1595006  42.2575017
  41.6559987  12.0865006  42.2575017  48.9179987  13.2935006  35.5315017
  49.8749987  13.2935006  35.5315017  48.6779987  14.2205006  35.5315017
  38.8879987   9.5805006  47.5305017  39.8449987   9.5805006  47.5305017
  38.6479987  10.5075006  47.5305017  45.9009987   9.1345006  49.7195017
  46.8579987   9.1345006  49.7195017  45.6609987  10.0615006  49.7195017
  50.5249987  14.4485006  47.6365017  51.4819987  14.4485006  47.6365017
  50.2849987  15.3755006  47.6365017  56.2559987   6.6745006  36.0455017
  57.2129987   6.6745006  36.0455017  56.0159987   7.6015006  36.0455017
  54.5339987  15.4865006  36.4485017  55.4909987  15.4865006  36.4485017
  54.2939987  16.4135006  36.4485017  51.7319987  10.2975006  43.5305017
  52.6889987  10.2975006  43.5305017  51.4919987  11.2245006  43.5305017
  44.2759987  14.6235006  39.6405017  45.2329987  14.6235006  39.6405017
  44.0359987  15.5505006  39.6405017  40.0289987   9.4735006  34.2115017
  40.9859987   9.4735006  34.2115017  39.7889987  10.4005006  34.2115017
  45.6969987  12.2995006  39.1425017  46.6539987  12.2995006  39.1425017
  45.4569987  13.2265006  39.1425017  46.1409987  16.4625006  45.5615017
  47.0979987  16.4625006  45.5615017  45.9009987  17.3895006  45.5615017
  44.3939987  17.2815006  38.7315017  45.3509987  17.2815006  38.7315017
  44.1539987  18.2085006  38.7315017  49.6909987  12.4915006  45.2065017
  50.6479987  12.4915006  45.2065017  49.4509987  13.4185006  45.2065017
  51.9789987  13.5045006  34.2675017  52.9359987  13.5045006  34.2675017
  51.7389987  14.4315006  34.2675017  52.3579987  17.1045006  47.6995017
  53.3149987  17.1045006  47.6995017  52.1179987  18.0315006  47.6995017
  56.4669987  17.9115006  34.5365017  57.4239987  17.9115006  34.5365017
  56.2269987  18.8385006  34.5365017  40.5439987   4.3045006  47.1035017
  41.5009987   4.3045006  47.1035017  40.3039987   5.2315006  47.1035017
  52.7709987  12.1545006  36.5105017  53.7279987  12.1545006  36.5105017
  52.5309987  13.0815006  36.5105017  40.1639987  16.1115006  45.5055017
  41.1209987  16.1115006  45.5055017  39.9239987  17.0385006  45.5055017
  46.1359987  14.5885006  32.7785017  47.0929987  14.5885006  32.7785017
  45.8959987  15.5155006  32.7785017  44.9829987  14.1315006  35.2045017
  45.9399987  14.1315006  35.2045017  44.7429987  15.0585006  35.2045017
  41.4339987  11.3925006  35.7085017  42.3909987  11.3925006  35.7085017
  41.1939987  12.3195006  35.7085017  49.2659987   4.0815006  46.0125017
  50.2229987   4.0815006  46.0125017  49.0259987   5.0085006  46.0125017
  50.0369987   3.6565006  37.1105017  50.9939987   3.6565006  37.1105017
  49.7969987   4.5835006  37.1105017  47.7079987  15.7875006  35.9375017
  48.6649987  15.7875006  35.9375017  47.4679987  16.7145006  35.9375017
  47.2579987   5.3995006  37.9335017  48.2149987   5.3995006  37.9335017
  47.0179987   6.3265006  37.9335017  47.7959987   6.4285006  47.1195017
  48.7529987   6.4285006  47.1195017  47.5559987   7.3555006  47.1195017
  48.1159987   2.4775006  38.8495017  49.0729987   2.4775006  38.8495017
  47.8759987   3.4045006  38.8495017  45.0949987  16.8465006  35.9465017
  46.0519987  16.8465006  35.9465017  44.8549987  17.7735006  35.9465017
  43.7539987   3.5775006  35.5355017  44.7109987   3.5775006  35.5355017
  43.5139987   4.5045006  35.5355017  53.9869987   4.3265006  47.9575017
  54.9439987   4.3265006  47.9575017  53.7469987   5.2535006  47.9575017
  52.5869987   8.0935006  41.9975017  53.5439987   8.0935006  41.9975017
  52.3469987   9.0205006  41.9975017  42.0079987  14.0035006  34.5935017
  42.9649987  14.0035006  34.5935017  41.7679987  14.9305006  34.5935017
  40.3389987   6.6875006  33.7225017  41.2959987   6.6875006  33.7225017
  40.0989987   7.6145006  33.7225017  53.6729987  17.3535006  43.6485017
  54.6299987  17.3535006  43.6485017  53.4329987  18.2805006  43.6485017
  40.9239987   1.6735006  42.3165017  41.8809987   1.6735006  42.3165017
  40.6839987   2.6005006  42.3165017  40.1239987  15.4045006  38.5985017
  41.0809987  15.4045006  38.5985017  39.8839987  16.3315006  38.5985017
  39.3289987  18.0625006  49.8915017  40.2859987  18.0625006  49.8915017
  39.0889987  18.9895006  49.8915017  43.9879987  16.9545006  51.5095017
  44.9449987  16.9545006  51.5095017  43.7479987  17.8815006  51.5095017
  48.1109987  16.4515006  32.9495017  49.0679987  16.4515006  32.9495017
  47.8709987  17.3785006  32.9495017  50.4829987  15.3405006  50.2555017
  51.4399987  15.3405006  50.2555017  50.2429987  16.2675006  50.2555017
  52.6769987  16.2205006  33.0855017  53.6339987  16.2205006  33.0855017
  52.4369987  17.1475006  33.0855017  39.2469987  11.8225006  50.8765017
  40.2039987  11.8225006  50.8765017  39.0069987  12.7495006  50.8765017
  43.6179987  12.1805006  32.9545017  44.5749987  12.1805006  32.9545017
  43.3779987  13.1075006  32.9545017  45.9439987  11.8025006  50.2745017
  46.9009987  11.8025006  50.2745017  45.7039987  12.7295006  50.2745017
  49.0059987  13.2875006  32.6575017  49.9629987  13.2875006  32.6575017
  48.7659987  14.2145006  32.6575017  51.6559987  11.6805006  47.6745017
  52.6129987  11.6805006  47.6745017  51.4159987  12.6075006  47.6745017
  40.1389987   9.0425006  50.2635017  41.0959987   9.0425006  50.2635017
  39.8989987   9.9695006  50.2635017  44.8169987  10.1795006  35.3175017
  45.7739987  10.1795006  35.3175017  44.5769987  11.1065006  35.3175017
  44.0499987   7.9985006  47.6295017  45.0069987   7.9985006  47.6295017
  43.8099987   8.9255006  47.6295017  45.8559987   8.4395006  33.5355017
  46.8129987   8.4395006  33.5355017  45.6159987   9.3665006  33.5355017
  49.1019987  10.5405006  50.9395017  50.0589987  10.5405006  50.9395017
  48.8619987  11.4675006  50.9395017  55.1949987  10.7235006  32.9695017
  56.1519987  10.7235006  32.9695017  54.9549987  11.6505006  32.9695017
  44.4359987   5.3675006  48.6935017  45.3929987   5.3675006  48.6935017
  44.1959987   6.2945006  48.6935017  44.8519987   3.7415006  46.2315017
  45.8089987   3.7415006  46.2315017  44.6119987   4.6685006  46.2315017
  46.3929987   9.2185006  46.4745017  47.3499987   9.2185006  46.4745017
  46.1529987  10.1455006  46.4745017  50.7929987   6.9995006  51.4545017
  51.7499987   6.9995006  51.4545017  50.5529987   7.9265006  51.4545017
  52.1239987   9.7925006  49.5935017  53.0809987   9.7925006  49.5935017
  51.8839987  10.7195006  49.5935017  42.9019987   6.6195006  50.6125017
  43.8589987   6.6195006  50.6125017  42.6619987   7.5465006  50.6125017
  45.7159987   1.2295006  46.5065017  46.6729987   1.2295006  46.5065017
  45.4759987   2.1565006  46.5065017  46.9009987   5.5155006  50.2305017
  47.8579987   5.5155006  50.2305017  46.6609987   6.4425006  50.2305017
  49.6219987   4.6865006  49.3255017  50.5789987   4.6865006  49.3255017
  49.3819987   5.6135006  49.3255017  51.2499987   3.3055006  51.2635017
  52.2069987   3.3055006  51.2635017  51.0099987   4.2325006  51.2635017
  40.9949987   4.5265006  50.3535017  41.9519987   4.5265006  50.3535017
  40.7549987   5.4535006  50.3535017  46.4269987 108.5285006  49.3795017
  47.3839987 108.5285006  49.3795017  46.1869987 109.4555006  49.3795017
  46.1979987   2.2545006  51.4685017  47.1549987   2.2545006  51.4685017
  45.9579987   3.1815006  51.4685017  45.7269987  19.0665006  34.5635017
  46.6839987  19.0665006  34.5635017  45.4869987  19.9935006  34.5635017
  39.2729987  13.7055006  34.0445017  40.2299987  13.7055006  34.0445017
  39.0329987  14.6325006  34.0445017  38.0309987  19.0825006  39.0475017
  38.9879987  19.0825006  39.0475017  37.7909987  20.0095006  39.0475017
  38.8309987  17.1885006  40.9095017  39.7879987  17.1885006  40.9095017
  38.5909987  18.1155006  40.9095017  56.3869987  17.9905006  43.8445017
  57.3439987  17.9905006  43.8445017  56.1469987  18.9175006  43.8445017
  54.4099987  13.2695006  51.5455017  55.3669987  13.2695006  51.5455017
  54.1699987  14.1965006  51.5455017  55.7029987  11.6335006  36.9165017
  56.6599987  11.6335006  36.9165017  55.4629987  12.5605006  36.9165017
  56.0709987   9.7065006  38.7855017  57.0279987   9.7065006  38.7855017
  55.8309987  10.6335006  38.7855017  55.8009987  12.4205006  43.6955017
  56.7579987  12.4205006  43.6955017  55.5609987  13.3475006  43.6955017
  54.3519987  15.3755006  45.9655017  55.3089987  15.3755006  45.9655017
  54.1119987  16.3025006  45.9655017  56.3949987   9.5485006  35.1825017
  57.3519987   9.5485006  35.1825017  56.1549987  10.4755006  35.1825017
  54.8329987   6.8545006  33.7075017  55.7899987   6.8545006  33.7075017
  54.5929987   7.7815006  33.7075017  53.8889987   8.1875006  39.3475017
  54.8459987   8.1875006  39.3475017  53.6489987   9.1145006  39.3475017
  38.8939987  10.2705006  43.4015017  39.8509987  10.2705006  43.4015017
  38.6539987  11.1975006  43.4015017  54.7289987  10.1745006  49.0645017
  55.6859987  10.1745006  49.0645017  54.4889987  11.1015006  49.0645017
  56.2439987   8.0505006  49.6945017  57.2009987   8.0505006  49.6945017
  56.0039987   8.9775006  49.6945017  53.5789987   4.7185006  33.3045017
  54.5359987   4.7185006  33.3045017  53.3389987   5.6455006  33.3045017
  53.5439987   5.7805006  37.7805017  54.5009987   5.7805006  37.7805017
  53.3039987   6.7075006  37.7805017  54.1899987   6.3255006  43.2435017
  55.1469987   6.3255006  43.2435017  53.9499987   7.2525006  43.2435017
  54.2549987   7.0525006  46.0315017  55.2119987   7.0525006  46.0315017
  54.0149987   7.9795006  46.0315017  38.5129987   5.5765006  49.5455017
  39.4699987   5.5765006  49.5455017  38.2729987   6.5035006  49.5455017
  56.4629987   1.1865006  51.3275017  57.4199987   1.1865006  51.3275017
  56.2229987   2.1135006  51.3275017  54.2019987   3.0675006  37.8525017
  55.1589987   3.0675006  37.8525017  53.9619987   3.9945006  37.8525017
  39.6849987   3.8995006  42.4075017  40.6419987   3.8995006  42.4075017
  39.4449987   4.8265006  42.4075017  38.0009987   6.8515006  43.4585017
  38.9579987   6.8515006  43.4585017  37.7609987   7.7785006  43.4585017
  56.0499987   3.2095006  49.7265017  57.0069987   3.2095006  49.7265017
  55.8099987   4.1365006  49.7265017  56.2079987   3.0875006  34.6075017
  57.1649987   3.0875006  34.6075017  55.9679987   4.0145006  34.6075017
  38.3489987   3.0925006  37.5485017  39.3059987   3.0925006  37.5485017
  38.1089987   4.0195006  37.5485017  38.3259987   1.8185006  45.8385017
  39.2829987   1.8185006  45.8385017  38.0859987   2.7455006  45.8385017
  40.5379987  14.9835006  49.9905017  41.4949987  14.9835006  49.9905017
  40.2979987  15.9105006  49.9905017  43.4509987  15.9655006  46.2505017
  44.4079987  15.9655006  46.2505017  43.2109987  16.8925006  46.2505017
  47.7579987  17.3875006  49.1785017  48.7149987  17.3875006  49.1785017
  47.5179987  18.3145006  49.1785017  50.1019987  18.6925006  48.4495017
  51.0589987  18.6925006  48.4495017  49.8619987  19.6195006  48.4495017
  55.1529987   1.4245006  47.5265017  56.1099987   1.4245006  47.5265017
  54.9129987   2.3515006  47.5265017  40.8819987  19.2615006  46.2925017
  41.8389987  19.2615006  46.2925017  40.6419987  20.1885006  46.2925017
  43.3429987  18.8035006  45.3415017  44.2999987  18.8035006  45.3415017
  43.1029987  19.7305006  45.3415017  48.0369987  18.7005006  44.5245017
  48.9939987  18.7005006  44.5245017  47.7969987  19.6275006  44.5245017
  50.3729987  17.5585006  45.5145017  51.3299987  17.5585006  45.5145017
  50.1329987  18.4855006  45.5145017  40.3069987  17.8675006  43.2115017
  41.2639987  17.8675006  43.2115017  40.0669987  18.7945006  43.2115017
  42.4029987  16.5815006  41.8625017  43.3599987  16.5815006  41.8625017
  42.1629987  17.5085006  41.8625017  44.9999987  17.0695006  42.7195017
  45.9569987  17.0695006  42.7195017  44.7599987  17.9965006  42.7195017
  48.4569987   2.7455006  41.8685017  49.4139987   2.7455006  41.8685017
  48.2169987   3.6725006  41.8685017  53.6759987   1.0805006  42.1255017
  54.6329987   1.0805006  42.1255017  53.4359987   2.0075006  42.1255017
  55.3139987   1.9895006  40.2635017  56.2709987   1.9895006  40.2635017
  55.0739987   2.9165006  40.2635017  40.7829987   1.3245006  39.7075017
  41.7399987   1.3245006  39.7075017  40.5429987   2.2515006  39.7075017
  39.8869987   1.5195006  35.8575017  40.8439987   1.5195006  35.8575017
  39.6469987   2.4465006  35.8575017  45.3429987   1.3035006  39.4915017
  46.2999987   1.3035006  39.4915017  45.1029987   2.2305006  39.4915017
  50.9349987   1.3265006  41.1385017  51.8919987   1.3265006  41.1385017
  50.6949987   2.2535006  41.1385017  52.2799987   1.3525006  36.9125017
  53.2369987   1.3525006  36.9125017  52.0399987   2.2795006  36.9125017
  39.5539987  17.0655006  36.4175017  40.5109987  17.0655006  36.4175017
  39.3139987  17.9925006  36.4175017  41.4519987   3.0375006  33.9115017
  42.4089987   3.0375006  33.9115017  41.2119987   3.9645006  33.9115017
  46.4529987   3.3085006  36.3685017  47.4099987   3.3085006  36.3685017
  46.2129987   4.2355006  36.3685017  48.3969987  18.3175006  34.7905017
  49.3539987  18.3175006  34.7905017  48.1569987  19.2445006  34.7905017
  55.1099987  17.8775006  37.4955017  56.0669987  17.8775006  37.4955017
  54.8699987  18.8045006  37.4955017  40.6999987   1.9035006  49.2325017
  41.6569987   1.9035006  49.2325017  40.4599987   2.8305006  49.2325017
  42.7239987   1.2445006  50.7735017  43.6809987   1.2445006  50.7735017
  42.4839987   2.1715006  50.7735017  41.3469987  18.0535006  33.4085017
  42.3039987  18.0535006  33.4085017  41.1069987  18.9805006  33.4085017
  51.2049987 108.3835006  50.8105017  52.1619987 108.3835006  50.8105017
  50.9649987 109.3105006  50.8105017  68.7669987  10.4805006  39.5955017
  69.7239987  10.4805006  39.5955017  68.5269987  11.4075006  39.5955017
  67.6399987   9.7475006  43.0805017  68.5969987   9.7475006  43.0805017
  67.3999987  10.6745006  43.0805017  60.0139987   9.3765006  44.6075017
  60.9709987   9.3765006  44.6075017  59.7739987  10.3035006  44.6075017
  71.3379987  12.6875006  41.3585017  72.2949987  12.6875006  41.3585017
  71.0979987  13.6145006  41.3585017  60.9249987  13.8175006  43.1935017
  61.8819987  13.8175006  43.1935017  60.6849987  14.7445006  43.1935017
  57.5659987   7.4315006  38.6155017  58.5229987   7.4315006  38.6155017
  57.3259987   8.3585006  38.6155017  58.2609987   9.6485006  40.7345017
  59.2179987   9.6485006  40.7345017  58.0209987  10.5755006  40.7345017
  68.4409987  17.8435006  41.6165017  69.3979987  17.8435006  41.6165017
  68.2009987  18.7705006  41.6165017  66.0129987  12.1545006  43.5315017
  66.9699987  12.1545006  43.5315017  65.7729987  13.0815006  43.5315017
  74.8399987   3.8695006  44.3725017  75.7969987   3.8695006  44.3725017
  74.5999987   4.7965006  44.3725017  69.1819987   6.5975006  43.8515017
  70.1389987   6.5975006  43.8515017  68.9419987   7.5245006  43.8515017
  62.3119987   4.7025006  41.0745017  63.2689987   4.7025006  41.0745017
  62.0719987   5.6295006  41.0745017  70.0419987   4.7845006  39.4595017
  70.9989987   4.7845006  39.4595017  69.8019987   5.7115006  39.4595017
  58.9269987   7.1045006  41.8205017  59.8839987   7.1045006  41.8205017
  58.6869987   8.0315006  41.8205017  64.0899987   8.6585006  41.1075017
  65.0469987   8.6585006  41.1075017  63.8499987   9.5855006  41.1075017
  75.1249987   5.2805006  46.5715017  76.0819987   5.2805006  46.5715017
  74.8849987   6.2075006  46.5715017  61.2049987   3.6035006  45.1335017
  62.1619987   3.6035006  45.1335017  60.9649987   4.5305006  45.1335017
  68.5029987  13.0905006  38.6715017  69.4599987  13.0905006  38.6715017
  68.2629987  14.0175006  38.6715017  63.7339987  11.2275006  45.3775017
  64.6909987  11.2275006  45.3775017  63.4939987  12.1545006  45.3775017
  71.8089987   4.1255006  41.4385017  72.7659987   4.1255006  41.4385017
  71.5689987   5.0525006  41.4385017  60.7519987   5.4805006  43.1275017
  61.7089987   5.4805006  43.1275017  60.5119987   6.4075006  43.1275017
  62.1899987  13.2215006  46.1705017  63.1469987  13.2215006  46.1705017
  61.9499987  14.1485006  46.1705017  58.2469987  12.8765006  36.9915017
  59.2039987  12.8765006  36.9915017  58.0069987  13.8035006  36.9915017
  71.8749987  14.5145006  43.7305017  72.8319987  14.5145006  43.7305017
  71.6349987  15.4415006  43.7305017  72.1059987   3.2385006  45.5795017
  73.0629987   3.2385006  45.5795017  71.8659987   4.1655006  45.5795017
  65.1299987   0.9635006  42.4465017  66.0869987   0.9635006  42.4465017
  64.8899987   1.8905006  42.4465017  70.1149987  16.2975006  40.3385017
  71.0719987  16.2975006  40.3385017  69.8749987  17.2245006  40.3385017
  71.3219987  14.2285006  38.8335017  72.2789987  14.2285006  38.8335017
  71.0819987  15.1555006  38.8335017  72.9519987  12.8155006  47.3325017
  73.9089987  12.8155006  47.3325017  72.7119987  13.7425006  47.3325017
  67.4429987   9.7255006  37.1055017  68.3999987   9.7255006  37.1055017
  67.2029987  10.6525006  37.1055017  67.5039987   8.2595006  34.1145017
  68.4609987   8.2595006  34.1145017  67.2639987   9.1865006  34.1145017
  74.8279987   9.1315006  45.3865017  75.7849987   9.1315006  45.3865017
  74.5879987  10.0585006  45.3865017  70.8799987   9.9395006  38.0195017
  71.8369987   9.9395006  38.0195017  70.6399987  10.8665006  38.0195017
  70.8019987   8.0955006  47.1355017  71.7589987   8.0955006  47.1355017
  70.5619987   9.0225006  47.1355017  62.4999987  10.5915006  39.9325017
  63.4569987  10.5915006  39.9325017  62.2599987  11.5185006  39.9325017
  63.8239987  13.9865006  42.6225017  64.7809987  13.9865006  42.6225017
  63.5839987  14.9135006  42.6225017  62.8359987   9.3305006  43.5775017
  63.7929987   9.3305006  43.5775017  62.5959987  10.2575006  43.5775017
  69.2469987  14.8885006  44.3085017  70.2039987  14.8885006  44.3085017
  69.0069987  15.8155006  44.3085017  69.7449987   9.1235006  35.6955017
  70.7019987   9.1235006  35.6955017  69.5049987  10.0505006  35.6955017
  60.6939987   9.9175006  47.4805017  61.6509987   9.9175006  47.4805017
  60.4539987  10.8445006  47.4805017  67.4589987  15.8545006  39.1445017
  68.4159987  15.8545006  39.1445017  67.2189987  16.7815006  39.1445017
  73.4869987   0.8945006  35.5305017  74.4439987   0.8945006  35.5305017
  73.2469987   1.8215006  35.5305017  61.4729987   9.6225006  37.5475017
  62.4299987   9.6225006  37.5475017  61.2329987  10.5495006  37.5475017
  74.5939987  15.2155006  33.9295017  75.5509987  15.2155006  33.9295017
  74.3539987  16.1425006  33.9295017  57.3299987  14.7905006  43.2095017
  58.2869987  14.7905006  43.2095017  57.0899987  15.7175006  43.2095017
  75.5569987  15.4795006  48.9005017  76.5139987  15.4795006  48.9005017
  75.3169987  16.4065006  48.9005017  66.9359987  18.7865006  37.5965017
  67.8929987  18.7865006  37.5965017  66.6959987  19.7135006  37.5965017
  70.0159987  17.9875006  34.5575017  70.9729987  17.9875006  34.5575017
  69.7759987  18.9145006  34.5575017  69.7069987  17.8905006  37.3045017
  70.6639987  17.8905006  37.3045017  69.4669987  18.8175006  37.3045017
  72.6949987   6.9575006  49.3875017  73.6519987   6.9575006  49.3875017
  72.4549987   7.8845006  49.3875017  59.9139987  13.1425006  47.3235017
  60.8709987  13.1425006  47.3235017  59.6739987  14.0695006  47.3235017
  62.5979987   1.9225006  43.2795017  63.5549987   1.9225006  43.2795017
  62.3579987   2.8495006  43.2795017  67.1759987   1.5565006  46.7565017
  68.1329987   1.5565006  46.7565017  66.9359987   2.4835006  46.7565017
  70.4439987   5.3005006  47.5905017  71.4009987   5.3005006  47.5905017
  70.2039987   6.2275006  47.5905017  71.1989987  10.1595006  33.4475017
  72.1559987  10.1595006  33.4475017  70.9589987  11.0865006  33.4475017
  66.8009987   4.0655006  34.0205017  67.7579987   4.0655006  34.0205017
  66.5609987   4.9925006  34.0205017  62.6069987   6.7895006  44.5565017
  63.5639987   6.7895006  44.5565017  62.3669987   7.7165006  44.5565017
  62.5709987   6.9495006  39.4345017  63.5279987   6.9495006  39.4345017
  62.3309987   7.8765006  39.4345017  68.0929987   7.4215006  38.2245017
  69.0499987   7.4215006  38.2245017  67.8529987   8.3485006  38.2245017
  67.1659987   7.6255006  49.6675017  68.1229987   7.6255006  49.6675017
  66.9259987   8.5525006  49.6675017  69.1199987   6.9015006  41.0575017
  70.0769987   6.9015006  41.0575017  68.8799987   7.8285006  41.0575017
  60.2599987   7.0735006  46.2875017  61.2169987   7.0735006  46.2875017
  60.0199987   8.0005006  46.2875017  63.6339987   4.4935006  33.1385017
  64.5909987   4.4935006  33.1385017  63.3939987   5.4205006  33.1385017
  56.8869987   4.2085006  40.2255017  57.8439987   4.2085006  40.2255017
  56.6469987   5.1355006  40.2255017  58.2049987   4.9525006  35.6655017
  59.1619987   4.9525006  35.6655017  57.9649987   5.8795006  35.6655017
  68.3389987   8.4995006  45.6395017  69.2959987   8.4995006  45.6395017
  68.0989987   9.4265006  45.6395017  65.1369987   4.4745006  40.4535017
  66.0939987   4.4745006  40.4535017  64.8969987   5.4015006  40.4535017
  59.9529987   6.0435006  39.3245017  60.9099987   6.0435006  39.3245017
  59.7129987   6.9705006  39.3245017  63.5949987   6.0705006  36.9575017
  64.5519987   6.0705006  36.9575017  63.3549987   6.9975006  36.9575017
  69.5419987   3.6895006  43.7005017  70.4989987   3.6895006  43.7005017
  69.3019987   4.6165006  43.7005017  62.2869987   7.2505006  34.5395017
  63.2439987   7.2505006  34.5395017  62.0469987   8.1775006  34.5395017
  72.7839987  19.3025006  50.0115017  73.7409987  19.3025006  50.0115017
  72.5439987  20.2295006  50.0115017  60.4359987  11.8365006  49.6065017
  61.3929987  11.8365006  49.6065017  60.1959987  12.7635006  49.6065017
  66.4239987   7.2265006  42.3515017  67.3809987   7.2265006  42.3515017
  66.1839987   8.1535006  42.3515017  61.4199987   3.3695006  38.7765017
  62.3769987   3.3695006  38.7765017  61.1799987   4.2965006  38.7765017
  65.0589987   5.5785006  44.7605017  66.0159987   5.5785006  44.7605017
  64.8189987   6.5055006  44.7605017  65.6479987  11.7925006  36.4555017
  66.6049987  11.7925006  36.4555017  65.4079987  12.7195006  36.4555017
  72.8119987  10.9645006  45.2635017  73.7689987  10.9645006  45.2635017
  72.5719987  11.8915006  45.2635017  69.4979987   4.6035006  34.6365017
  70.4549987   4.6035006  34.6365017  69.2579987   5.5305006  34.6365017
  67.1499987  12.0265006  47.7025017  68.1069987  12.0265006  47.7025017
  66.9099987  12.9535006  47.7025017  70.2139987   6.5065006  36.2815017
  71.1709987   6.5065006  36.2815017  69.9739987   7.4335006  36.2815017
  60.7469987  11.1515006  42.2485017  61.7039987  11.1515006  42.2485017
  60.5069987  12.0785006  42.2485017  67.7539987  13.2545006  35.4865017
  68.7109987  13.2545006  35.4865017  67.5139987  14.1815006  35.4865017
  57.7549987   9.5705006  47.5335017  58.7119987   9.5705006  47.5335017
  57.5149987  10.4975006  47.5335017  64.7579987   9.1265006  49.7225017
  65.7149987   9.1265006  49.7225017  64.5179987  10.0535006  49.7225017
  69.4039987  14.4495006  47.6455017  70.3609987  14.4495006  47.6455017
  69.1639987  15.3765006  47.6455017  75.1099987   6.6685006  36.0385017
  76.0669987   6.6685006  36.0385017  74.8699987   7.5955006  36.0385017
  75.0969987  12.5175006  48.8595017  76.0539987  12.5175006  48.8595017
  74.8569987  13.4445006  48.8595017  73.3839987  15.4875006  36.4485017
  74.3409987  15.4875006  36.4485017  73.1439987  16.4145006  36.4485017
  70.6019987  10.3025006  43.5365017  71.5589987  10.3025006  43.5365017
  70.3619987  11.2295006  43.5365017  63.1389987  14.5985006  39.5975017
  64.0959987  14.5985006  39.5975017  62.8989987  15.5255006  39.5975017
  58.8889987   9.4725006  34.2115017  59.8459987   9.4725006  34.2115017
  58.6489987  10.3995006  34.2115017  64.5569987  12.2795006  39.1615017
  65.5139987  12.2795006  39.1615017  64.3169987  13.2065006  39.1615017
  63.2109987  17.3345006  38.7195017  64.1679987  17.3345006  38.7195017
  62.9709987  18.2615006  38.7195017  68.5209987  12.5035006  45.2085017
  69.4779987  12.5035006  45.2085017  68.2809987  13.4305006  45.2085017
  70.8389987  13.5325006  34.2805017  71.7959987  13.5325006  34.2805017
  70.5989987  14.4595006  34.2805017  71.2979987  17.0725006  47.6915017
  72.2549987  17.0725006  47.6915017  71.0579987  17.9995006  47.6915017
  75.3159987  17.9085006  34.5245017  76.2729987  17.9085006  34.5245017
  75.0759987  18.8355006  34.5245017  59.3999987   4.3045006  47.1035017
  60.3569987   4.3045006  47.1035017  59.1599987   5.2315006  47.1035017
  71.6349987  12.1755006  36.5145017  72.5919987  12.1755006  36.5145017
  71.3949987  13.1025006  36.5145017  64.9629987  14.6185006  32.7535017
  65.9199987  14.6185006  32.7535017  64.7229987  15.5455006  32.7535017
  63.7859987  14.1445006  35.2115017  64.7429987  14.1445006  35.2115017
  63.5459987  15.0715006  35.2115017  60.2909987  11.3945006  35.7065017
  61.2479987  11.3945006  35.7065017  60.0509987  12.3215006  35.7065017
  68.1219987   4.0805006  46.0135017  69.0789987   4.0805006  46.0135017
  67.8819987   5.0075006  46.0135017  68.8999987   3.6525006  37.1035017
  69.8569987   3.6525006  37.1035017  68.6599987   4.5795006  37.1035017
  66.5679987  15.8195006  35.9325017  67.5249987  15.8195006  35.9325017
  66.3279987  16.7465006  35.9325017  66.1139987   5.3995006  37.9335017
  67.0709987   5.3995006  37.9335017  65.8739987   6.3265006  37.9335017
  66.6629987   6.4235006  47.1155017  67.6199987   6.4235006  47.1155017
  66.4229987   7.3505006  47.1155017  66.9699987   2.4785006  38.8475017
  67.9269987   2.4785006  38.8475017  66.7299987   3.4055006  38.8475017
  63.9519987  16.8565006  35.9345017  64.9089987  16.8565006  35.9345017
  63.7119987  17.7835006  35.9345017  62.6109987   3.5775006  35.5355017
  63.5679987   3.5775006  35.5355017  62.3709987   4.5045006  35.5355017
  72.8599987   4.3625006  47.9875017  73.8169987   4.3625006  47.9875017
  72.6199987   5.2895006  47.9875017  71.4429987   8.0905006  41.9995017
  72.3999987   8.0905006  41.9995017  71.2029987   9.0175006  41.9995017
  60.8589987  14.0015006  34.5935017  61.8159987  14.0015006  34.5935017
  60.6189987  14.9285006  34.5935017  59.1899987   6.6795006  33.7195017
  60.1469987   6.6795006  33.7195017  58.9499987   7.6065006  33.7195017
  72.4899987  17.3845006  43.6815017  73.4469987  17.3845006  43.6815017
  72.2499987  18.3115006  43.6815017  59.7799987   1.6735006  42.3165017
  60.7369987   1.6735006  42.3165017  59.5399987   2.6005006  42.3165017
  58.9619987  15.3525006  38.5555017  59.9189987  15.3525006  38.5555017
  58.7219987  16.2795006  38.5555017  62.8179987  16.9225006  51.5295017
  63.7749987  16.9225006  51.5295017  62.5779987  17.8495006  51.5295017
  66.9609987  16.4725006  32.8675017  67.9179987  16.4725006  32.8675017
  66.7209987  17.3995006  32.8675017  71.5349987  16.2285006  33.0945017
  72.4919987  16.2285006  33.0945017  71.2949987  17.1555006  33.0945017
  58.1149987  11.8165006  50.8745017  59.0719987  11.8165006  50.8745017
  57.8749987  12.7435006  50.8745017  62.4339987  12.1645006  32.9265017
  63.3909987  12.1645006  32.9265017  62.1939987  13.0915006  32.9265017
  64.8019987  11.7845006  50.2835017  65.7589987  11.7845006  50.2835017
  64.5619987  12.7115006  50.2835017  67.8479987  13.2685006  32.6745017
  68.8049987  13.2685006  32.6745017  67.6079987  14.1955006  32.6745017
  70.5009987  11.6745006  47.6575017  71.4579987  11.6745006  47.6575017
  70.2609987  12.6015006  47.6575017  59.0039987   9.0375006  50.2705017
  59.9609987   9.0375006  50.2705017  58.7639987   9.9645006  50.2705017
  63.6289987  10.1725006  35.3125017  64.5859987  10.1725006  35.3125017
  63.3889987  11.0995006  35.3125017  62.9149987   8.0005006  47.6345017
  63.8719987   8.0005006  47.6345017  62.6749987   8.9275006  47.6345017
  64.7019987   8.3945006  33.5375017  65.6589987   8.3945006  33.5375017
  64.4619987   9.3215006  33.5375017  67.9539987  10.5565006  50.9345017
  68.9109987  10.5565006  50.9345017  67.7139987  11.4835006  50.9345017
  74.0579987  10.7245006  32.9635017  75.0149987  10.7245006  32.9635017
  73.8179987  11.6515006  32.9635017  63.2919987   5.3675006  48.6945017
  64.2489987   5.3675006  48.6945017  63.0519987   6.2945006  48.6945017
  63.7079987   3.7415006  46.2315017  64.6649987   3.7415006  46.2315017
  63.4679987   4.6685006  46.2315017  65.2499987   9.2175006  46.4815017
  66.2069987   9.2175006  46.4815017  65.0099987  10.1445006  46.4815017
  69.6459987   6.9995006  51.4475017  70.6029987   6.9995006  51.4475017
  69.4059987   7.9265006  51.4475017  70.9719987   9.7935006  49.5955017
  71.9289987   9.7935006  49.5955017  70.7319987  10.7205006  49.5955017
  61.7579987   6.6195006  50.6125017  62.7149987   6.6195006  50.6125017
  61.5179987   7.5465006  50.6125017  64.5719987   1.2285006  46.5065017
  65.5289987   1.2285006  46.5065017  64.3319987   2.1555006  46.5065017
  65.7579987   5.5145006  50.2255017  66.7149987   5.5145006  50.2255017
  65.5179987   6.4415006  50.2255017  68.4749987   4.6875006  49.3255017
  69.4319987   4.6875006  49.3255017  68.2349987   5.6145006  49.3255017
  70.1059987   3.3025006  51.2625017  71.0629987   3.3025006  51.2625017
  69.8659987   4.2295006  51.2625017  59.8519987   4.5265006  50.3535017
  60.8089987   4.5265006  50.3535017  59.6119987   5.4535006  50.3535017
  65.2839987 108.5285006  49.3785017  66.2409987 108.5285006  49.3785017
  65.0439987 109.4555006  49.3785017  65.0539987   2.2525006  51.4665017
  66.0109987   2.2525006  51.4665017  64.8139987   3.1795006  51.4665017
  64.5519987  19.0875006  34.5915017  65.5089987  19.0875006  34.5915017
  64.3119987  20.0145006  34.5915017  58.1049987  13.7055006  34.0505017
  59.0619987  13.7055006  34.0505017  57.8649987  14.6325006  34.0505017
  75.2369987  17.9815006  43.8665017  76.1939987  17.9815006  43.8665017
  74.9969987  18.9085006  43.8665017  74.8059987  17.5905006  46.7985017
  75.7629987  17.5905006  46.7985017  74.5659987  18.5175006  46.7985017
  73.2499987  13.3195006  51.4595017  74.2069987  13.3195006  51.4595017
  73.0099987  14.2465006  51.4595017  74.5579987  11.6315006  36.9145017
  75.5149987  11.6315006  36.9145017  74.3179987  12.5585006  36.9145017
  74.9329987   9.7025006  38.7825017  75.8899987   9.7025006  38.7825017
  74.6929987  10.6295006  38.7825017  74.6869987  12.4175006  43.7655017
  75.6439987  12.4175006  43.7655017  74.4469987  13.3445006  43.7655017
  73.2339987  15.3155006  46.0465017  74.1909987  15.3155006  46.0465017
  72.9939987  16.2425006  46.0465017  75.2309987   9.5395006  35.1795017
  76.1879987   9.5395006  35.1795017  74.9909987  10.4665006  35.1795017
  73.5979987   6.7835006  33.7015017  74.5549987   6.7835006  33.7015017
  73.3579987   7.7105006  33.7015017  72.7449987   8.1875006  39.3465017
  73.7019987   8.1875006  39.3465017  72.5049987   9.1145006  39.3465017
  57.7499987  10.2455006  43.3875017  58.7069987  10.2455006  43.3875017
  57.5099987  11.1725006  43.3875017  73.5939987  10.1585006  49.0255017
  74.5509987  10.1585006  49.0255017  73.3539987  11.0855006  49.0255017
  75.1049987   8.0495006  49.6915017  76.0619987   8.0495006  49.6915017
  74.8649987   8.9765006  49.6915017  72.8249987   4.2595006  32.8585017
  73.7819987   4.2595006  32.8585017  72.5849987   5.1865006  32.8585017
  72.4029987   5.7775006  37.7845017  73.3599987   5.7775006  37.7845017
  72.1629987   6.7045006  37.7845017  73.0479987   6.3545006  43.2455017
  74.0049987   6.3545006  43.2455017  72.8079987   7.2815006  43.2455017
  73.1119987   7.0715006  46.0435017  74.0689987   7.0715006  46.0435017
  72.8719987   7.9985006  46.0435017  57.3689987   5.5765006  49.5455017
  58.3259987   5.5765006  49.5455017  57.1289987   6.5035006  49.5455017
  75.3079987   1.1925006  51.3195017  76.2649987   1.1925006  51.3195017
  75.0679987   2.1195006  51.3195017  73.0689987   3.0595006  37.8195017
  74.0259987   3.0595006  37.8195017  72.8289987   3.9865006  37.8195017
  58.5409987   3.8985006  42.4085017  59.4979987   3.8985006  42.4085017
  58.3009987   4.8255006  42.4085017  56.8569987   6.8395006  43.4545017
  57.8139987   6.8395006  43.4545017  56.6169987   7.7665006  43.4545017
  74.9069987   3.2065006  49.7205017  75.8639987   3.2065006  49.7205017
  74.6669987   4.1335006  49.7205017  74.9179987   3.1275006  34.4215017
  75.8749987   3.1275006  34.4215017  74.6779987   4.0545006  34.4215017
  57.2039987   3.1095006  37.5615017  58.1609987   3.1095006  37.5615017
  56.9639987   4.0365006  37.5615017  71.9549987  18.0625006  39.4815017
  72.9119987  18.0625006  39.4815017  71.7149987  18.9895006  39.4815017
  57.1819987   1.8195006  45.8395017  58.1389987   1.8195006  45.8395017
  56.9419987   2.7465006  45.8395017  66.6489987  17.3375006  49.1925017
  67.6059987  17.3375006  49.1925017  66.4089987  18.2645006  49.1925017
  68.9849987  18.6835006  48.4465017  69.9419987  18.6835006  48.4465017
  68.7449987  19.6105006  48.4465017  73.9999987   1.4115006  47.5395017
  74.9569987   1.4115006  47.5395017  73.7599987   2.3385006  47.5395017
  69.2379987  17.5405006  45.4075017  70.1949987  17.5405006  45.4075017
  68.9979987  18.4675006  45.4075017  71.8029987  19.1515006  45.7465017
  72.7599987  19.1515006  45.7465017  71.5629987  20.0785006  45.7465017
  67.3279987   2.7435006  41.8835017  68.2849987   2.7435006  41.8835017
  67.0879987   3.6705006  41.8835017  72.3879987   0.7895006  41.1695017
  73.3449987   0.7895006  41.1695017  72.1479987   1.7165006  41.1695017
  74.2409987   2.0675006  40.1495017  75.1979987   2.0675006  40.1495017
  74.0009987   2.9945006  40.1495017  59.6349987   1.3255006  39.7125017
  60.5919987   1.3255006  39.7125017  59.3949987   2.2525006  39.7125017
  58.7479987   1.5485006  35.8665017  59.7049987   1.5485006  35.8665017
  58.5079987   2.4755006  35.8665017  64.1989987   1.3035006  39.4915017
  65.1559987   1.3035006  39.4915017  63.9589987   2.2305006  39.4915017
  69.6949987   1.3395006  41.1285017  70.6519987   1.3395006  41.1285017
  69.4549987   2.2665006  41.1285017  71.1469987   1.3525006  36.8745017
  72.1039987   1.3525006  36.8745017  70.9069987   2.2795006  36.8745017
  58.4059987  17.0595006  36.4045017  59.3629987  17.0595006  36.4045017
  58.1659987  17.9865006  36.4045017  60.3119987   3.0395006  33.9075017
  61.2689987   3.0395006  33.9075017  60.0719987   3.9665006  33.9075017
  65.3079987   3.3075006  36.3705017  66.2649987   3.3075006  36.3705017
  65.0679987   4.2345006  36.3705017  67.2489987  18.3395006  34.8145017
  68.2059987  18.3395006  34.8145017  67.0089987  19.2665006  34.8145017
  73.9559987  17.8605006  37.5135017  74.9129987  17.8605006  37.5135017
  73.7159987  18.7875006  37.5135017  59.5549987   1.8985006  49.2335017
  60.5119987   1.8985006  49.2335017  59.3149987   2.8255006  49.2335017
  61.5819987   1.2435006  50.7755017  62.5389987   1.2435006  50.7755017
  61.3419987   2.1705006  50.7755017  60.1829987  18.0115006  33.4055017
  61.1399987  18.0115006  33.4055017  59.9429987  18.9385006  33.4055017
  70.0649987 108.3555006  50.8035017  71.0219987 108.3555006  50.8035017
  69.8249987 109.2825006  50.8035017  73.1959987  16.5885006  49.6005017
  74.1529987  16.5885006  49.6005017  72.9559987  17.5155006  49.6005017
  87.5989987  10.4865006  39.6145017  88.5559987  10.4865006  39.6145017
  87.3589987  11.4135006  39.6145017  86.4689987   9.7625006  43.0775017
  87.4259987   9.7625006  43.0775017  86.2289987  10.6895006  43.0775017
  78.8559987   9.4025006  44.6285017  79.8129987   9.4025006  44.6285017
  78.6159987  10.3295006  44.6285017  90.1969987  12.6865006  41.3585017
  91.1539987  12.6865006  41.3585017  89.9569987  13.6135006  41.3585017
  79.7839987  13.8615006  43.1315017  80.7409987  13.8615006  43.1315017
  79.5439987  14.7885006  43.1315017  76.4259987   7.4335006  38.6135017
  77.3829987   7.4335006  38.6135017  76.1859987   8.3605006  38.6135017
  77.1199987   9.6545006  40.7485017  78.0769987   9.6545006  40.7485017
  76.8799987  10.5815006  40.7485017  87.1799987  17.6535006  41.6035017
  88.1369987  17.6535006  41.6035017  86.9399987  18.5805006  41.6035017
  84.8879987  12.2085006  43.4535017  85.8449987  12.2085006  43.4535017
  84.6479987  13.1355006  43.4535017  93.5039987   3.7595006  44.2835017
  94.4609987   3.7595006  44.2835017  93.2639987   4.6865006  44.2835017
  88.0389987   6.5985006  43.8515017  88.9959987   6.5985006  43.8515017
  87.7989987   7.5255006  43.8515017  81.1689987   4.7025006  41.0745017
  82.1259987   4.7025006  41.0745017  80.9289987   5.6295006  41.0745017
  88.8989987   4.7815006  39.4555017  89.8559987   4.7815006  39.4555017
  88.6589987   5.7085006  39.4555017  77.7849987   7.1065006  41.8195017
  78.7419987   7.1065006  41.8195017  77.5449987   8.0335006  41.8195017
  82.9509987   8.6695006  41.1055017  83.9079987   8.6695006  41.1055017
  82.7109987   9.5965006  41.1055017  93.9349987   5.2215006  46.5465017
  94.8919987   5.2215006  46.5465017  93.6949987   6.1485006  46.5465017
  80.0619987   3.6045006  45.1335017  81.0189987   3.6045006  45.1335017
  79.8219987   4.5315006  45.1335017  87.3059987  13.0775006  38.6925017
  88.2629987  13.0775006  38.6925017  87.0659987  14.0045006  38.6925017
  82.5739987  11.2445006  45.3565017  83.5309987  11.2445006  45.3565017
  82.3339987  12.1715006  45.3565017  90.6899987   4.1035006  41.4345017
  91.6469987   4.1035006  41.4345017  90.4499987   5.0305006  41.4345017
  79.6049987   5.4785006  43.1275017  80.5619987   5.4785006  43.1275017
  79.3649987   6.4055006  43.1275017  81.0139987  13.2325006  46.1925017
  81.9709987  13.2325006  46.1925017  80.7739987  14.1595006  46.1925017
  77.1019987  12.8675006  36.9845017  78.0589987  12.8675006  36.9845017
  76.8619987  13.7945006  36.9845017  90.7179987  14.5245006  43.7285017
  91.6749987  14.5245006  43.7285017  90.4779987  15.4515006  43.7285017
  91.0629987   2.8045006  45.1865017  92.0199987   2.8045006  45.1865017
  90.8229987   3.7315006  45.1865017  83.9859987   0.9635006  42.4465017
  84.9429987   0.9635006  42.4465017  83.7459987   1.8905006  42.4465017
  88.9589987  16.2895006  40.3205017  89.9159987  16.2895006  40.3205017
  88.7189987  17.2165006  40.3205017  90.1749987  14.2345006  38.8315017
  91.1319987  14.2345006  38.8315017  89.9349987  15.1615006  38.8315017
  91.8079987  12.8155006  47.3325017  92.7649987  12.8155006  47.3325017
  91.5679987  13.7425006  47.3325017  86.2999987   9.7435006  37.1185017
  87.2569987   9.7435006  37.1185017  86.0599987  10.6705006  37.1185017
  86.3589987   8.2595006  34.1145017  87.3159987   8.2595006  34.1145017
  86.1189987   9.1865006  34.1145017  93.6829987   9.1305006  45.3845017
  94.6399987   9.1305006  45.3845017  93.4429987  10.0575006  45.3845017
  89.7309987   9.9425006  38.0265017  90.6879987   9.9425006  38.0265017
  89.4909987  10.8695006  38.0265017  89.6599987   8.0965006  47.1325017
  90.6169987   8.0965006  47.1325017  89.4199987   9.0235006  47.1325017
  81.3799987  10.6115006  39.9285017  82.3369987  10.6115006  39.9285017
  81.1399987  11.5385006  39.9285017  82.5929987  13.9835006  42.7635017
  83.5499987  13.9835006  42.7635017  82.3529987  14.9105006  42.7635017
  81.6879987   9.3475006  43.5795017  82.6449987   9.3475006  43.5795017
  81.4479987  10.2745006  43.5795017  88.0639987  14.8955006  44.2825017
  89.0209987  14.8955006  44.2825017  87.8239987  15.8225006  44.2825017
  82.6299987  13.7595006  48.2875017  83.5869987  13.7595006  48.2875017
  82.3899987  14.6865006  48.2875017  88.6039987   9.1265006  35.6875017
  89.5609987   9.1265006  35.6875017  88.3639987  10.0535006  35.6875017
  79.5639987   9.9285006  47.4635017  80.5209987   9.9285006  47.4635017
  79.3239987  10.8555006  47.4635017  86.2579987  15.8185006  39.2185017
  87.2149987  15.8185006  39.2185017  86.0179987  16.7455006  39.2185017
  80.8719987  15.8105006  49.0385017  81.8289987  15.8105006  49.0385017
  80.6319987  16.7375006  49.0385017  92.3429987   0.8975006  35.5525017
  93.2999987   0.8975006  35.5525017  92.1029987   1.8245006  35.5525017
  80.3279987   9.6225006  37.5495017  81.2849987   9.6225006  37.5495017
  80.0879987  10.5495006  37.5495017  93.4559987  15.2435006  33.9405017
  94.4129987  15.2435006  33.9405017  93.2159987  16.1705006  33.9405017
  76.4249987  12.0415006  46.4155017  77.3819987  12.0415006  46.4155017
  76.1849987  12.9685006  46.4155017  76.1739987  14.7815006  43.2205017
  77.1309987  14.7815006  43.2205017  75.9339987  15.7085006  43.2205017
  94.4129987  15.4805006  48.9055017  95.3699987  15.4805006  48.9055017
  94.1729987  16.4075006  48.9055017  85.3699987  15.0235006  47.7695017
  86.3269987  15.0235006  47.7695017  85.1299987  15.9505006  47.7695017
  85.8019987  18.7745006  37.5725017  86.7589987  18.7745006  37.5725017
  85.5619987  19.7015006  37.5725017  79.4459987  17.6335006  39.3765017
  80.4029987  17.6335006  39.3765017  79.2059987  18.5605006  39.3765017
  88.8619987  17.9855006  34.5625017  89.8189987  17.9855006  34.5625017
  88.6219987  18.9125006  34.5625017  88.5549987  17.8775006  37.2875017
  89.5119987  17.8775006  37.2875017  88.3149987  18.8045006  37.2875017
  91.5509987   6.9585006  49.3885017  92.5079987   6.9585006  49.3885017
  91.3109987   7.8855006  49.3885017  78.6919987  13.3565006  47.3815017
  79.6489987  13.3565006  47.3815017  78.4519987  14.2835006  47.3815017
  81.4539987   1.9215006  43.2805017  82.4109987   1.9215006  43.2805017
  81.2139987   2.8485006  43.2805017  86.0319987   1.5595006  46.7585017
  86.9889987   1.5595006  46.7585017  85.7919987   2.4865006  46.7585017
  89.3049987   5.2995006  47.5945017  90.2619987   5.2995006  47.5945017
  89.0649987   6.2265006  47.5945017  90.0419987  10.2265006  33.4165017
  90.9989987  10.2265006  33.4165017  89.8019987  11.1535006  33.4165017
  85.6569987   4.0655006  34.0205017  86.6139987   4.0655006  34.0205017
  85.4169987   4.9925006  34.0205017  81.4609987   6.7915006  44.5555017
  82.4179987   6.7915006  44.5555017  81.2209987   7.7185006  44.5555017
  81.4269987   6.9505006  39.4355017  82.3839987   6.9505006  39.4355017
  81.1869987   7.8775006  39.4355017  86.9489987   7.4215006  38.2245017
  87.9059987   7.4215006  38.2245017  86.7089987   8.3485006  38.2245017
  86.0219987   7.6255006  49.6675017  86.9789987   7.6255006  49.6675017
  85.7819987   8.5525006  49.6675017  87.9769987   6.9015006  41.0575017
  88.9339987   6.9015006  41.0575017  87.7369987   7.8285006  41.0575017
  79.1099987   7.0745006  46.2865017  80.0669987   7.0745006  46.2865017
  78.8699987   8.0015006  46.2865017  82.4899987   4.4935006  33.1385017
  83.4469987   4.4935006  33.1385017  82.2499987   5.4205006  33.1385017
  75.7659987   4.2545006  40.2085017  76.7229987   4.2545006  40.2085017
  75.5259987   5.1815006  40.2085017  77.0319987   4.9275006  35.6305017
  77.9889987   4.9275006  35.6305017  76.7919987   5.8545006  35.6305017
  87.1929987   8.5035006  45.6405017  88.1499987   8.5035006  45.6405017
  86.9529987   9.4305006  45.6405017  83.9929987   4.4745006  40.4535017
  84.9499987   4.4745006  40.4535017  83.7529987   5.4015006  40.4535017
  78.8089987   6.0435006  39.3235017  79.7659987   6.0435006  39.3235017
  78.5689987   6.9705006  39.3235017  82.4509987   6.0705006  36.9575017
  83.4079987   6.0705006  36.9575017  82.2109987   6.9975006  36.9575017
  88.4059987   3.6755006  43.7015017  89.3629987   3.6755006  43.7015017
  88.1659987   4.6025006  43.7015017  81.1429987   7.2495006  34.5395017
  82.0999987   7.2495006  34.5395017  80.9029987   8.1765006  34.5395017
  91.6109987  19.3475006  50.0215017  92.5679987  19.3475006  50.0215017
  91.3709987  20.2745006  50.0215017  79.2799987  11.8105006  49.5925017
  80.2369987  11.8105006  49.5925017  79.0399987  12.7375006  49.5925017
  85.2819987   7.2265006  42.3525017  86.2389987   7.2265006  42.3525017
  85.0419987   8.1535006  42.3525017  80.2749987   3.3685006  38.7765017
  81.2319987   3.3685006  38.7765017  80.0349987   4.2955006  38.7765017
  83.9149987   5.5785006  44.7605017  84.8719987   5.5785006  44.7605017
  83.6749987   6.5055006  44.7605017  84.5059987  11.7995006  36.4515017
  85.4629987  11.7995006  36.4515017  84.2659987  12.7265006  36.4515017
  91.6669987  10.9665006  45.2635017  92.6239987  10.9665006  45.2635017
  91.4269987  11.8935006  45.2635017  88.3569987   4.6085006  34.6275017
  89.3139987   4.6085006  34.6275017  88.1169987   5.5355006  34.6275017
  85.9909987  12.0295006  47.6985017  86.9479987  12.0295006  47.6985017
  85.7509987  12.9565006  47.6985017  89.0709987   6.5065006  36.2825017
  90.0279987   6.5065006  36.2825017  88.8309987   7.4335006  36.2825017
  79.6219987  11.1685006  42.2615017  80.5789987  11.1685006  42.2615017
  79.3819987  12.0955006  42.2615017  86.6129987  13.2545006  35.4985017
  87.5699987  13.2545006  35.4985017  86.3729987  14.1815006  35.4985017
  76.5979987   9.5725006  47.5225017  77.5549987   9.5725006  47.5225017
  76.3579987  10.4995006  47.5225017  83.6139987   9.1325006  49.7195017
  84.5709987   9.1325006  49.7195017  83.3739987  10.0595006  49.7195017
  88.2829987  14.4645006  47.6405017  89.2399987  14.4645006  47.6405017
  88.0429987  15.3915006  47.6405017  93.9659987   6.6685006  36.0385017
  94.9229987   6.6685006  36.0385017  93.7259987   7.5955006  36.0385017
  93.9519987  12.5185006  48.8595017  94.9089987  12.5185006  48.8595017
  93.7119987  13.4455006  48.8595017  92.2339987  15.4905006  36.4535017
  93.1909987  15.4905006  36.4535017  91.9939987  16.4175006  36.4535017
  89.4579987  10.3015006  43.5375017  90.4149987  10.3015006  43.5375017
  89.2179987  11.2285006  43.5375017  81.9999987  14.6295006  39.6545017
  82.9569987  14.6295006  39.6545017  81.7599987  15.5565006  39.6545017
  77.7429987   9.4715006  34.2125017  78.6999987   9.4715006  34.2125017
  77.5029987  10.3985006  34.2125017  83.3689987  12.2525006  39.0965017
  84.3259987  12.2525006  39.0965017  83.1289987  13.1795006  39.0965017
  83.8629987  16.4565006  45.5375017  84.8199987  16.4565006  45.5375017
  83.6229987  17.3835006  45.5375017  82.0839987  17.2765006  38.7405017
  83.0409987  17.2765006  38.7405017  81.8439987  18.2035006  38.7405017
  87.3759987  12.4915006  45.1735017  88.3329987  12.4915006  45.1735017
  87.1359987  13.4185006  45.1735017  89.6989987  13.4945006  34.2415017
  90.6559987  13.4945006  34.2415017  89.4589987  14.4215006  34.2415017
  90.1689987  17.0715006  47.6865017  91.1259987  17.0715006  47.6865017
  89.9289987  17.9985006  47.6865017  94.1879987  17.9095006  34.5455017
  95.1449987  17.9095006  34.5455017  93.9479987  18.8365006  34.5455017
  78.2559987   4.3055006  47.1055017  79.2129987   4.3055006  47.1055017
  78.0159987   5.2325006  47.1055017  90.4939987  12.1655006  36.4935017
  91.4509987  12.1655006  36.4935017  90.2539987  13.0925006  36.4935017
  77.8729987  16.1155006  45.5095017  78.8299987  16.1155006  45.5095017
  77.6329987  17.0425006  45.5095017  83.8159987  14.6165006  32.7625017
  84.7729987  14.6165006  32.7625017  83.5759987  15.5435006  32.7625017
  82.6369987  14.1485006  35.2215017  83.5939987  14.1485006  35.2215017
  82.3969987  15.0755006  35.2215017  79.1479987  11.3945006  35.7095017
  80.1049987  11.3945006  35.7095017  78.9079987  12.3215006  35.7095017
  86.9779987   4.0815006  46.0125017  87.9349987   4.0815006  46.0125017
  86.7379987   5.0085006  46.0125017  87.7529987   3.6585006  37.1055017
  88.7099987   3.6585006  37.1055017  87.5129987   4.5855006  37.1055017
  85.4169987  15.8205006  35.9565017  86.3739987  15.8205006  35.9565017
  85.1769987  16.7475006  35.9565017  84.9699987   5.3995006  37.9335017
  85.9269987   5.3995006  37.9335017  84.7299987   6.3265006  37.9335017
  85.5079987   6.4285006  47.1185017  86.4649987   6.4285006  47.1185017
  85.2679987   7.3555006  47.1185017  85.8279987   2.4775006  38.8495017
  86.7849987   2.4775006  38.8495017  85.5879987   3.4045006  38.8495017
  82.7989987  16.8575006  35.9435017  83.7559987  16.8575006  35.9435017
  82.5589987  17.7845006  35.9435017  81.4669987   3.5775006  35.5365017
  82.4239987   3.5775006  35.5365017  81.2269987   4.5045006  35.5365017
  91.6989987   4.3255006  47.9575017  92.6559987   4.3255006  47.9575017
  91.4589987   5.2525006  47.9575017  90.2989987   8.0935006  41.9985017
  91.2559987   8.0935006  41.9985017  90.0589987   9.0205006  41.9985017
  79.7119987  14.0075006  34.5925017  80.6689987  14.0075006  34.5925017
  79.4719987  14.9345006  34.5925017  78.0509987   6.6865006  33.7225017
  79.0079987   6.6865006  33.7225017  77.8109987   7.6135006  33.7225017
  91.3659987  17.3405006  43.6695017  92.3229987  17.3405006  43.6695017
  91.1259987  18.2675006  43.6695017  78.6679987   1.6745006  42.3125017
  79.6249987   1.6745006  42.3125017  78.4279987   2.6015006  42.3125017
  77.8179987  15.3895006  38.5895017  78.7749987  15.3895006  38.5895017
  77.5779987  16.3165006  38.5895017  77.0439987  18.0375006  49.8905017
  78.0009987  18.0375006  49.8905017  76.8039987  18.9645006  49.8905017
  81.6909987  16.9555006  51.5045017  82.6479987  16.9555006  51.5045017
  81.4509987  17.8825006  51.5045017  85.8159987  16.4755006  32.8965017
  86.7729987  16.4755006  32.8965017  85.5759987  17.4025006  32.8965017
  88.2239987  15.3375006  50.2365017  89.1809987  15.3375006  50.2365017
  87.9839987  16.2645006  50.2365017  90.3769987  16.2085006  33.0755017
  91.3339987  16.2085006  33.0755017  90.1369987  17.1355006  33.0755017
  76.9589987  11.8235006  50.8765017  77.9159987  11.8235006  50.8765017
  76.7189987  12.7505006  50.8765017  81.2929987  12.1655006  32.9285017
  82.2499987  12.1655006  32.9285017  81.0529987  13.0925006  32.9285017
  83.6559987  11.8025006  50.2745017  84.6129987  11.8025006  50.2745017
  83.4159987  12.7295006  50.2745017  86.7509987  13.2485006  32.6955017
  87.7079987  13.2485006  32.6955017  86.5109987  14.1755006  32.6955017
  89.3589987  11.6725006  47.6595017  90.3159987  11.6725006  47.6595017
  89.1189987  12.5995006  47.6595017  77.8539987   9.0455006  50.2655017
  78.8109987   9.0455006  50.2655017  77.6139987   9.9725006  50.2655017
  82.4859987  10.1725006  35.3115017  83.4429987  10.1725006  35.3115017
  82.2459987  11.0995006  35.3115017  81.7619987   7.9985006  47.6295017
  82.7189987   7.9985006  47.6295017  81.5219987   8.9255006  47.6295017
  83.5569987   8.3945006  33.5345017  84.5139987   8.3945006  33.5345017
  83.3169987   9.3215006  33.5345017  86.8179987  10.5405006  50.9425017
  87.7749987  10.5405006  50.9425017  86.5779987  11.4675006  50.9425017
  92.8379987  10.7415006  32.9575017  93.7949987  10.7415006  32.9575017
  92.5979987  11.6685006  32.9575017  82.1479987   5.3685006  48.6915017
  83.1049987   5.3685006  48.6915017  81.9079987   6.2955006  48.6915017
  82.5639987   3.7415006  46.2315017  83.5209987   3.7415006  46.2315017
  82.3239987   4.6685006  46.2315017  84.1039987   9.2195006  46.4715017
  85.0609987   9.2195006  46.4715017  83.8639987  10.1465006  46.4715017
  88.5069987   6.9955006  51.4605017  89.4639987   6.9955006  51.4605017
  88.2669987   7.9225006  51.4605017  89.8289987   9.7885006  49.5925017
  90.7859987   9.7885006  49.5925017  89.5889987  10.7155006  49.5925017
  80.6149987   6.6195006  50.6125017  81.5719987   6.6195006  50.6125017
  80.3749987   7.5465006  50.6125017  83.4279987   1.2305006  46.5055017
  84.3849987   1.2305006  46.5055017  83.1879987   2.1575006  46.5055017
  84.6159987   5.5155006  50.2235017  85.5729987   5.5155006  50.2235017
  84.3759987   6.4425006  50.2235017  87.3339987   4.6865006  49.3245017
  88.2909987   4.6865006  49.3245017  87.0939987   5.6135006  49.3245017
  88.9629987   3.3055006  51.2605017  89.9199987   3.3055006  51.2605017
  88.7229987   4.2325006  51.2605017  78.7079987   4.5245006  50.3555017
  79.6649987   4.5245006  50.3555017  78.4679987   5.4515006  50.3555017
  84.1399987 108.5315006  49.3765017  85.0969987 108.5315006  49.3765017
  83.8999987 109.4585006  49.3765017  83.9119987   2.2535006  51.4665017
  84.8689987   2.2535006  51.4665017  83.6719987   3.1805006  51.4665017
  83.4049987  19.0905006  34.5965017  84.3619987  19.0905006  34.5965017
  83.1649987  20.0175006  34.5965017  76.9669987  13.6935006  34.0655017
  77.9239987  13.6935006  34.0655017  76.7269987  14.6205006  34.0655017
  75.7309987  19.0695006  39.0525017  76.6879987  19.0695006  39.0525017
  75.4909987  19.9965006  39.0525017  76.5519987  17.1935006  40.9105017
  77.5089987  17.1935006  40.9105017  76.3119987  18.1205006  40.9105017
  94.1099987  17.9655006  43.8675017  95.0669987  17.9655006  43.8675017
  93.8699987  18.8925006  43.8675017  93.6609987  17.5895006  46.8055017
  94.6179987  17.5895006  46.8055017  93.4209987  18.5165006  46.8055017
  92.1069987  13.3165006  51.4615017  93.0639987  13.3165006  51.4615017
  91.8669987  14.2435006  51.4615017  93.4159987  11.6315006  36.9145017
  94.3729987  11.6315006  36.9145017  93.1759987  12.5585006  36.9145017
  93.7859987   9.7025006  38.7785017  94.7429987   9.7025006  38.7785017
  93.5459987  10.6295006  38.7785017  93.5429987  12.4165006  43.7655017
  94.4999987  12.4165006  43.7655017  93.3029987  13.3435006  43.7655017
  92.0899987  15.3115006  46.0505017  93.0469987  15.3115006  46.0505017
  91.8499987  16.2385006  46.0505017  94.0929987   9.5385006  35.1735017
  95.0499987   9.5385006  35.1735017  93.8529987  10.4655006  35.1735017
  92.4449987   6.7905006  33.6955017  93.4019987   6.7905006  33.6955017
  92.2049987   7.7175006  33.6955017  91.6009987   8.1875006  39.3465017
  92.5579987   8.1875006  39.3465017  91.3609987   9.1145006  39.3465017
  76.6069987  10.2705006  43.4015017  77.5639987  10.2705006  43.4015017
  76.3669987  11.1975006  43.4015017  92.4499987  10.1585006  49.0255017
  93.4069987  10.1585006  49.0255017  92.2099987  11.0855006  49.0255017
  93.9609987   8.0485006  49.6905017  94.9179987   8.0485006  49.6905017
  93.7209987   8.9755006  49.6905017  91.6799987   4.2645006  32.8575017
  92.6369987   4.2645006  32.8575017  91.4399987   5.1915006  32.8575017
  91.2579987   5.7785006  37.7795017  92.2149987   5.7785006  37.7795017
  91.0179987   6.7055006  37.7795017  91.9029987   6.3255006  43.2435017
  92.8599987   6.3255006  43.2435017  91.6629987   7.2525006  43.2435017
  91.9679987   7.0545006  46.0315017  92.9249987   7.0545006  46.0315017
  91.7279987   7.9815006  46.0315017  76.2239987   5.5765006  49.5475017
  77.1809987   5.5765006  49.5475017  75.9839987   6.5035006  49.5475017
  94.1739987   1.1865006  51.3285017  95.1309987   1.1865006  51.3285017
  93.9339987   2.1135006  51.3285017  91.9219987   3.0585006  37.8325017
  92.8789987   3.0585006  37.8325017  91.6819987   3.9855006  37.8325017
  77.4009987   3.8955006  42.3945017  78.3579987   3.8955006  42.3945017
  77.1609987   4.8225006  42.3945017  75.7139987   6.8705006  43.4555017
  76.6709987   6.8705006  43.4555017  75.4739987   7.7975006  43.4555017
  93.7619987   3.2095006  49.7265017  94.7189987   3.2095006  49.7265017
  93.5219987   4.1365006  49.7265017  93.7769987   3.1185006  34.4225017
  94.7339987   3.1185006  34.4225017  93.5369987   4.0455006  34.4225017
  76.0719987   3.0965006  37.5385017  77.0289987   3.0965006  37.5385017
  75.8319987   4.0235006  37.5385017  90.8149987  18.0695006  39.4615017
  91.7719987  18.0695006  39.4615017  90.5749987  18.9965006  39.4615017
  76.0539987   1.8485006  45.8595017  77.0109987   1.8485006  45.8595017
  75.8139987   2.7755006  45.8595017  78.2499987  14.9825006  49.9945017
  79.2069987  14.9825006  49.9945017  78.0099987  15.9095006  49.9945017
  81.1579987  15.9755006  46.2645017  82.1149987  15.9755006  46.2645017
  80.9179987  16.9025006  46.2645017  85.4809987  17.4035006  49.1845017
  86.4379987  17.4035006  49.1845017  85.2409987  18.3305006  49.1845017
  87.7799987  18.6735006  48.4715017  88.7369987  18.6735006  48.4715017
  87.5399987  19.6005006  48.4715017  92.8649987   1.4255006  47.5265017
  93.8219987   1.4255006  47.5265017  92.6249987   2.3525006  47.5265017
  78.5799987  19.2325006  46.2845017  79.5369987  19.2325006  46.2845017
  78.3399987  20.1595006  46.2845017  81.0549987  18.8065006  45.3385017
  82.0119987  18.8065006  45.3385017  80.8149987  19.7335006  45.3385017
  85.7309987  18.7025006  44.5235017  86.6879987  18.7025006  44.5235017
  85.4909987  19.6295006  44.5235017  88.0589987  17.5455006  45.5265017
  89.0159987  17.5455006  45.5265017  87.8189987  18.4725006  45.5265017
  90.6479987  19.1155006  45.7535017  91.6049987  19.1155006  45.7535017
  90.4079987  20.0425006  45.7535017  78.0209987  17.8765006  43.2075017
  78.9779987  17.8765006  43.2075017  77.7809987  18.8035006  43.2075017
  80.1339987  16.5725006  41.8365017  81.0909987  16.5725006  41.8365017
  79.8939987  17.4995006  41.8365017  82.7049987  17.0515006  42.7145017
  83.6619987  17.0515006  42.7145017  82.4649987  17.9785006  42.7145017
  86.1679987   2.7455006  41.8685017  87.1249987   2.7455006  41.8685017
  85.9279987   3.6725006  41.8685017  91.3889987   1.0815006  42.1255017
  92.3459987   1.0815006  42.1255017  91.1489987   2.0085006  42.1255017
  93.0229987   1.9875006  40.2465017  93.9799987   1.9875006  40.2465017
  92.7829987   2.9145006  40.2465017  78.4909987   1.3245006  39.7065017
  79.4479987   1.3245006  39.7065017  78.2509987   2.2515006  39.7065017
  77.5989987   1.5175006  35.8585017  78.5559987   1.5175006  35.8585017
  77.3589987   2.4445006  35.8585017  83.0549987   1.3035006  39.4915017
  84.0119987   1.3035006  39.4915017  82.8149987   2.2305006  39.4915017
  88.6469987   1.3265006  41.1385017  89.6039987   1.3265006  41.1385017
  88.4069987   2.2535006  41.1385017  90.0009987   1.3525006  36.8815017
  90.9579987   1.3525006  36.8815017  89.7609987   2.2795006  36.8815017
  77.2409987  17.0555006  36.4425017  78.1979987  17.0555006  36.4425017
  77.0009987  17.9825006  36.4425017  79.1649987   3.0445006  33.9265017
  80.1219987   3.0445006  33.9265017  78.9249987   3.9715006  33.9265017
  84.1679987   3.3075006  36.3665017  85.1249987   3.3075006  36.3665017
  83.9279987   4.2345006  36.3665017  86.0979987  18.3375006  34.8035017
  87.0549987  18.3375006  34.8035017  85.8579987  19.2645006  34.8035017
  92.8219987  17.8615006  37.5065017  93.7789987  17.8615006  37.5065017
  92.5819987  18.7885006  37.5065017  78.4099987   1.8965006  49.2305017
  79.3669987   1.8965006  49.2305017  78.1699987   2.8235006  49.2305017
  80.4289987   1.2545006  50.7655017  81.3859987   1.2545006  50.7655017
  80.1889987   2.1815006  50.7655017  79.0339987  18.0265006  33.4065017
  79.9909987  18.0265006  33.4065017  78.7939987  18.9535006  33.4065017
  88.9179987 108.3825006  50.8115017  89.8749987 108.3825006  50.8115017
  88.6779987 109.3095006  50.8115017  92.0489987  16.6005006  49.6055017
  93.0059987  16.6005006  49.6055017  91.8089987  17.5275006  49.6055017
 106.4469987  10.4535006  39.5785017 107.4039987  10.4535006  39.5785017
 106.2069987  11.3805006  39.5785017 105.2729987   9.7655006  43.0845017
 106.2299987   9.7655006  43.0845017 105.0329987  10.6925006  43.0845017
  97.7139987   9.4005006  44.6265017  98.6709987   9.4005006  44.6265017
  97.4739987  10.3275006  44.6265017  98.6359987  13.8525006  43.1575017
  99.5929987  13.8525006  43.1575017  98.3959987  14.7795006  43.1575017
  95.2819987   7.4345006  38.6135017  96.2389987   7.4345006  38.6135017
  95.0419987   8.3615006  38.6135017  95.9689987   9.6555006  40.7525017
  96.9259987   9.6555006  40.7525017  95.7289987  10.5825006  40.7525017
 106.1679987  17.7985006  41.5645017 107.1249987  17.7985006  41.5645017
 105.9279987  18.7255006  41.5645017 103.6969987  12.1415006  43.5025017
 104.6539987  12.1415006  43.5025017 103.4569987  13.0685006  43.5025017
 106.2239987   6.3615006  43.8065017 107.1809987   6.3615006  43.8065017
 105.9839987   7.2885006  43.8065017 100.0239987   4.6995006  41.0765017
 100.9809987   4.6995006  41.0765017  99.7839987   5.6265006  41.0765017
 107.7229987   5.2785006  39.0515017 108.6799987   5.2785006  39.0515017
 107.4829987   6.2055006  39.0515017  96.6399987   7.1055006  41.8205017
  97.5969987   7.1055006  41.8205017  96.3999987   8.0325006  41.8205017
 101.8189987   8.6685006  41.0545017 102.7759987   8.6685006  41.0545017
 101.5789987   9.5955006  41.0545017  98.9169987   3.6035006  45.1335017
  99.8739987   3.6035006  45.1335017  98.6769987   4.5305006  45.1335017
 106.1809987  13.0735006  38.6815017 107.1379987  13.0735006  38.6815017
 105.9409987  14.0005006  38.6815017 101.4359987  11.2425006  45.3805017
 102.3929987  11.2425006  45.3805017 101.1959987  12.1695006  45.3805017
  98.4619987   5.4795006  43.1265017  99.4189987   5.4795006  43.1265017
  98.2219987   6.4065006  43.1265017  99.8709987  13.2315006  46.1915017
 100.8279987  13.2315006  46.1915017  99.6309987  14.1585006  46.1915017
  95.9789987  12.8745006  36.9785017  96.9359987  12.8745006  36.9785017
  95.7389987  13.8015006  36.9785017 102.8419987   0.9645006  42.4475017
 103.7989987   0.9645006  42.4475017 102.6019987   1.8915006  42.4475017
 107.5019987  16.1305006  39.9255017 108.4589987  16.1305006  39.9255017
 107.2619987  17.0575006  39.9255017 105.0929987   9.7325006  37.0845017
 106.0499987   9.7325006  37.0845017 104.8529987  10.6595006  37.0845017
 105.1849987   8.2525006  34.1265017 106.1419987   8.2525006  34.1265017
 104.9449987   9.1795006  34.1265017 100.2799987  10.6005006  39.8835017
 101.2369987  10.6005006  39.8835017 100.0399987  11.5275006  39.8835017
 101.5359987  13.9895006  42.6095017 102.4929987  13.9895006  42.6095017
 101.2959987  14.9165006  42.6095017 100.5469987   9.3365006  43.5755017
 101.5039987   9.3365006  43.5755017 100.3069987  10.2635006  43.5755017
 106.5349987  14.9225006  44.3355017 107.4919987  14.9225006  44.3355017
 106.2949987  15.8495006  44.3355017 101.4869987  13.7615006  48.2865017
 102.4439987  13.7615006  48.2865017 101.2469987  14.6885006  48.2865017
 107.4369987   9.1195006  35.7285017 108.3939987   9.1195006  35.7285017
 107.1969987  10.0465006  35.7285017  98.4209987   9.9285006  47.4635017
  99.3779987   9.9285006  47.4635017  98.1809987  10.8555006  47.4635017
 105.0839987  15.8465006  39.1465017 106.0409987  15.8465006  39.1465017
 104.8439987  16.7735006  39.1465017  99.7269987  15.8115006  49.0415017
 100.6839987  15.8115006  49.0415017  99.4869987  16.7385006  49.0415017
  99.2299987   9.6355006  37.5265017 100.1869987   9.6355006  37.5265017
  98.9899987  10.5625006  37.5265017  95.2779987  12.0435006  46.4145017
  96.2349987  12.0435006  46.4145017  95.0379987  12.9705006  46.4145017
  95.0419987  14.7705006  43.2245017  95.9989987  14.7705006  43.2245017
  94.8019987  15.6975006  43.2245017 104.2419987  15.0225006  47.7905017
 105.1989987  15.0225006  47.7905017 104.0019987  15.9495006  47.7905017
 104.6489987  18.7715006  37.5725017 105.6059987  18.7715006  37.5725017
 104.4089987  19.6985006  37.5725017  98.3179987  17.6125006  39.3495017
  99.2749987  17.6125006  39.3495017  98.0779987  18.5395006  39.3495017
 107.7319987  17.9585006  34.5375017 108.6889987  17.9585006  34.5375017
 107.4919987  18.8855006  34.5375017 107.2479987  17.7355006  37.1765017
 108.2049987  17.7355006  37.1765017 107.0079987  18.6625006  37.1765017
  97.5469987  13.3605006  47.3775017  98.5039987  13.3605006  47.3775017
  97.3069987  14.2875006  47.3775017 100.3129987   1.9275006  43.2775017
 101.2699987   1.9275006  43.2775017 100.0729987   2.8545006  43.2775017
 104.9239987   1.5395006  46.7695017 105.8809987   1.5395006  46.7695017
 104.6839987   2.4665006  46.7695017 104.5339987   4.0535006  34.0415017
 105.4909987   4.0535006  34.0415017 104.2939987   4.9805006  34.0415017
 100.3029987   6.7915006  44.5475017 101.2599987   6.7915006  44.5475017
 100.0629987   7.7185006  44.5475017 100.2829987   6.9835006  39.4095017
 101.2399987   6.9835006  39.4095017 100.0429987   7.9105006  39.4095017
 105.7749987   7.4345006  38.2235017 106.7319987   7.4345006  38.2235017
 105.5349987   8.3615006  38.2235017 104.8989987   7.6515006  49.7005017
 105.8559987   7.6515006  49.7005017 104.6589987   8.5785006  49.7005017
 106.7899987   6.8775006  41.0575017 107.7469987   6.8775006  41.0575017
 106.5499987   7.8045006  41.0575017  97.9659987   7.0735006  46.2875017
  98.9229987   7.0735006  46.2875017  97.7259987   8.0005006  46.2875017
 101.3459987   4.4955006  33.1395017 102.3029987   4.4955006  33.1395017
 101.1059987   5.4225006  33.1395017  94.5989987   4.2075006  40.2245017
  95.5559987   4.2075006  40.2245017  94.3589987   5.1345006  40.2245017
  95.8879987   4.9265006  35.6305017  96.8449987   4.9265006  35.6305017
  95.6479987   5.8535006  35.6305017 106.0439987   8.5005006  45.6595017
 107.0009987   8.5005006  45.6595017 105.8039987   9.4275006  45.6595017
 102.8539987   4.4665006  40.4525017 103.8109987   4.4665006  40.4525017
 102.6139987   5.3935006  40.4525017  97.6659987   6.0415006  39.3245017
  98.6229987   6.0415006  39.3245017  97.4259987   6.9685006  39.3245017
 101.3079987   6.0995006  36.9805017 102.2649987   6.0995006  36.9805017
 101.0679987   7.0265006  36.9805017 107.2339987   3.6535006  43.7385017
 108.1909987   3.6535006  43.7385017 106.9939987   4.5805006  43.7385017
 100.0109987   7.2675006  34.5495017 100.9679987   7.2675006  34.5495017
  99.7709987   8.1945006  34.5495017  98.1359987  11.8135006  49.5915017
  99.0929987  11.8135006  49.5915017  97.8959987  12.7405006  49.5915017
 104.0889987   7.2245006  42.2935017 105.0459987   7.2245006  42.2935017
 103.8489987   8.1515006  42.2935017  99.1319987   3.3695006  38.7755017
 100.0889987   3.3695006  38.7755017  98.8919987   4.2965006  38.7755017
 102.7559987   5.5715006  44.7605017 103.7129987   5.5715006  44.7605017
 102.5159987   6.4985006  44.7605017 103.3929987  11.8005006  36.3905017
 104.3499987  11.8005006  36.3905017 103.1529987  12.7275006  36.3905017
 107.1659987   4.6205006  34.6535017 108.1229987   4.6205006  34.6535017
 106.9259987   5.5475006  34.6535017 104.8409987  12.0105006  47.6925017
 105.7979987  12.0105006  47.6925017 104.6009987  12.9375006  47.6925017
   0.1149987   6.6165006  36.3465017   1.0719987   6.6165006  36.3465017
  -0.1250013   7.5435006  36.3465017  98.4639987  11.1545006  42.2465017
  99.4209987  11.1545006  42.2465017  98.2239987  12.0815006  42.2465017
 105.4629987  13.2425006  35.4885017 106.4199987  13.2425006  35.4885017
 105.2229987  14.1695006  35.4885017  95.4549987   9.5815006  47.5275017
  96.4119987   9.5815006  47.5275017  95.2149987  10.5085006  47.5275017
 102.4719987   9.1325006  49.7175017 103.4289987   9.1325006  49.7175017
 102.2319987  10.0595006  49.7175017 107.1529987  14.5065006  47.6285017
 108.1099987  14.5065006  47.6285017 106.9129987  15.4335006  47.6285017
 100.8279987  14.6165006  39.5975017 101.7849987  14.6165006  39.5975017
 100.5879987  15.5435006  39.5975017  96.6019987   9.4725006  34.2115017
  97.5589987   9.4725006  34.2115017  96.3619987  10.3995006  34.2115017
 102.2919987  12.4105006  39.3645017 103.2489987  12.4105006  39.3645017
 102.0519987  13.3375006  39.3645017 102.7069987  16.4645006  45.5575017
 103.6639987  16.4645006  45.5575017 102.4669987  17.3915006  45.5575017
 100.9159987  17.3205006  38.6435017 101.8729987  17.3205006  38.6435017
 100.6759987  18.2475006  38.6435017 106.2749987  12.4765006  45.2165017
 107.2319987  12.4765006  45.2165017 106.0349987  13.4035006  45.2165017
  97.1119987   4.3045006  47.1035017  98.0689987   4.3045006  47.1035017
  96.8719987   5.2315006  47.1035017  96.7299987  16.1115006  45.5065017
  97.6869987  16.1115006  45.5065017  96.4899987  17.0385006  45.5065017
 102.6569987  14.6325006  32.7515017 103.6139987  14.6325006  32.7515017
 102.4169987  15.5595006  32.7515017 101.4729987  14.1535006  35.2225017
 102.4299987  14.1535006  35.2225017 101.2329987  15.0805006  35.2225017
  98.0329987  11.3825006  35.7395017  98.9899987  11.3825006  35.7395017
  97.7929987  12.3095006  35.7395017 105.8389987   4.0795006  46.0235017
 106.7959987   4.0795006  46.0235017 105.5989987   5.0065006  46.0235017
 106.3289987   3.8895006  37.0845017 107.2859987   3.8895006  37.0845017
 106.0889987   4.8165006  37.0845017 104.2739987  15.8095006  35.9375017
 105.2309987  15.8095006  35.9375017 104.0339987  16.7365006  35.9375017
 103.7889987   5.4515006  37.9305017 104.7459987   5.4515006  37.9305017
 103.5489987   6.3785006  37.9305017 104.3369987   6.3905006  47.1335017
 105.2939987   6.3905006  47.1335017 104.0969987   7.3175006  47.1335017
 104.7039987   2.4805006  38.8565017 105.6609987   2.4805006  38.8565017
 104.4639987   3.4075006  38.8565017 101.5849987  16.8685006  35.9315017
 102.5419987  16.8685006  35.9315017 101.3449987  17.7955006  35.9315017
 100.3229987   3.5775006  35.5355017 101.2799987   3.5775006  35.5355017
 100.0829987   4.5045006  35.5355017  98.5669987  14.0245006  34.5865017
  99.5239987  14.0245006  34.5865017  98.3269987  14.9515006  34.5865017
  96.9069987   6.6865006  33.7215017  97.8639987   6.6865006  33.7215017
  96.6669987   7.6135006  33.7215017  97.4799987   1.6815006  42.3105017
  98.4369987   1.6815006  42.3105017  97.2399987   2.6085006  42.3105017
  96.6749987  15.4015006  38.5935017  97.6319987  15.4015006  38.5935017
  96.4349987  16.3285006  38.5935017  95.8989987  18.0385006  49.8875017
  96.8559987  18.0385006  49.8875017  95.6589987  18.9655006  49.8875017
 100.5549987  16.9615006  51.5015017 101.5119987  16.9615006  51.5015017
 100.3149987  17.8885006  51.5015017 104.7089987  16.4675006  32.8775017
 105.6659987  16.4675006  32.8775017 104.4689987  17.3945006  32.8775017
 107.1369987  15.3415006  50.2365017 108.0939987  15.3415006  50.2365017
 106.8969987  16.2685006  50.2365017  95.8149987  11.8235006  50.8765017
  96.7719987  11.8235006  50.8765017  95.5749987  12.7505006  50.8765017
 100.1569987  12.1665006  32.9525017 101.1139987  12.1665006  32.9525017
  99.9169987  13.0935006  32.9525017 102.4969987  11.8025006  50.2745017
 103.4539987  11.8025006  50.2745017 102.2569987  12.7295006  50.2745017
 105.6009987  13.2455006  32.6965017 106.5579987  13.2455006  32.6965017
 105.3609987  14.1725006  32.6965017  96.7059987   9.0415006  50.2625017
  97.6629987   9.0415006  50.2625017  96.4659987   9.9685006  50.2625017
 101.3919987  10.1645006  35.3745017 102.3489987  10.1645006  35.3745017
 101.1519987  11.0915006  35.3745017 100.6179987   7.9985006  47.6295017
 101.5749987   7.9985006  47.6295017 100.3779987   8.9255006  47.6295017
 102.4099987   8.4105006  33.5435017 103.3669987   8.4105006  33.5435017
 102.1699987   9.3375006  33.5435017 105.6749987  10.5365006  50.9725017
 106.6319987  10.5365006  50.9725017 105.4349987  11.4635006  50.9725017
 101.0029987   5.3675006  48.6955017 101.9599987   5.3675006  48.6955017
 100.7629987   6.2945006  48.6955017 101.4129987   3.7615006  46.2365017
 102.3699987   3.7615006  46.2365017 101.1729987   4.6885006  46.2365017
 102.9779987   9.2185006  46.4785017 103.9349987   9.2185006  46.4785017
 102.7379987  10.1455006  46.4785017 107.3899987   7.0185006  51.5595017
 108.3469987   7.0185006  51.5595017 107.1499987   7.9455006  51.5595017
  99.4639987   6.6195006  50.6165017 100.4209987   6.6195006  50.6165017
  99.2239987   7.5465006  50.6165017 102.2989987   1.2505006  46.5025017
 103.2559987   1.2505006  46.5025017 102.0589987   2.1775006  46.5025017
 103.4709987   5.5175006  50.2245017 104.4279987   5.5175006  50.2245017
 103.2309987   6.4445006  50.2245017 106.1349987   4.6415006  49.2975017
 107.0919987   4.6415006  49.2975017 105.8949987   5.5685006  49.2975017
 107.8319987   3.3235006  51.2535017 108.7889987   3.3235006  51.2535017
 107.5919987   4.2505006  51.2535017  97.5639987   4.5265006  50.3535017
  98.5209987   4.5265006  50.3535017  97.3239987   5.4535006  50.3535017
 103.0029987 108.5225006  49.3745017 103.9599987 108.5225006  49.3745017
 102.7629987 109.4495006  49.3745017 102.7499987   2.2505006  51.4595017
 103.7069987   2.2505006  51.4595017 102.5099987   3.1775006  51.4595017
 102.2469987  19.0915006  34.6085017 103.2039987  19.0915006  34.6085017
 102.0069987  20.0185006  34.6085017  95.8199987  13.7025006  34.0615017
  96.7769987  13.7025006  34.0615017  95.5799987  14.6295006  34.0615017
  94.5999987  19.0615006  39.0445017  95.5569987  19.0615006  39.0445017
  94.3599987  19.9885006  39.0445017  95.4329987  17.1895006  40.8955017
  96.3899987  17.1895006  40.8955017  95.1929987  18.1165006  40.8955017
  95.4629987  10.2705006  43.4015017  96.4199987  10.2705006  43.4015017
  95.2229987  11.1975006  43.4015017  95.0809987   5.5765006  49.5445017
  96.0379987   5.5765006  49.5445017  94.8409987   6.5035006  49.5445017
  96.2509987   3.9005006  42.4085017  97.2079987   3.9005006  42.4085017
  96.0109987   4.8275006  42.4085017  94.5679987   6.8515006  43.4585017
  95.5249987   6.8515006  43.4585017  94.3279987   7.7785006  43.4585017
  94.9169987   3.0925006  37.5485017  95.8739987   3.0925006  37.5485017
  94.6769987   4.0195006  37.5485017  94.8919987   1.8175006  45.8355017
  95.8489987   1.8175006  45.8355017  94.6519987   2.7445006  45.8355017
  97.1069987  14.9835006  49.9915017  98.0639987  14.9835006  49.9915017
  96.8669987  15.9105006  49.9915017 100.0169987  15.9775006  46.2635017
 100.9739987  15.9775006  46.2635017  99.7769987  16.9045006  46.2635017
 104.3349987  17.4125006  49.2055017 105.2919987  17.4125006  49.2055017
 104.0949987  18.3395006  49.2055017 106.6879987  18.7135006  48.4325017
 107.6449987  18.7135006  48.4325017 106.4479987  19.6405006  48.4325017
  97.4419987  19.2265006  46.2755017  98.3989987  19.2265006  46.2755017
  97.2019987  20.1535006  46.2755017  99.9129987  18.8075006  45.3395017
 100.8699987  18.8075006  45.3395017  99.6729987  19.7345006  45.3395017
 104.5959987  18.7165006  44.5115017 105.5529987  18.7165006  44.5115017
 104.3559987  19.6435006  44.5115017 106.9369987  17.5845006  45.5225017
 107.8939987  17.5845006  45.5225017 106.6969987  18.5115006  45.5225017
  96.8799987  17.8745006  43.2045017  97.8369987  17.8745006  43.2045017
  96.6399987  18.8015006  43.2045017  98.9679987  16.5935006  41.8415017
  99.9249987  16.5935006  41.8415017  98.7279987  17.5205006  41.8415017
 101.5349987  17.0665006  42.7245017 102.4919987  17.0665006  42.7245017
 101.2949987  17.9935006  42.7245017 105.0049987   2.7305006  41.8685017
 105.9619987   2.7305006  41.8685017 104.7649987   3.6575006  41.8685017
  97.3519987   1.3245006  39.7055017  98.3089987   1.3245006  39.7055017
  97.1119987   2.2515006  39.7055017  96.4549987   1.5185006  35.8575017
  97.4119987   1.5185006  35.8575017  96.2149987   2.4455006  35.8575017
 101.9069987   1.3005006  39.4955017 102.8639987   1.3005006  39.4955017
 101.6669987   2.2275006  39.4955017 107.4099987   1.1835006  41.1795017
 108.3669987   1.1835006  41.1795017 107.1699987   2.1105006  41.1795017
  96.1629987  17.0825006  36.4085017  97.1199987  17.0825006  36.4085017
  95.9229987  18.0095006  36.4085017  98.0199987   3.0375006  33.9115017
  98.9769987   3.0375006  33.9115017  97.7799987   3.9645006  33.9115017
 102.9959987   3.3135006  36.3715017 103.9529987   3.3135006  36.3715017
 102.7559987   4.2405006  36.3715017 104.9359987  18.3385006  34.7945017
 105.8929987  18.3385006  34.7945017 104.6959987  19.2655006  34.7945017
  97.2669987   1.9065006  49.2365017  98.2239987   1.9065006  49.2365017
  97.0269987   2.8335006  49.2365017  99.2909987   1.2475006  50.7725017
 100.2479987   1.2475006  50.7725017  99.0509987   2.1745006  50.7725017
  97.8989987  18.0245006  33.4165017  98.8559987  18.0245006  33.4165017
  97.6589987  18.9515006  33.4165017   0.0039987 108.3805006  50.8105017
   0.9609987 108.3805006  50.8105017  -0.2360013 109.3075006  50.8105017
  12.1989987  29.3365006  39.5945017  13.1559987  29.3365006  39.5945017
  11.9589987  30.2635006  39.5945017  11.0719987  28.6045006  43.0815017
  12.0289987  28.6045006  43.0815017  10.8319987  29.5315006  43.0815017
   3.4769987  28.2355006  44.6105017   4.4339987  28.2355006  44.6105017
   3.2369987  29.1625006  44.6105017  14.8179987  31.5165006  41.3795017
  15.7749987  31.5165006  41.3795017  14.5779987  32.4435006  41.3795017
   4.3399987  32.7055006  43.1625017   5.2969987  32.7055006  43.1625017
   4.0999987  33.6325006  43.1625017   1.0659987  26.3825006  38.5665017
   2.0229987  26.3825006  38.5665017   0.8259987  27.3095006  38.5665017
   1.6879987  28.4735006  40.7435017   2.6449987  28.4735006  40.7435017
   1.4479987  29.4005006  40.7435017  11.8829987  36.6935006  41.5945017
  12.8399987  36.6935006  41.5945017  11.6429987  37.6205006  41.5945017
   9.4479987  31.0115006  43.5235017  10.4049987  31.0115006  43.5235017
   9.2079987  31.9385006  43.5235017  18.0669987  22.6345006  44.3005017
  19.0239987  22.6345006  44.3005017  17.8269987  23.5615006  44.3005017
  12.6129987  25.4615006  43.8475017  13.5699987  25.4615006  43.8475017
  12.3729987  26.3885006  43.8475017   5.7359987  23.5445006  41.0705017
   6.6929987  23.5445006  41.0705017   5.4959987  24.4715006  41.0705017
  13.4679987  23.6405006  39.4525017  14.4249987  23.6405006  39.4525017
  13.2279987  24.5675006  39.4525017   2.5409987  26.0035006  41.7215017
   3.4979987  26.0035006  41.7215017   2.3009987  26.9305006  41.7215017
   7.5189987  27.5135006  41.1065017   8.4759987  27.5135006  41.1065017
   7.2789987  28.4405006  41.1065017  18.4979987  24.0715006  46.5525017
  19.4549987  24.0715006  46.5525017  18.2579987  24.9985006  46.5525017
   4.6289987  22.4555006  45.1375017   5.5859987  22.4555006  45.1375017
   4.3889987  23.3825006  45.1375017  11.9369987  31.9395006  38.6705017
  12.8939987  31.9395006  38.6705017  11.6969987  32.8665006  38.6705017
   7.1539987  30.0975006  45.3815017   8.1109987  30.0975006  45.3815017
   6.9139987  31.0245006  45.3815017  15.2549987  22.9755006  41.4455017
  16.2119987  22.9755006  41.4455017  15.0149987  23.9025006  41.4455017
   4.2039987  24.2905006  43.1525017   5.1609987  24.2905006  43.1525017
   3.9639987  25.2175006  43.1525017   5.5919987  32.0855006  46.1855017
   6.5489987  32.0855006  46.1855017   5.3519987  33.0125006  46.1855017
   1.7049987  31.7405006  36.9555017   2.6619987  31.7405006  36.9555017
   1.4649987  32.6675006  36.9555017  15.2999987  33.3625006  43.7165017
  16.2569987  33.3625006  43.7165017  15.0599987  34.2895006  43.7165017
  15.6149987  21.6665006  45.1285017  16.5719987  21.6665006  45.1285017
  15.3749987  22.5935006  45.1285017   8.5889987  19.7785006  42.5825017
   9.5459987  19.7785006  42.5825017   8.3489987  20.7055006  42.5825017
  13.5469987  35.1625006  40.3305017  14.5039987  35.1625006  40.3305017
  13.3069987  36.0895006  40.3305017  14.7449987  33.0945006  38.8335017
  15.7019987  33.0945006  38.8335017  14.5049987  34.0215006  38.8335017
  16.3679987  31.6705006  47.3345017  17.3249987  31.6705006  47.3345017
  16.1279987  32.5975006  47.3345017  10.8799987  28.5805006  37.1075017
  11.8369987  28.5805006  37.1075017  10.6399987  29.5075006  37.1075017
  10.9349987  27.1155006  34.1145017  11.8919987  27.1155006  34.1145017
  10.6949987  28.0425006  34.1145017  18.2229987  27.9635006  45.3395017
  19.1799987  27.9635006  45.3395017  17.9829987  28.8905006  45.3395017
  14.3279987  28.8075006  38.0325017  15.2849987  28.8075006  38.0325017
  14.0879987  29.7345006  38.0325017  14.2349987  26.9555006  47.1295017
  15.1919987  26.9555006  47.1295017  13.9949987  27.8825006  47.1295017
   5.9519987  29.4645006  39.9325017   6.9089987  29.4645006  39.9325017
   5.7119987  30.3915006  39.9325017   7.2599987  32.8495006  42.6115017
   8.2169987  32.8495006  42.6115017   7.0199987  33.7765006  42.6115017
   6.2839987  28.1975006  43.5845017   7.2409987  28.1975006  43.5845017
   6.0439987  29.1245006  43.5845017  12.6459987  33.7595006  44.2895017
  13.6029987  33.7595006  44.2895017  12.4059987  34.6865006  44.2895017
   7.2049987  32.6155006  48.2875017   8.1619987  32.6155006  48.2875017
   6.9649987  33.5425006  48.2875017  13.1779987  27.9795006  35.6975017
  14.1349987  27.9795006  35.6975017  12.9379987  28.9065006  35.6975017
   4.1249987  28.7875006  47.4775017   5.0819987  28.7875006  47.4775017
   3.8849987  29.7145006  47.4775017  10.8979987  34.7065006  39.1575017
  11.8549987  34.7065006  39.1575017  10.6579987  35.6335006  39.1575017
   5.4409987  34.6655006  49.0435017   6.3979987  34.6655006  49.0435017
   5.2009987  35.5925006  49.0435017  16.9029987  19.7125006  35.5665017
  17.8599987  19.7125006  35.5665017  16.6629987  20.6395006  35.5665017
   4.9259987  28.4895006  37.5495017   5.8829987  28.4895006  37.5495017
   4.6859987  29.4165006  37.5495017  18.0299987  34.0685006  33.9325017
  18.9869987  34.0685006  33.9325017  17.7899987  34.9955006  33.9325017
   1.1249987  30.8735006  46.3655017   2.0819987  30.8735006  46.3655017
   0.8849987  31.8005006  46.3655017   1.0109987  33.7685006  42.9425017
   1.9679987  33.7685006  42.9425017   0.7709987  34.6955006  42.9425017
  18.9549987  34.3435006  48.8845017  19.9119987  34.3435006  48.8845017
  18.7149987  35.2705006  48.8845017   9.9459987  33.8795006  47.7695017
  10.9029987  33.8795006  47.7695017   9.7059987  34.8065006  47.7695017
  10.3799987  37.6285006  37.5745017  11.3369987  37.6285006  37.5745017
  10.1399987  38.5555006  37.5745017   4.0209987  36.4875006  39.3645017
   4.9779987  36.4875006  39.3645017   3.7809987  37.4145006  39.3645017
  13.4439987  36.8335006  34.5565017  14.4009987  36.8335006  34.5565017
  13.2039987  37.7605006  34.5565017  13.1339987  36.7615006  37.3215017
  14.0909987  36.7615006  37.3215017  12.8939987  37.6885006  37.3215017
  16.1299987  25.8095006  49.3865017  17.0869987  25.8095006  49.3865017
  15.8899987  26.7365006  49.3865017   3.2619987  32.2445006  47.3955017
   4.2189987  32.2445006  47.3955017   3.0219987  33.1715006  47.3955017
   5.9369987  20.6855006  43.3355017   6.8939987  20.6855006  43.3355017
   5.6969987  21.6125006  43.3355017  10.5819987  20.3665006  46.7105017
  11.5389987  20.3665006  46.7105017  10.3419987  21.2935006  46.7105017
  13.8849987  24.1845006  47.5965017  14.8419987  24.1845006  47.5965017
  13.6449987  25.1115006  47.5965017  14.6359987  29.0065006  33.4515017
  15.5929987  29.0065006  33.4515017  14.3959987  29.9335006  33.4515017
  10.2349987  22.9255006  34.0075017  11.1919987  22.9255006  34.0075017
   9.9949987  23.8525006  34.0075017   6.0449987  25.6475006  44.5575017
   7.0019987  25.6475006  44.5575017   5.8049987  26.5745006  44.5575017
   5.9849987  25.8045006  39.4365017   6.9419987  25.8045006  39.4365017
   5.7449987  26.7315006  39.4365017  11.5249987  26.2745006  38.2275017
  12.4819987  26.2745006  38.2275017  11.2849987  27.2015006  38.2275017
  10.5989987  26.4815006  49.6665017  11.5559987  26.4815006  49.6665017
  10.3589987  27.4085006  49.6665017  12.5549987  25.7555006  41.0565017
  13.5119987  25.7555006  41.0565017  12.3149987  26.6825006  41.0565017
   3.7039987  25.9225006  46.2965017   4.6609987  25.9225006  46.2965017
   3.4639987  26.8495006  46.2965017   7.0789987  23.3125006  33.1175017
   8.0359987  23.3125006  33.1175017   6.8389987  24.2395006  33.1175017
   0.4279987  22.3455006  40.5685017   1.3849987  22.3455006  40.5685017
   0.1879987  23.2725006  40.5685017   1.8009987  23.7555006  35.7065017
   2.7579987  23.7555006  35.7065017   1.5609987  24.6825006  35.7065017
  11.7689987  27.3595006  45.6425017  12.7259987  27.3595006  45.6425017
  11.5289987  28.2865006  45.6425017   8.5629987  23.3155006  40.4575017
   9.5199987  23.3155006  40.4575017   8.3229987  24.2425006  40.4575017
   3.3929987  24.8685006  39.3085017   4.3499987  24.8685006  39.3085017
   3.1529987  25.7955006  39.3085017   7.0229987  24.9175006  36.9455017
   7.9799987  24.9175006  36.9455017   6.7829987  25.8445006  36.9455017
  12.9719987  22.5515006  43.7075017  13.9289987  22.5515006  43.7075017
  12.7319987  23.4785006  43.7075017   5.7079987  26.1105006  34.5315017
   6.6649987  26.1105006  34.5315017   5.4679987  27.0375006  34.5315017
  16.1899987  38.1965006  50.0185017  17.1469987  38.1965006  50.0185017
  15.9499987  39.1235006  50.0185017   3.8569987  30.6495006  49.6055017
   4.8139987  30.6495006  49.6055017   3.6169987  31.5765006  49.6055017
   9.8569987  26.0825006  42.3535017  10.8139987  26.0825006  42.3535017
   9.6169987  27.0095006  42.3535017   4.8559987  22.2345006  38.7695017
   5.8129987  22.2345006  38.7695017   4.6159987  23.1615006  38.7695017
   8.4939987  24.4215006  44.7645017   9.4509987  24.4215006  44.7645017
   8.2539987  25.3485006  44.7645017   9.0799987  30.6475006  36.4555017
  10.0369987  30.6475006  36.4555017   8.8399987  31.5745006  36.4555017
  16.2539987  29.7805006  45.2215017  17.2109987  29.7805006  45.2215017
  16.0139987  30.7075006  45.2215017  12.9189987  23.4595006  34.6385017
  13.8759987  23.4595006  34.6385017  12.6789987  24.3865006  34.6385017
  10.5669987  30.8855006  47.6995017  11.5239987  30.8855006  47.6995017
  10.3269987  31.8125006  47.6995017  13.6479987  25.3615006  36.2825017
  14.6049987  25.3615006  36.2825017  13.4079987  26.2885006  36.2825017
   4.1839987  30.0205006  42.2575017   5.1409987  30.0205006  42.2575017
   3.9439987  30.9475006  42.2575017  11.1849987  32.1125006  35.4875017
  12.1419987  32.1125006  35.4875017  10.9449987  33.0395006  35.4875017
   1.1629987  28.4385006  47.5365017   2.1199987  28.4385006  47.5365017
   0.9229987  29.3655006  47.5365017   8.1889987  27.9905006  49.7195017
   9.1459987  27.9905006  49.7195017   7.9489987  28.9175006  49.7195017
  12.8599987  33.3215006  47.6415017  13.8169987  33.3215006  47.6415017
  12.6199987  34.2485006  47.6415017  18.5459987  25.5095006  36.0355017
  19.5029987  25.5095006  36.0355017  18.3059987  26.4365006  36.0355017
  18.5229987  31.3615006  48.8615017  19.4799987  31.3615006  48.8615017
  18.2829987  32.2885006  48.8615017  16.8159987  34.3435006  36.4505017
  17.7729987  34.3435006  36.4505017  16.5759987  35.2705006  36.4505017
  14.0389987  29.1585006  43.5165017  14.9959987  29.1585006  43.5165017
  13.7989987  30.0855006  43.5165017   6.5689987  33.4745006  39.6415017
   7.5259987  33.4745006  39.6415017   6.3289987  34.4015006  39.6415017
   2.2869987  28.3195006  34.2395017   3.2439987  28.3195006  34.2395017
   2.0469987  29.2465006  34.2395017   7.9829987  31.1455006  39.1675017
   8.9399987  31.1455006  39.1675017   7.7429987  32.0725006  39.1675017
   8.4319987  35.3255006  45.5595017   9.3889987  35.3255006  45.5595017
   8.1919987  36.2525006  45.5595017   6.6629987  36.1455006  38.7045017
   7.6199987  36.1455006  38.7045017   6.4229987  37.0725006  38.7045017
  11.9769987  31.3535006  45.2005017  12.9339987  31.3535006  45.2005017
  11.7369987  32.2805006  45.2005017  14.2709987  32.3885006  34.2805017
  15.2279987  32.3885006  34.2805017  14.0309987  33.3155006  34.2805017
  14.7439987  35.9235006  47.6935017  15.7009987  35.9235006  47.6935017
  14.5039987  36.8505006  47.6935017  18.7519987  36.7655006  34.5245017
  19.7089987  36.7655006  34.5245017  18.5119987  37.6925006  34.5245017
   2.8079987  23.1715006  47.0815017   3.7649987  23.1715006  47.0815017
   2.5679987  24.0985006  47.0815017  15.0669987  31.0355006  36.5115017
  16.0239987  31.0355006  36.5115017  14.8269987  31.9625006  36.5115017
   2.4749987  34.9735006  45.4895017   3.4319987  34.9735006  45.4895017
   2.2349987  35.9005006  45.4895017   8.3909987  33.4735006  32.7605017
   9.3479987  33.4735006  32.7605017   8.1509987  34.4005006  32.7605017
   7.2229987  33.0055006  35.2145017   8.1799987  33.0055006  35.2145017
   6.9829987  33.9325006  35.2145017   3.6919987  30.2325006  35.6965017
   4.6489987  30.2325006  35.6965017   3.4519987  31.1595006  35.6965017
  11.5529987  22.9395006  46.0155017  12.5099987  22.9395006  46.0155017
  11.3129987  23.8665006  46.0155017  12.3139987  22.5225006  37.1065017
  13.2709987  22.5225006  37.1065017  12.0739987  23.4495006  37.1065017
   9.9969987  34.6755006  35.9355017  10.9539987  34.6755006  35.9355017
   9.7569987  35.6025006  35.9355017   9.5309987  24.2775006  37.9315017
  10.4879987  24.2775006  37.9315017   9.2909987  25.2045006  37.9315017
  10.0819987  25.2875006  47.1195017  11.0389987  25.2875006  47.1195017
   9.8419987  26.2145006  47.1195017  10.4079987  21.3285006  38.8465017
  11.3649987  21.3285006  38.8465017  10.1679987  22.2555006  38.8465017
   7.3789987  35.7115006  35.9455017   8.3359987  35.7115006  35.9455017
   7.1389987  36.6385006  35.9455017   6.0499987  22.4285006  35.5345017
   7.0069987  22.4285006  35.5345017   5.8099987  23.3555006  35.5345017
  16.2759987  23.1765006  47.9705017  17.2329987  23.1765006  47.9705017
  16.0359987  24.1035006  47.9705017  14.8929987  26.9555006  41.9935017
  15.8499987  26.9555006  41.9935017  14.6529987  27.8825006  41.9935017
   4.2939987  32.8725006  34.5825017   5.2509987  32.8725006  34.5825017
   4.0539987  33.7995006  34.5825017   2.5799987  25.5495006  33.7635017
   3.5369987  25.5495006  33.7635017   2.3399987  26.4765006  33.7635017
  15.9639987  36.2065006  43.6715017  16.9209987  36.2065006  43.6715017
  15.7239987  37.1335006  43.6715017   3.4639987  20.3265006  42.4285017
   4.4209987  20.3265006  42.4285017   3.2239987  21.2535006  42.4285017
   2.3859987  34.2575006  38.6015017   3.3429987  34.2575006  38.6015017
   2.1459987  35.1845006  38.6015017   1.7149987  36.8415006  49.8265017
   2.6719987  36.8415006  49.8265017   1.4749987  37.7685006  49.8265017
   6.2659987  35.8075006  51.5065017   7.2229987  35.8075006  51.5065017
   6.0259987  36.7345006  51.5065017  10.3969987  35.3285006  32.8945017
  11.3539987  35.3285006  32.8945017  10.1569987  36.2555006  32.8945017
  12.7989987  34.1945006  50.2365017  13.7559987  34.1945006  50.2365017
  12.5589987  35.1215006  50.2365017  14.9679987  35.0865006  33.0935017
  15.9249987  35.0865006  33.0935017  14.7279987  36.0135006  33.0935017
   1.5089987  30.6825006  50.8775017   2.4659987  30.6825006  50.8775017
   1.2689987  31.6095006  50.8775017   5.8669987  31.0205006  32.9265017
   6.8239987  31.0205006  32.9265017   5.6269987  31.9475006  32.9265017
   8.2309987  30.6585006  50.2735017   9.1879987  30.6585006  50.2735017
   7.9909987  31.5855006  50.2735017  11.2829987  32.1135006  32.6875017
  12.2399987  32.1135006  32.6875017  11.0429987  33.0405006  32.6875017
  13.9339987  30.5275006  47.6595017  14.8909987  30.5275006  47.6595017
  13.6939987  31.4545006  47.6595017   2.3649987  27.8805006  50.2525017
   3.3219987  27.8805006  50.2525017   2.1249987  28.8075006  50.2525017
   7.0619987  29.0285006  35.3125017   8.0189987  29.0285006  35.3125017
   6.8219987  29.9555006  35.3125017   6.3379987  26.8545006  47.6295017
   7.2949987  26.8545006  47.6295017   6.0979987  27.7815006  47.6295017
   8.1329987  27.2495006  33.5365017   9.0899987  27.2495006  33.5365017
   7.8929987  28.1765006  33.5365017  11.3959987  29.4005006  50.9485017
  12.3529987  29.4005006  50.9485017  11.1559987  30.3275006  50.9485017
  17.4899987  29.5805006  32.9635017  18.4469987  29.5805006  32.9635017
  17.2499987  30.5075006  32.9635017   6.7329987  24.2285006  48.6975017
   7.6899987  24.2285006  48.6975017   6.4929987  25.1555006  48.6975017
   7.1309987  22.6065006  46.2295017   8.0879987  22.6065006  46.2295017
   6.8909987  23.5335006  46.2295017   8.6809987  28.0745006  46.4755017
   9.6379987  28.0745006  46.4755017   8.4409987  29.0015006  46.4755017
  13.0819987  25.8535006  51.4605017  14.0389987  25.8535006  51.4605017
  12.8419987  26.7805006  51.4605017  14.4079987  28.6425006  49.5915017
  15.3649987  28.6425006  49.5915017  14.1679987  29.5695006  49.5915017
   5.1799987  25.4785006  50.6065017   6.1369987  25.4785006  50.6065017
   4.9399987  26.4055006  50.6065017   7.9129987  20.0505006  46.6415017
   8.8699987  20.0505006  46.6415017   7.6729987  20.9775006  46.6415017
   9.1979987  24.3735006  50.2325017  10.1549987  24.3735006  50.2325017
   8.9579987  25.3005006  50.2325017  11.9109987  23.5125006  49.3125017
  12.8679987  23.5125006  49.3125017  11.6709987  24.4395006  49.3125017
  13.5079987  22.1385006  51.2555017  14.4649987  22.1385006  51.2555017
  13.2679987  23.0655006  51.2555017   3.3269987  23.4035006  50.3525017
   4.2839987  23.4035006  50.3525017   3.0869987  24.3305006  50.3525017
   8.1359987  19.4125006  49.3275017   9.0929987  19.4125006  49.3275017
   7.8959987  20.3395006  49.3275017   8.5019987  21.0455006  51.4165017
   9.4589987  21.0455006  51.4165017   8.2619987  21.9725006  51.4165017
   7.9809987  37.9465006  34.5965017   8.9379987  37.9465006  34.5965017
   7.7409987  38.8735006  34.5965017   1.5899987  32.5605006  34.0505017
   2.5469987  32.5605006  34.0505017   1.3499987  33.4875006  34.0505017
 108.0939987  37.9815006  39.0715017 109.0509987  37.9815006  39.0715017
 107.8539987  38.9085006  39.0715017   1.5129987  36.1985006  41.0215017
   2.4699987  36.1985006  41.0215017   1.2729987  37.1255006  41.0215017
  18.6699987  36.8455006  43.8595017  19.6269987  36.8455006  43.8595017
  18.4299987  37.7725006  43.8595017  16.6859987  32.1755006  51.4575017
  17.6429987  32.1755006  51.4575017  16.4459987  33.1025006  51.4575017
  17.9699987  30.5035006  36.9345017  18.9269987  30.5035006  36.9345017
  17.7299987  31.4305006  36.9345017  18.3429987  28.5825006  38.7975017
  19.2999987  28.5825006  38.7975017  18.1029987  29.5095006  38.7975017
  18.1229987  31.2495006  43.7165017  19.0799987  31.2495006  43.7165017
  17.8829987  32.1765006  43.7165017  16.6619987  34.1645006  46.0415017
  17.6189987  34.1645006  46.0415017  16.4219987  35.0915006  46.0415017
  18.6629987  28.3935006  35.1845017  19.6199987  28.3935006  35.1845017
  18.4229987  29.3205006  35.1845017  17.0289987  25.6355006  33.7095017
  17.9859987  25.6355006  33.7095017  16.7889987  26.5625006  33.7095017
  16.2159987  27.0445006  39.3835017  17.1729987  27.0445006  39.3835017
  15.9759987  27.9715006  39.3835017   1.1829987  29.1145006  43.4095017
   2.1399987  29.1145006  43.4095017   0.9429987  30.0415006  43.4095017
  17.0209987  29.0055006  49.0355017  17.9779987  29.0055006  49.0355017
  16.7809987  29.9325006  49.0355017  18.5379987  26.9045006  49.6895017
  19.4949987  26.9045006  49.6895017  18.2979987  27.8315006  49.6895017
  16.2689987  23.0895006  32.8345017  17.2259987  23.0895006  32.8345017
  16.0289987  24.0165006  32.8345017  15.8359987  24.6285006  37.7835017
  16.7929987  24.6285006  37.7835017  15.5959987  25.5555006  37.7835017
  16.4849987  25.2105006  43.2455017  17.4419987  25.2105006  43.2455017
  16.2449987  26.1375006  43.2455017  16.5339987  25.8985006  46.0055017
  17.4909987  25.8985006  46.0055017  16.2939987  26.8255006  46.0055017
   0.8799987  24.3855006  49.4695017   1.8369987  24.3855006  49.4695017
   0.6399987  25.3125006  49.4695017  18.8119987  19.9645006  51.4095017
  19.7689987  19.9645006  51.4095017  18.5719987  20.8915006  51.4095017
  16.5109987  21.9085006  37.8595017  17.4679987  21.9085006  37.8595017
  16.2709987  22.8355006  37.8595017   2.0859987  22.7445006  42.3995017
   3.0429987  22.7445006  42.3995017   1.8459987  23.6715006  42.3995017
   0.8909987  25.6765006  43.6125017   1.8479987  25.6765006  43.6125017
   0.6509987  26.6035006  43.6125017  18.3439987  22.0625006  49.7355017
  19.3009987  22.0625006  49.7355017  18.1039987  22.9895006  49.7355017
  18.3389987  21.9475006  34.4145017  19.2959987  21.9475006  34.4145017
  18.0989987  22.8745006  34.4145017   0.8929987  21.9215006  37.5435017
   1.8499987  21.9215006  37.5435017   0.6529987  22.8485006  37.5435017
  15.3859987  36.9275006  39.4795017  16.3429987  36.9275006  39.4795017
  15.1459987  37.8545006  39.4795017 108.3289987  20.6345006  45.8595017
 109.2859987  20.6345006  45.8595017 108.0889987  21.5615006  45.8595017
   2.8149987  33.8625006  50.0085017   3.7719987  33.8625006  50.0085017
   2.5749987  34.7895006  50.0085017   5.7349987  34.8355006  46.2665017
   6.6919987  34.8355006  46.2665017   5.4949987  35.7625006  46.2665017
  10.0579987  36.2605006  49.1815017  11.0149987  36.2605006  49.1815017
   9.8179987  37.1875006  49.1815017  12.3649987  37.5475006  48.4635017
  13.3219987  37.5475006  48.4635017  12.1249987  38.4745006  48.4635017
  17.3499987  20.1555006  47.5805017  18.3069987  20.1555006  47.5805017
  17.1099987  21.0825006  47.5805017   3.1499987  38.0915006  46.2975017
   4.1069987  38.0915006  46.2975017   2.9099987  39.0185006  46.2975017
   5.6469987  37.6735006  45.3415017   6.6039987  37.6735006  45.3415017
   5.4069987  38.6005006  45.3415017  10.3349987  37.5715006  44.5055017
  11.2919987  37.5715006  44.5055017  10.0949987  38.4985006  44.5055017
  12.6419987  36.4025006  45.5025017  13.5989987  36.4025006  45.5025017
  12.4019987  37.3295006  45.5025017  15.2289987  37.9865006  45.7695017
  16.1859987  37.9865006  45.7695017  14.9889987  38.9135006  45.7695017
   2.6369987  36.7495006  43.2625017   3.5939987  36.7495006  43.2625017
   2.3969987  37.6765006  43.2625017   4.6819987  35.4395006  41.8575017
   5.6389987  35.4395006  41.8575017   4.4419987  36.3665006  41.8575017
   7.2689987  35.9185006  42.7295017   8.2259987  35.9185006  42.7295017
   7.0289987  36.8455006  42.7295017  10.7549987  21.5725006  41.8755017
  11.7119987  21.5725006  41.8755017  10.5149987  22.4995006  41.8755017
  15.8839987  19.5935006  41.9385017  16.8409987  19.5935006  41.9385017
  15.6439987  20.5205006  41.9385017  17.5659987  20.8365006  40.2505017
  18.5229987  20.8365006  40.2505017  17.3259987  21.7635006  40.2505017
   3.1309987  20.2015006  39.6685017   4.0879987  20.2015006  39.6685017
   2.8909987  21.1285006  39.6685017   1.9409987  19.9575006  35.5105017
   2.8979987  19.9575006  35.5105017   1.7009987  20.8845006  35.5105017
   7.6169987  20.1225006  39.5025017   8.5739987  20.1225006  39.5025017
   7.3769987  21.0495006  39.5025017  13.3089987  20.1325006  41.1445017
  14.2659987  20.1325006  41.1445017  13.0689987  21.0595006  41.1445017
  14.5809987  20.1815006  36.8225017  15.5379987  20.1815006  36.8225017
  14.3409987  21.1085006  36.8225017   1.9209987  35.9275006  36.4375017
   2.8779987  35.9275006  36.4375017   1.6809987  36.8545006  36.4375017
   3.7349987  21.9125006  33.9455017   4.6919987  21.9125006  33.9455017
   3.4949987  22.8395006  33.9455017   8.7609987  22.1585006  36.3595017
   9.7179987  22.1585006  36.3595017   8.5209987  23.0855006  36.3595017
  10.6769987  37.1935006  34.8065017  11.6339987  37.1935006  34.8065017
  10.4369987  38.1205006  34.8065017  17.3889987  36.7145006  37.5065017
  18.3459987  36.7145006  37.5065017  17.1489987  37.6415006  37.5065017
   2.9949987  20.7385006  49.1695017   3.9519987  20.7385006  49.1695017
   2.7549987  21.6655006  49.1695017   5.0119987  20.1185006  50.7865017
   5.9689987  20.1185006  50.7865017   4.7719987  21.0455006  50.7865017
   3.5869987  36.8605006  33.3935017   4.5439987  36.8605006  33.3935017
   3.3469987  37.7875006  33.3935017  13.4239987  19.4115006  50.9525017
  14.3809987  19.4115006  50.9525017  13.1839987  20.3385006  50.9525017
  16.6049987  35.4435006  49.6215017  17.5619987  35.4435006  49.6215017
  16.3649987  36.3705006  49.6215017  29.9549987  28.6315006  43.0805017
  30.9119987  28.6315006  43.0805017  29.7149987  29.5585006  43.0805017
  22.2769987  28.2395006  44.6135017  23.2339987  28.2395006  44.6135017
  22.0369987  29.1665006  44.6135017  19.8269987  26.2855006  38.6505017
  20.7839987  26.2855006  38.6505017  19.5869987  27.2125006  38.6505017
  20.5219987  28.4975006  40.7595017  21.4789987  28.4975006  40.7595017
  20.2819987  29.4245006  40.7595017  36.9459987  22.6405006  44.3005017
  37.9029987  22.6405006  44.3005017  36.7059987  23.5675006  44.3005017
  31.4899987  25.4685006  43.8435017  32.4469987  25.4685006  43.8435017
  31.2499987  26.3955006  43.8435017  24.5899987  23.5175006  41.0955017
  25.5469987  23.5175006  41.0955017  24.3499987  24.4445006  41.0955017
  32.3219987  23.6655006  39.4495017  33.2789987  23.6655006  39.4495017
  32.0819987  24.5925006  39.4495017  21.1939987  25.9655006  41.8235017
  22.1509987  25.9655006  41.8235017  20.9539987  26.8925006  41.8235017
  37.3649987  24.0695006  46.5625017  38.3219987  24.0695006  46.5625017
  37.1249987  24.9965006  46.5625017  23.4779987  22.4505006  45.1255017
  24.4349987  22.4505006  45.1255017  23.2379987  23.3775006  45.1255017
  34.1159987  22.9745006  41.4545017  35.0729987  22.9745006  41.4545017
  33.8759987  23.9015006  41.4545017  23.0449987  24.3135006  43.1365017
  24.0019987  24.3135006  43.1365017  22.8049987  25.2405006  43.1365017
  20.5589987  31.7345006  36.9925017  21.5159987  31.7345006  36.9925017
  20.3189987  32.6615006  36.9925017  34.4639987  21.6825006  45.1255017
  35.4209987  21.6825006  45.1255017  34.2239987  22.6095006  45.1255017
  27.4469987  19.7795006  42.5855017  28.4039987  19.7795006  42.5855017
  27.2069987  20.7065006  42.5855017  37.0729987  27.9815006  45.3615017
  38.0299987  27.9815006  45.3615017  36.8329987  28.9085006  45.3615017
  33.0729987  26.9535006  47.1245017  34.0299987  26.9535006  47.1245017
  32.8329987  27.8805006  47.1245017  25.1649987  28.1555006  43.6165017
  26.1219987  28.1555006  43.6165017  24.9249987  29.0825006  43.6165017
  22.9969987  28.7815006  47.4675017  23.9539987  28.7815006  47.4675017
  22.7569987  29.7085006  47.4675017  35.7579987  19.7045006  35.5715017
  36.7149987  19.7045006  35.5715017  35.5179987  20.6315006  35.5715017
  19.8019987  30.8965006  46.4035017  20.7589987  30.8965006  46.4035017
  19.5619987  31.8235006  46.4035017  19.6189987  33.6205006  43.2275017
  20.5759987  33.6205006  43.2275017  19.3789987  34.5475006  43.2275017
  22.8479987  36.4745006  39.3645017  23.8049987  36.4745006  39.3645017
  22.6079987  37.4015006  39.3645017  35.0069987  25.8025006  49.3795017
  35.9639987  25.8025006  49.3795017  34.7669987  26.7295006  49.3795017
  24.7939987  20.6755006  43.3465017  25.7509987  20.6755006  43.3465017
  24.5539987  21.6025006  43.3465017  29.4399987  20.3675006  46.7105017
  30.3969987  20.3675006  46.7105017  29.1999987  21.2945006  46.7105017
  32.7449987  24.1755006  47.6035017  33.7019987  24.1755006  47.6035017
  32.5049987  25.1025006  47.6035017  29.0679987  22.9165006  34.0325017
  30.0249987  22.9165006  34.0325017  28.8279987  23.8435006  34.0325017
  24.8839987  25.6455006  44.5465017  25.8409987  25.6455006  44.5465017
  24.6439987  26.5725006  44.5465017  24.8559987  25.7135006  39.4625017
  25.8129987  25.7135006  39.4625017  24.6159987  26.6405006  39.4625017
  30.3859987  26.2925006  38.2185017  31.3429987  26.2925006  38.2185017
  30.1459987  27.2195006  38.2185017  29.4699987  26.4995006  49.6735017
  30.4269987  26.4995006  49.6735017  29.2299987  27.4265006  49.6735017
  31.4009987  25.7315006  41.0395017  32.3579987  25.7315006  41.0395017
  31.1609987  26.6585006  41.0395017  22.5459987  25.9355006  46.2875017
  23.5029987  25.9355006  46.2875017  22.3059987  26.8625006  46.2875017
  25.9179987  23.3245006  33.1145017  26.8749987  23.3245006  33.1145017
  25.6779987  24.2515006  33.1145017  19.1829987  23.0365006  40.2325017
  20.1399987  23.0365006  40.2325017  18.9429987  23.9635006  40.2325017
  20.4499987  23.7485006  35.5985017  21.4069987  23.7485006  35.5985017
  20.2099987  24.6755006  35.5985017  27.4309987  23.2725006  40.4555017
  28.3879987  23.2725006  40.4555017  27.1909987  24.1995006  40.4555017
  22.2139987  24.8625006  39.3495017  23.1709987  24.8625006  39.3495017
  21.9739987  25.7895006  39.3495017  25.8839987  24.8975006  36.9355017
  26.8409987  24.8975006  36.9355017  25.6439987  25.8245006  36.9355017
  31.8259987  22.5485006  43.7085017  32.7829987  22.5485006  43.7085017
  31.5859987  23.4755006  43.7085017  24.5719987  26.0875006  34.5225017
  25.5289987  26.0875006  34.5225017  24.3319987  27.0145006  34.5225017
  22.7359987  30.6515006  49.5995017  23.6929987  30.6515006  49.5995017
  22.4959987  31.5785006  49.5995017  28.7409987  26.0765006  42.3715017
  29.6979987  26.0765006  42.3715017  28.5009987  27.0035006  42.3715017
  23.7169987  22.2125006  38.7835017  24.6739987  22.2125006  38.7835017
  23.4769987  23.1395006  38.7835017  27.3529987  24.4415006  44.7615017
  28.3099987  24.4415006  44.7615017  27.1129987  25.3685006  44.7615017
  31.7929987  23.4445006  34.6735017  32.7499987  23.4445006  34.6735017
  31.5529987  24.3715006  34.6735017  32.5049987  25.4215006  36.3655017
  33.4619987  25.4215006  36.3655017  32.2649987  26.3485006  36.3655017
  23.0009987  29.9755006  42.2405017  23.9579987  29.9755006  42.2405017
  22.7609987  30.9025006  42.2405017  20.0319987  28.4355006  47.5125017
  20.9889987  28.4355006  47.5125017  19.7919987  29.3625006  47.5125017
  27.0549987  27.9775006  49.7205017  28.0119987  27.9775006  49.7205017
  26.8149987  28.9045006  49.7205017  21.1799987  28.3335006  34.1925017
  22.1369987  28.3335006  34.1925017  20.9399987  29.2605006  34.1925017
  33.6159987  35.8725006  47.7205017  34.5729987  35.8725006  47.7205017
  33.3759987  36.7995006  47.7205017  21.6819987  23.1735006  47.0755017
  22.6389987  23.1735006  47.0755017  21.4419987  24.1005006  47.0755017
  22.5439987  30.2545006  35.6445017  23.5009987  30.2545006  35.6445017
  22.3039987  31.1815006  35.6445017  30.4069987  22.9435006  46.0165017
  31.3639987  22.9435006  46.0165017  30.1669987  23.8705006  46.0165017
  31.1499987  22.5525006  37.1105017  32.1069987  22.5525006  37.1105017
  30.9099987  23.4795006  37.1105017  28.4039987  24.2875006  37.9165017
  29.3609987  24.2875006  37.9165017  28.1639987  25.2145006  37.9165017
  28.9139987  25.3035006  47.1225017  29.8709987  25.3035006  47.1225017
  28.6739987  26.2305006  47.1225017  29.2429987  21.3385006  38.8365017
  30.1999987  21.3385006  38.8365017  29.0029987  22.2655006  38.8365017
  24.9079987  22.4275006  35.5285017  25.8649987  22.4275006  35.5285017
  24.6679987  23.3545006  35.5285017  35.1539987  23.1555006  47.9545017
  36.1109987  23.1555006  47.9545017  34.9139987  24.0825006  47.9545017
  33.6459987  26.9475006  42.1275017  34.6029987  26.9475006  42.1275017
  33.4059987  27.8745006  42.1275017  23.1659987  32.8715006  34.5785017
  24.1229987  32.8715006  34.5785017  22.9259987  33.7985006  34.5785017
  21.4809987  25.5315006  33.7215017  22.4379987  25.5315006  33.7215017
  21.2409987  26.4585006  33.7215017  22.2999987  20.3315006  42.4415017
  23.2569987  20.3315006  42.4415017  22.0599987  21.2585006  42.4415017
  21.2069987  34.2375006  38.5705017  22.1639987  34.2375006  38.5705017
  20.9669987  35.1645006  38.5705017  20.4519987  36.8745006  49.9025017
  21.4089987  36.8745006  49.9025017  20.2119987  37.8015006  49.9025017
  20.3839987  30.6735006  50.8935017  21.3409987  30.6735006  50.8935017
  20.1439987  31.6005006  50.8935017  21.2829987  27.9025006  50.2645017
  22.2399987  27.9025006  50.2645017  21.0429987  28.8295006  50.2645017
  25.2169987  26.8675006  47.6325017  26.1739987  26.8675006  47.6325017
  24.9769987  27.7945006  47.6325017  25.5729987  24.2155006  48.6965017
  26.5299987  24.2155006  48.6965017  25.3329987  25.1425006  48.6965017
  25.9849987  22.6015006  46.2245017  26.9419987  22.6015006  46.2245017
  25.7449987  23.5285006  46.2245017  27.5289987  28.1055006  46.4715017
  28.4859987  28.1055006  46.4715017  27.2889987  29.0325006  46.4715017
  31.9379987  25.8485006  51.4675017  32.8949987  25.8485006  51.4675017
  31.6979987  26.7755006  51.4675017  33.2319987  28.6195006  49.4905017
  34.1889987  28.6195006  49.4905017  32.9919987  29.5465006  49.4905017
  24.0399987  25.4645006  50.6165017  24.9969987  25.4645006  50.6165017
  23.7999987  26.3915006  50.6165017  26.7809987  20.0445006  46.6365017
  27.7379987  20.0445006  46.6365017  26.5409987  20.9715006  46.6365017
  28.0599987  24.3695006  50.2305017  29.0169987  24.3695006  50.2305017
  27.8199987  25.2965006  50.2305017  30.7689987  23.5115006  49.3065017
  31.7259987  23.5115006  49.3065017  30.5289987  24.4385006  49.3065017
  32.3629987  22.1385006  51.2605017  33.3199987  22.1385006  51.2605017
  32.1229987  23.0655006  51.2605017  22.1419987  23.3975006  50.3445017
  23.0989987  23.3975006  50.3445017  21.9019987  24.3245006  50.3445017
  26.9919987  19.4115006  49.3275017  27.9489987  19.4115006  49.3275017
  26.7519987  20.3385006  49.3275017  27.3609987  21.0455006  51.4175017
  28.3179987  21.0455006  51.4175017  27.1209987  21.9725006  51.4175017
  20.4199987  32.5795006  34.0425017  21.3769987  32.5795006  34.0425017
  20.1799987  33.5065006  34.0425017  19.1529987  37.9315006  39.0765017
  20.1099987  37.9315006  39.0765017  18.9129987  38.8585006  39.0765017
  19.9579987  36.0525006  40.9075017  20.9149987  36.0525006  40.9075017
  19.7179987  36.9795006  40.9075017  20.0319987  29.0965006  43.3665017
  20.9889987  29.0965006  43.3665017  19.7919987  30.0235006  43.3665017
  35.8759987  29.0365006  48.9035017  36.8329987  29.0365006  48.9035017
  35.6359987  29.9635006  48.9035017  37.3889987  26.9075006  49.6825017
  38.3459987  26.9075006  49.6825017  37.1489987  27.8345006  49.6825017
  35.1009987  23.0035006  32.7975017  36.0579987  23.0035006  32.7975017
  34.8609987  23.9305006  32.7975017  35.3469987  25.1655006  43.2655017
  36.3039987  25.1655006  43.2655017  35.1069987  26.0925006  43.2655017
  35.4039987  25.9185006  46.0375017  36.3609987  25.9185006  46.0375017
  35.1639987  26.8455006  46.0375017  19.6489987  24.4275006  49.5485017
  20.6059987  24.4275006  49.5485017  19.4089987  25.3545006  49.5485017
  37.6829987  19.9425006  51.3965017  38.6399987  19.9425006  51.3965017
  37.4429987  20.8695006  51.3965017  35.3609987  21.9025006  37.8625017
  36.3179987  21.9025006  37.8625017  35.1209987  22.8295006  37.8625017
  20.8559987  22.7155006  42.4085017  21.8129987  22.7155006  42.4085017
  20.6159987  23.6425006  42.4085017  19.1109987  25.7475006  43.4155017
  20.0679987  25.7475006  43.4155017  18.8709987  26.6745006  43.4155017
  37.1829987  22.0355006  49.7295017  38.1399987  22.0355006  49.7295017
  36.9429987  22.9625006  49.7295017  37.1969987  21.9175006  34.4315017
  38.1539987  21.9175006  34.4315017  36.9569987  22.8445006  34.4315017
  19.5039987  21.9775006  37.5315017  20.4609987  21.9775006  37.5315017
  19.2639987  22.9045006  37.5315017  19.4709987  20.6715006  45.8325017
  20.4279987  20.6715006  45.8325017  19.2309987  21.5985006  45.8325017
  36.2389987  20.1665006  47.5675017  37.1959987  20.1665006  47.5675017
  35.9989987  21.0935006  47.5675017  21.9579987  38.0795006  46.3095017
  22.9149987  38.0795006  46.3095017  21.7179987  39.0065006  46.3095017
  29.6139987  21.5725006  41.8685017  30.5709987  21.5725006  41.8685017
  29.3739987  22.4995006  41.8685017  34.7389987  19.6315006  41.9655017
  35.6959987  19.6315006  41.9655017  34.4989987  20.5585006  41.9655017
  36.4189987  20.8055006  40.2615017  37.3759987  20.8055006  40.2615017
  36.1789987  21.7325006  40.2615017  21.9699987  20.2035006  39.7115017
  22.9269987  20.2035006  39.7115017  21.7299987  21.1305006  39.7115017
  20.7589987  19.9615006  35.4575017  21.7159987  19.9615006  35.4575017
  20.5189987  20.8885006  35.4575017  26.4709987  20.1225006  39.5005017
  27.4279987  20.1225006  39.5005017  26.2309987  21.0495006  39.5005017
  32.1289987  20.1445006  41.1465017  33.0859987  20.1445006  41.1465017
  31.8889987  21.0715006  41.1465017  33.4369987  20.1765006  36.8285017
  34.3939987  20.1765006  36.8285017  33.1969987  21.1035006  36.8285017
  20.6609987  35.9115006  36.4145017  21.6179987  35.9115006  36.4145017
  20.4209987  36.8385006  36.4145017  22.5909987  21.9035006  33.9445017
  23.5479987  21.9035006  33.9445017  22.3509987  22.8305006  33.9445017
  27.5959987  22.1685006  36.3625017  28.5529987  22.1685006  36.3625017
  27.3559987  23.0955006  36.3625017  21.8709987  20.7585006  49.1925017
  22.8279987  20.7585006  49.1925017  21.6309987  21.6855006  49.1925017
  23.8729987  20.1105006  50.7885017  24.8299987  20.1105006  50.7885017
  23.6329987  21.0375006  50.7885017  22.4659987  36.8735006  33.3765017
  23.4229987  36.8735006  33.3765017  22.2259987  37.8005006  33.3765017
  32.2769987  19.4185006  50.9545017  33.2339987  19.4185006  50.9545017
  32.0369987  20.3455006  50.9545017  40.1179987  25.9545006  41.8135017
  41.0749987  25.9545006  41.8135017  39.8779987  26.8815006  41.8135017
  42.3219987  22.4275006  45.1475017  43.2789987  22.4275006  45.1475017
  42.0819987  23.3545006  45.1475017  41.9519987  24.2685006  43.1655017
  42.9089987  24.2685006  43.1655017  41.7119987  25.1955006  43.1655017
  46.2999987  19.7525006  42.5695017  47.2569987  19.7525006  42.5695017
  46.0599987  20.6795006  42.5695017  41.8529987  28.8285006  47.4715017
  42.8099987  28.8285006  47.4715017  41.6129987  29.7555006  47.4715017
  43.1179987  34.6575006  49.0345017  44.0749987  34.6575006  49.0345017
  42.8779987  35.5845006  49.0345017  54.5959987  19.7115006  35.5695017
  55.5529987  19.7115006  35.5695017  54.3559987  20.6385006  35.5695017
  38.7359987  30.8995006  46.3585017  39.6929987  30.8995006  46.3585017
  38.4959987  31.8265006  46.3585017  40.9249987  32.2545006  47.4075017
  41.8819987  32.2545006  47.4075017  40.6849987  33.1815006  47.4075017
  43.6439987  20.6795006  43.3565017  44.6009987  20.6795006  43.3565017
  43.4039987  21.6065006  43.3565017  48.3019987  20.3725006  46.7125017
  49.2589987  20.3725006  46.7125017  48.0619987  21.2995006  46.7125017
  41.4349987  25.9125006  46.3045017  42.3919987  25.9125006  46.3045017
  41.1949987  26.8395006  46.3045017  38.0049987  22.9655006  40.2665017
  38.9619987  22.9655006  40.2665017  37.7649987  23.8925006  40.2665017
  41.5599987  30.6955006  49.5925017  42.5169987  30.6955006  49.5925017
  41.3199987  31.6225006  49.5925017  46.1929987  24.4485006  44.7785017
  47.1499987  24.4485006  44.7785017  45.9529987  25.3755006  44.7785017
  50.6239987  23.4725006  34.6455017  51.5809987  23.4725006  34.6455017
  50.3839987  24.3995006  34.6455017  38.8939987  28.4235006  47.5135017
  39.8509987  28.4235006  47.5135017  38.6539987  29.3505006  47.5135017
  40.5879987  23.2855006  46.9775017  41.5449987  23.2855006  46.9775017
  40.3479987  24.2125006  46.9775017  49.2189987  22.9665006  46.0275017
  50.1759987  22.9665006  46.0275017  48.9789987  23.8935006  46.0275017
  41.1539987  20.3145006  42.4505017  42.1109987  20.3145006  42.4505017
  40.9139987  21.2415006  42.4505017  44.0089987  35.7675006  51.4825017
  44.9659987  35.7675006  51.4825017  43.7689987  36.6945006  51.4825017
  40.1349987  27.8945006  50.2555017  41.0919987  27.8945006  50.2555017
  39.8949987  28.8215006  50.2555017  44.0979987  26.8685006  47.7115017
  45.0549987  26.8685006  47.7115017  43.8579987  27.7955006  47.7115017
  44.4029987  24.1975006  48.6895017  45.3599987  24.1975006  48.6895017
  44.1629987  25.1245006  48.6895017  44.8339987  22.6285006  46.1995017
  45.7909987  22.6285006  46.1995017  44.5939987  23.5555006  46.1995017
  42.9049987  25.4415006  50.6455017  43.8619987  25.4415006  50.6455017
  42.6649987  26.3685006  50.6455017  45.6319987  20.0555006  46.6425017
  46.5889987  20.0555006  46.6425017  45.3919987  20.9825006  46.6425017
  46.9129987  24.3945006  50.2145017  47.8699987  24.3945006  50.2145017
  46.6729987  25.3215006  50.2145017  40.9459987  23.3515006  50.3255017
  41.9029987  23.3515006  50.3255017  40.7059987  24.2785006  50.3255017
  45.8339987  19.4075006  49.3245017  46.7909987  19.4075006  49.3245017
  45.5939987  20.3345006  49.3245017  46.2039987  21.0325006  51.4275017
  47.1609987  21.0325006  51.4275017  45.9639987  21.9595006  51.4275017
  54.3699987  32.2045006  51.3905017  55.3269987  32.2045006  51.3905017
  54.1299987  33.1315006  51.3905017  55.8529987  31.2815006  43.6815017
  56.8099987  31.2815006  43.6815017  55.6129987  32.2085006  43.6815017
  38.5289987  24.3425006  49.4625017  39.4859987  24.3425006  49.4625017
  38.2889987  25.2695006  49.4625017  39.7169987  22.6945006  42.4105017
  40.6739987  22.6945006  42.4105017  39.4769987  23.6215006  42.4105017
  56.0959987  21.9325006  34.4375017  57.0529987  21.9325006  34.4375017
  55.8559987  22.8595006  34.4375017  38.3659987  21.9555006  37.4795017
  39.3229987  21.9555006  37.4795017  38.1259987  22.8825006  37.4795017
  38.3459987  20.7085006  45.8995017  39.3029987  20.7085006  45.8995017
  38.1059987  21.6355006  45.8995017  47.7739987  36.2505006  49.1755017
  48.7309987  36.2505006  49.1755017  47.5339987  37.1775006  49.1755017
  40.7949987  20.1955006  39.7455017  41.7519987  20.1955006  39.7455017
  40.5549987  21.1225006  39.7455017  39.6129987  19.9755006  35.4625017
  40.5699987  19.9755006  35.4625017  39.3729987  20.9025006  35.4625017
  45.3789987  20.0325006  39.5035017  46.3359987  20.0325006  39.5035017
  45.1389987  20.9595006  39.5035017  40.9449987  20.3745006  49.1405017
  41.9019987  20.3745006  49.1405017  40.7049987  21.3015006  49.1405017
  42.7799987  20.1225006  50.8815017  43.7369987  20.1225006  50.8815017
  42.5399987  21.0495006  50.8815017  51.1459987  19.4355006  50.9155017
  52.1029987  19.4355006  50.9155017  50.9059987  20.3625006  50.9155017
  71.8139987  22.9585006  41.4375017  72.7709987  22.9585006  41.4375017
  71.5739987  23.8855006  41.4375017  67.5089987  28.6145006  37.1355017
  68.4659987  28.6145006  37.1355017  67.2689987  29.5415006  37.1355017
  73.4649987  19.7025006  35.5535017  74.4219987  19.7025006  35.5535017
  73.2249987  20.6295006  35.5535017  61.6189987  22.0885006  38.8295017
  62.5759987  22.0885006  38.8295017  61.3789987  23.0155006  38.8295017
  65.6229987  30.6115006  36.4445017  66.5799987  30.6115006  36.4445017
  65.3829987  31.5385006  36.4445017  64.9829987  33.4795006  32.7665017
  65.9399987  33.4795006  32.7665017  64.7429987  34.4065006  32.7665017
  63.8469987  32.9815006  35.1875017  64.8039987  32.9815006  35.1875017
  63.6069987  33.9085006  35.1875017  68.1609987  22.8735006  45.9425017
  69.1179987  22.8735006  45.9425017  67.9209987  23.8005006  45.9425017
  68.8559987  22.5085006  37.0725017  69.8129987  22.5085006  37.0725017
  68.6159987  23.4355006  37.0725017  62.6019987  22.4165006  35.5945017
  63.5589987  22.4165006  35.5945017  62.3619987  23.3435006  35.5945017
  72.8309987  23.0825006  32.8535017  73.7879987  23.0825006  32.8535017
  72.5909987  24.0095006  32.8535017  75.3689987  19.9455006  51.3675017
  76.3259987  19.9455006  51.3675017  75.1289987  20.8725006  51.3675017
  73.1119987  21.8885006  37.8225017  74.0689987  21.8885006  37.8225017
  72.8719987  22.8155006  37.8225017  74.8999987  21.9345006  34.4205017
  75.8569987  21.9345006  34.4205017  74.6599987  22.8615006  34.4205017
  73.9049987  20.1385006  47.5805017  74.8619987  20.1385006  47.5805017
  73.6649987  21.0655006  47.5805017  72.4419987  19.6585006  41.9815017
  73.3989987  19.6585006  41.9815017  72.2019987  20.5855006  41.9815017
  74.1319987  20.8075006  40.2595017  75.0889987  20.8075006  40.2595017
  73.8919987  21.7345006  40.2595017  58.4939987  19.9665006  35.4985017
  59.4509987  19.9665006  35.4985017  58.2539987  20.8935006  35.4985017
  71.1439987  20.1945006  36.7985017  72.1009987  20.1945006  36.7985017
  70.9039987  21.1215006  36.7985017  60.3189987  21.8725006  34.0025017
  61.2759987  21.8725006  34.0025017  60.0789987  22.7995006  34.0025017
  65.3479987  22.2045006  36.3865017  66.3049987  22.2045006  36.3865017
  65.1079987  23.1315006  36.3865017  61.5779987  20.0935006  50.7565017
  62.5349987  20.0935006  50.7565017  61.3379987  21.0205006  50.7565017
  69.9999987  19.4235006  50.9485017  70.9569987  19.4235006  50.9485017
  69.7599987  20.3505006  50.9485017  87.6289987  29.3405006  39.5985017
  88.5859987  29.3405006  39.5985017  87.3889987  30.2675006  39.5985017
  86.5009987  28.6035006  43.0825017  87.4579987  28.6035006  43.0825017
  86.2609987  29.5305006  43.0825017  90.1949987  31.5435006  41.3585017
  91.1519987  31.5435006  41.3585017  89.9549987  32.4705006  41.3585017
  87.3569987  36.7215006  41.6395017  88.3139987  36.7215006  41.6395017
  87.1169987  37.6485006  41.6395017  84.8779987  31.0165006  43.5205017
  85.8349987  31.0165006  43.5205017  84.6379987  31.9435006  43.5205017
  93.5159987  22.6375006  44.2995017  94.4729987  22.6375006  44.2995017
  93.2759987  23.5645006  44.2995017  88.0339987  25.4955006  43.8495017
  88.9909987  25.4955006  43.8495017  87.7939987  26.4225006  43.8495017
  81.2249987  23.5315006  41.0745017  82.1819987  23.5315006  41.0745017
  80.9849987  24.4585006  41.0745017  88.8919987  23.6525006  39.4465017
  89.8489987  23.6525006  39.4465017  88.6519987  24.5795006  39.4465017
  82.9559987  27.4945006  41.0875017  83.9129987  27.4945006  41.0875017
  82.7159987  28.4215006  41.0875017  93.9259987  24.0785006  46.5505017
  94.8829987  24.0785006  46.5505017  93.6859987  25.0055006  46.5505017
  80.0409987  22.4485006  45.1225017  80.9979987  22.4485006  45.1225017
  79.8009987  23.3755006  45.1225017  87.3619987  31.9315006  38.6795017
  88.3189987  31.9315006  38.6795017  87.1219987  32.8585006  38.6795017
  82.5799987  30.1095006  45.4095017  83.5369987  30.1095006  45.4095017
  82.3399987  31.0365006  45.4095017  90.7779987  23.0945006  41.3955017
  91.7349987  23.0945006  41.3955017  90.5379987  24.0215006  41.3955017
  79.6329987  24.2505006  43.1945017  80.5899987  24.2505006  43.1945017
  79.3929987  25.1775006  43.1945017  80.9719987  32.0765006  46.2045017
  81.9289987  32.0765006  46.2045017  80.7319987  33.0035006  46.2045017
  90.7169987  33.3845006  43.7325017  91.6739987  33.3845006  43.7325017
  90.4769987  34.3115006  43.7325017  91.0569987  21.6955006  45.1795017
  92.0139987  21.6955006  45.1795017  90.8169987  22.6225006  45.1795017
  83.9999987  19.7865006  42.5935017  84.9569987  19.7865006  42.5935017
  83.7599987  20.7135006  42.5935017  88.9789987  35.1715006  40.3455017
  89.9359987  35.1715006  40.3455017  88.7389987  36.0985006  40.3455017
  90.1699987  33.0895006  38.8365017  91.1269987  33.0895006  38.8365017
  89.9299987  34.0165006  38.8365017  91.8079987  31.6725006  47.3315017
  92.7649987  31.6725006  47.3315017  91.5679987  32.5995006  47.3315017
  86.2929987  28.5845006  37.1025017  87.2499987  28.5845006  37.1025017
  86.0529987  29.5115006  37.1025017  86.3599987  27.0965006  34.1345017
  87.3169987  27.0965006  34.1345017  86.1199987  28.0235006  34.1345017
  93.6829987  27.9855006  45.3865017  94.6399987  27.9855006  45.3865017
  93.4429987  28.9125006  45.3865017  89.7369987  28.7955006  38.0185017
  90.6939987  28.7955006  38.0185017  89.4969987  29.7225006  38.0185017
  89.6599987  26.9545006  47.1315017  90.6169987  26.9545006  47.1315017
  89.4199987  27.8815006  47.1315017  81.5039987  29.5385006  39.9075017
  82.4609987  29.5385006  39.9075017  81.2639987  30.4655006  39.9075017
  82.7299987  32.8835006  42.5815017  83.6869987  32.8835006  42.5815017
  82.4899987  33.8105006  42.5815017  81.7019987  28.2005006  43.6015017
  82.6589987  28.2005006  43.6015017  81.4619987  29.1275006  43.6015017
  88.0909987  33.7625006  44.2975017  89.0479987  33.7625006  44.2975017
  87.8509987  34.6895006  44.2975017  82.6149987  32.6055006  48.2915017
  83.5719987  32.6055006  48.2915017  82.3749987  33.5325006  48.2915017
  88.6099987  27.9735006  35.6935017  89.5669987  27.9735006  35.6935017
  88.3699987  28.9005006  35.6935017  86.3079987  34.6965006  39.1575017
  87.2649987  34.6965006  39.1575017  86.0679987  35.6235006  39.1575017
  80.8699987  34.6225006  49.0425017  81.8269987  34.6225006  49.0425017
  80.6299987  35.5495006  49.0425017  92.3269987  19.7125006  35.5645017
  93.2839987  19.7125006  35.5645017  92.0869987  20.6395006  35.5645017
  93.4509987  34.0705006  33.9295017  94.4079987  34.0705006  33.9295017
  93.2109987  34.9975006  33.9295017  94.4149987  34.3335006  48.9075017
  95.3719987  34.3335006  48.9075017  94.1749987  35.2605006  48.9075017
  85.3649987  33.8775006  47.7725017  86.3219987  33.8775006  47.7725017
  85.1249987  34.8045006  47.7725017  85.9039987  37.6405006  37.5635017
  86.8609987  37.6405006  37.5635017  85.6639987  38.5675006  37.5635017
  88.8749987  36.8395006  34.5575017  89.8319987  36.8395006  34.5575017
  88.6349987  37.7665006  34.5575017  88.5849987  36.7445006  37.3165017
  89.5419987  36.7445006  37.3165017  88.3449987  37.6715006  37.3165017
  91.5529987  25.8095006  49.3865017  92.5099987  25.8095006  49.3865017
  91.3129987  26.7365006  49.3865017  81.3659987  20.6645006  43.3545017
  82.3229987  20.6645006  43.3545017  81.1259987  21.5915006  43.3545017
  85.9979987  20.3705006  46.7235017  86.9549987  20.3705006  46.7235017
  85.7579987  21.2975006  46.7235017  89.3109987  24.1835006  47.5965017
  90.2679987  24.1835006  47.5965017  89.0709987  25.1105006  47.5965017
  90.0679987  29.0025006  33.4565017  91.0249987  29.0025006  33.4565017
  89.8279987  29.9295006  33.4565017  85.6759987  22.9135006  34.0215017
  86.6329987  22.9135006  34.0215017  85.4359987  23.8405006  34.0215017
  81.4889987  25.6515006  44.5585017  82.4459987  25.6515006  44.5585017
  81.2489987  26.5785006  44.5585017  86.9409987  26.2825006  38.2315017
  87.8979987  26.2825006  38.2315017  86.7009987  27.2095006  38.2315017
  86.0229987  26.4815006  49.6675017  86.9799987  26.4815006  49.6675017
  85.7829987  27.4085006  49.6675017  87.9739987  25.7575006  41.0505017
  88.9309987  25.7575006  41.0505017  87.7339987  26.6845006  41.0505017
  79.1429987  25.9425006  46.3155017  80.0999987  25.9425006  46.3155017
  78.9029987  26.8695006  46.3155017  82.4929987  23.3155006  33.1175017
  83.4499987  23.3155006  33.1175017  82.2529987  24.2425006  33.1175017
  75.7259987  22.9525006  40.2045017  76.6829987  22.9525006  40.2045017
  75.4859987  23.8795006  40.2045017  76.9899987  23.7405006  35.5365017
  77.9469987  23.7405006  35.5365017  76.7499987  24.6675006  35.5365017
  87.1929987  27.3605006  45.6435017  88.1499987  27.3605006  45.6435017
  86.9529987  28.2875006  45.6435017  83.9929987  23.3165006  40.4645017
  84.9499987  23.3165006  40.4645017  83.7529987  24.2435006  40.4645017
  82.4729987  24.8795006  36.9015017  83.4299987  24.8795006  36.9015017
  82.2329987  25.8065006  36.9015017  88.2479987  22.9405006  43.8045017
  89.2049987  22.9405006  43.8045017  88.0079987  23.8675006  43.8045017
  81.1629987  26.0705006  34.5195017  82.1199987  26.0705006  34.5195017
  80.9229987  26.9975006  34.5195017  91.5899987  38.2225006  50.0275017
  92.5469987  38.2225006  50.0275017  91.3499987  39.1495006  50.0275017
  85.2739987  26.0745006  42.3475017  86.2309987  26.0745006  42.3475017
  85.0339987  27.0015006  42.3475017  80.3119987  22.1845006  38.8225017
  81.2689987  22.1845006  38.8225017  80.0719987  23.1115006  38.8225017
  83.9249987  24.4195006  44.7645017  84.8819987  24.4195006  44.7645017
  83.6849987  25.3465006  44.7645017  84.4939987  30.6405006  36.4495017
  85.4509987  30.6405006  36.4495017  84.2539987  31.5675006  36.4495017
  91.6669987  29.8225006  45.2635017  92.6239987  29.8225006  45.2635017
  91.4269987  30.7495006  45.2635017  88.3449987  23.4615006  34.6355017
  89.3019987  23.4615006  34.6355017  88.1049987  24.3885006  34.6355017
  85.9919987  30.8865006  47.7005017  86.9489987  30.8865006  47.7005017
  85.7519987  31.8135006  47.7005017  89.0759987  25.3625006  36.2795017
  90.0329987  25.3625006  36.2795017  88.8359987  26.2895006  36.2795017
  79.6099987  30.0305006  42.2925017  80.5669987  30.0305006  42.2925017
  79.3699987  30.9575006  42.2925017  86.6279987  32.1105006  35.5015017
  87.5849987  32.1105006  35.5015017  86.3879987  33.0375006  35.5015017
  83.6099987  27.9915006  49.7185017  84.5669987  27.9915006  49.7185017
  83.3699987  28.9185006  49.7185017  88.2869987  33.3495006  47.6275017
  89.2439987  33.3495006  47.6275017  88.0469987  34.2765006  47.6275017
  93.9889987  25.5235006  36.0335017  94.9459987  25.5235006  36.0335017
  93.7489987  26.4505006  36.0335017  93.9519987  31.3745006  48.8595017
  94.9089987  31.3745006  48.8595017  93.7119987  32.3015006  48.8595017
  92.2399987  34.3425006  36.4485017  93.1969987  34.3425006  36.4485017
  91.9999987  35.2695006  36.4485017  89.4579987  29.1535006  43.5355017
  90.4149987  29.1535006  43.5355017  89.2179987  30.0805006  43.5355017
  81.9829987  33.4535006  39.5865017  82.9399987  33.4535006  39.5865017
  81.7429987  34.3805006  39.5865017  83.4489987  31.1395006  39.1795017
  84.4059987  31.1395006  39.1795017  83.2089987  32.0665006  39.1795017
  83.8659987  35.3185006  45.5465017  84.8229987  35.3185006  45.5465017
  83.6259987  36.2455006  45.5465017  87.4069987  31.3635006  45.2025017
  88.3639987  31.3635006  45.2025017  87.1669987  32.2905006  45.2025017
  89.7009987  32.3805006  34.2795017  90.6579987  32.3805006  34.2795017
  89.4609987  33.3075006  34.2795017  90.1499987  35.9345006  47.6945017
  91.1069987  35.9345006  47.6945017  89.9099987  36.8615006  47.6945017
  94.1739987  36.7625006  34.5265017  95.1309987  36.7625006  34.5265017
  93.9339987  37.6895006  34.5265017  78.2549987  23.1955006  47.0755017
  79.2119987  23.1955006  47.0755017  78.0149987  24.1225006  47.0755017
  90.4819987  31.0325006  36.5155017  91.4389987  31.0325006  36.5155017
  90.2419987  31.9595006  36.5155017  86.9349987  22.9475006  46.0625017
  87.8919987  22.9475006  46.0625017  86.6949987  23.8745006  46.0625017
  87.7249987  22.5405006  37.0885017  88.6819987  22.5405006  37.0885017
  87.4849987  23.4675006  37.0885017  85.4099987  34.6675006  35.9205017
  86.3669987  34.6675006  35.9205017  85.1699987  35.5945006  35.9205017
  84.9779987  24.2775006  37.9245017  85.9349987  24.2775006  37.9245017
  84.7379987  25.2045006  37.9245017  85.5049987  25.2855006  47.1185017
  86.4619987  25.2855006  47.1185017  85.2649987  26.2125006  47.1185017
  85.7839987  21.3425006  38.7935017  86.7409987  21.3425006  38.7935017
  85.5439987  22.2695006  38.7935017  81.4809987  22.4115006  35.5245017
  82.4379987  22.4115006  35.5245017  81.2409987  23.3385006  35.5245017
  91.7009987  23.1645006  47.9635017  92.6579987  23.1645006  47.9635017
  91.4609987  24.0915006  47.9635017  90.2979987  26.9395006  41.9985017
  91.2549987  26.9395006  41.9985017  90.0579987  27.8665006  41.9985017
  91.3349987  36.2635006  43.6985017  92.2919987  36.2635006  43.6985017
  91.0949987  37.1905006  43.6985017  78.8809987  20.3225006  42.4385017
  79.8379987  20.3225006  42.4385017  78.6409987  21.2495006  42.4385017
  81.7369987  35.8235006  51.4975017  82.6939987  35.8235006  51.4975017
  81.4969987  36.7505006  51.4975017  85.7939987  35.2955006  32.8765017
  86.7509987  35.2955006  32.8765017  85.5539987  36.2225006  32.8765017
  88.2259987  34.1955006  50.2395017  89.1829987  34.1955006  50.2395017
  87.9859987  35.1225006  50.2395017  90.3869987  35.0855006  33.0895017
  91.3439987  35.0855006  33.0895017  90.1469987  36.0125006  33.0895017
  83.6449987  30.6585006  50.2675017  84.6019987  30.6585006  50.2675017
  83.4049987  31.5855006  50.2675017  89.3589987  30.5315006  47.6605017
  90.3159987  30.5315006  47.6605017  89.1189987  31.4585006  47.6605017
  81.7879987  26.8625006  47.6215017  82.7449987  26.8625006  47.6215017
  81.5479987  27.7895006  47.6215017  83.5479987  27.2315006  33.5125017
  84.5049987  27.2315006  33.5125017  83.3079987  28.1585006  33.5125017
  86.8179987  29.3995006  50.9455017  87.7749987  29.3995006  50.9455017
  86.5779987  30.3265006  50.9455017  92.9339987  29.5815006  32.9735017
  93.8909987  29.5815006  32.9735017  92.6939987  30.5085006  32.9735017
  82.1579987  24.2285006  48.7035017  83.1149987  24.2285006  48.7035017
  81.9179987  25.1555006  48.7035017  82.5509987  22.6065006  46.2275017
  83.5079987  22.6065006  46.2275017  82.3109987  23.5335006  46.2275017
  84.1039987  28.0785006  46.4705017  85.0609987  28.0785006  46.4705017
  83.8639987  29.0055006  46.4705017  88.5049987  25.8515006  51.4565017
  89.4619987  25.8515006  51.4565017  88.2649987  26.7785006  51.4565017
  89.8309987  28.6335006  49.5875017  90.7879987  28.6335006  49.5875017
  89.5909987  29.5605006  49.5875017  80.6119987  25.4825006  50.5985017
  81.5689987  25.4825006  50.5985017  80.3719987  26.4095006  50.5985017
  83.3419987  20.0495006  46.6375017  84.2989987  20.0495006  46.6375017
  83.1019987  20.9765006  46.6375017  84.6209987  24.3745006  50.2345017
  85.5779987  24.3745006  50.2345017  84.3809987  25.3015006  50.2345017
  87.3409987  23.5095006  49.3135017  88.2979987  23.5095006  49.3135017
  87.1009987  24.4365006  49.3135017  88.9319987  22.1405006  51.2565017
  89.8889987  22.1405006  51.2565017  88.6919987  23.0675006  51.2565017
  78.7849987  23.3955006  50.3635017  79.7419987  23.3955006  50.3635017
  78.5449987  24.3225006  50.3635017  83.5599987  19.4115006  49.3275017
  84.5169987  19.4115006  49.3275017  83.3199987  20.3385006  49.3275017
  83.9289987  21.0445006  51.4175017  84.8859987  21.0445006  51.4175017
  83.6889987  21.9715006  51.4175017  94.0739987  36.8505006  43.8605017
  95.0309987  36.8505006  43.8605017  93.8339987  37.7775006  43.8605017
  93.6419987  36.4485006  46.7995017  94.5989987  36.4485006  46.7995017
  93.4019987  37.3755006  46.7995017  92.1049987  32.1775006  51.4625017
  93.0619987  32.1775006  51.4625017  91.8649987  33.1045006  51.4625017
  93.4439987  30.4555006  36.8935017  94.4009987  30.4555006  36.8935017
  93.2039987  31.3825006  36.8935017  93.8179987  28.5435006  38.7735017
  94.7749987  28.5435006  38.7735017  93.5779987  29.4705006  38.7735017
  93.5439987  31.2755006  43.7655017  94.5009987  31.2755006  43.7655017
  93.3039987  32.2025006  43.7655017  92.0839987  34.1975006  46.0305017
  93.0409987  34.1975006  46.0305017  91.8439987  35.1245006  46.0305017
  94.1219987  28.4235006  35.1915017  95.0789987  28.4235006  35.1915017
  93.8819987  29.3505006  35.1915017  92.4529987  25.6325006  33.7035017
  93.4099987  25.6325006  33.7035017  92.2129987  26.5595006  33.7035017
  91.6269987  27.0495006  39.3455017  92.5839987  27.0495006  39.3455017
  91.3869987  27.9765006  39.3455017  92.4529987  29.0115006  49.0255017
  93.4099987  29.0115006  49.0255017  92.2129987  29.9385006  49.0255017
  93.9609987  26.9035006  49.6915017  94.9179987  26.9035006  49.6915017
  93.7209987  27.8305006  49.6915017  91.6939987  23.0895006  32.8325017
  92.6509987  23.0895006  32.8325017  91.4539987  24.0165006  32.8325017
  91.2569987  24.6205006  37.7895017  92.2139987  24.6205006  37.7895017
  91.0169987  25.5475006  37.7895017  91.9089987  25.1875006  43.2505017
  92.8659987  25.1875006  43.2505017  91.6689987  26.1145006  43.2505017
  91.9709987  25.9005006  46.0405017  92.9279987  25.9005006  46.0405017
  91.7309987  26.8275006  46.0405017  94.2369987  19.9405006  51.3885017
  95.1939987  19.9405006  51.3885017  93.9969987  20.8675006  51.3885017
  91.9479987  21.9045006  37.8455017  92.9049987  21.9045006  37.8455017
  91.7079987  22.8315006  37.8455017  77.4309987  22.6855006  42.3965017
  78.3879987  22.6855006  42.3965017  77.1909987  23.6125006  42.3965017
  93.7669987  22.0455006  49.7395017  94.7239987  22.0455006  49.7395017
  93.5269987  22.9725006  49.7395017  93.7629987  21.9495006  34.4085017
  94.7199987  21.9495006  34.4085017  93.5229987  22.8765006  34.4085017
  76.0709987  21.9295006  37.4805017  77.0279987  21.9295006  37.4805017
  75.8309987  22.8565006  37.4805017  90.8069987  36.9405006  39.4895017
  91.7639987  36.9405006  39.4895017  90.5669987  37.8675006  39.4895017
  76.0289987  20.6505006  45.8275017  76.9859987  20.6505006  45.8275017
  75.7889987  21.5775006  45.8275017  81.1609987  34.8205006  46.2945017
  82.1179987  34.8205006  46.2945017  80.9209987  35.7475006  46.2945017
  85.4719987  36.2755006  49.1945017  86.4289987  36.2755006  49.1945017
  85.2319987  37.2025006  49.1945017  87.8019987  37.5705006  48.4445017
  88.7589987  37.5705006  48.4445017  87.5619987  38.4975006  48.4445017
  92.7749987  20.1435006  47.5725017  93.7319987  20.1435006  47.5725017
  92.5349987  21.0705006  47.5725017  78.5809987  38.0895006  46.2805017
  79.5379987  38.0895006  46.2805017  78.3409987  39.0165006  46.2805017
  81.0809987  37.7105006  45.3575017  82.0379987  37.7105006  45.3575017
  80.8409987  38.6375006  45.3575017  85.8499987  37.5975006  44.4835017
  86.8069987  37.5975006  44.4835017  85.6099987  38.5245006  44.4835017
  87.9369987  36.2315006  45.6075017  88.8939987  36.2315006  45.6075017
  87.6969987  37.1585006  45.6075017  90.7819987  37.9845006  45.8205017
  91.7389987  37.9845006  45.8205017  90.5419987  38.9115006  45.8205017
  82.7169987  35.9215006  42.7235017  83.6739987  35.9215006  42.7235017
  82.4769987  36.8485006  42.7235017  86.1369987  21.5765006  41.8445017
  87.0939987  21.5765006  41.8445017  85.8969987  22.5035006  41.8445017
  91.6359987  19.3845006  41.8015017  92.5929987  19.3845006  41.8015017
  91.3959987  20.3115006  41.8015017  93.0019987  20.8775006  40.2155017
  93.9589987  20.8775006  40.2155017  92.7619987  21.8045006  40.2155017
  78.5339987  20.1565006  39.7145017  79.4909987  20.1565006  39.7145017
  78.2939987  21.0835006  39.7145017  77.3269987  19.9635006  35.4615017
  78.2839987  19.9635006  35.4615017  77.0869987  20.8905006  35.4615017
  83.0459987  20.1155006  39.4995017  84.0029987  20.1155006  39.4995017
  82.8059987  21.0425006  39.4995017  87.9899987  19.7335006  40.2875017
  88.9469987  19.7335006  40.2875017  87.7499987  20.6605006  40.2875017
  90.0019987  20.1715006  36.8095017  90.9589987  20.1715006  36.8095017
  89.7619987  21.0985006  36.8095017  79.1639987  21.9015006  33.9645017
  80.1209987  21.9015006  33.9645017  78.9239987  22.8285006  33.9645017
  84.1799987  22.1625006  36.3595017  85.1369987  22.1625006  36.3595017
  83.9399987  23.0895006  36.3595017  86.1069987  37.1565006  34.8155017
  87.0639987  37.1565006  34.8155017  85.8669987  38.0835006  34.8155017
  92.8089987  36.7185006  37.5115017  93.7659987  36.7185006  37.5115017
  92.5689987  37.6455006  37.5115017  78.4359987  20.7365006  49.1655017
  79.3929987  20.7365006  49.1655017  78.1959987  21.6635006  49.1655017
  80.4409987  20.1095006  50.7915017  81.3979987  20.1095006  50.7915017
  80.2009987  21.0365006  50.7915017  88.8439987  19.4175006  50.9505017
  89.8009987  19.4175006  50.9505017  88.6039987  20.3445006  50.9505017
  92.0509987  35.4585006  49.6055017  93.0079987  35.4585006  49.6055017
  91.8109987  36.3855006  49.6055017 106.4689987  29.3085006  39.5665017
 107.4259987  29.3085006  39.5665017 106.2289987  30.2355006  39.5665017
 105.2809987  28.6195006  43.0895017 106.2379987  28.6195006  43.0895017
 105.0409987  29.5465006  43.0895017  97.7079987  28.2585006  44.6345017
  98.6649987  28.2585006  44.6345017  97.4679987  29.1855006  44.6345017
  98.6409987  32.7245006  43.1425017  99.5979987  32.7245006  43.1425017
  98.4009987  33.6515006  43.1425017  95.3099987  26.3225006  38.5485017
  96.2669987  26.3225006  38.5485017  95.0699987  27.2495006  38.5485017
  95.9649987  28.4885006  40.7105017  96.9219987  28.4885006  40.7105017
  95.7249987  29.4155006  40.7105017 106.1839987  36.6605006  41.5745017
 107.1409987  36.6605006  41.5745017 105.9439987  37.5875006  41.5745017
 103.7009987  30.9995006  43.5155017 104.6579987  30.9995006  43.5155017
 103.4609987  31.9265006  43.5155017 106.2229987  25.2255006  43.8085017
 107.1799987  25.2255006  43.8085017 105.9829987  26.1525006  43.8085017
 100.0159987  23.5515006  41.0805017 100.9729987  23.5515006  41.0805017
  99.7759987  24.4785006  41.0805017 107.7189987  24.1325006  39.0515017
 108.6759987  24.1325006  39.0515017 107.4789987  25.0595006  39.0515017
  96.6439987  25.9735006  41.8075017  97.6009987  25.9735006  41.8075017
  96.4039987  26.9005006  41.8075017 101.7929987  27.5195006  41.1035017
 102.7499987  27.5195006  41.1035017 101.5529987  28.4465006  41.1035017
  98.9029987  22.4495006  45.1265017  99.8599987  22.4495006  45.1265017
  98.6629987  23.3765006  45.1265017 106.2329987  31.9455006  38.6685017
 107.1899987  31.9455006  38.6685017 105.9929987  32.8725006  38.6685017
 101.4369987  30.1025006  45.3785017 102.3939987  30.1025006  45.3785017
 101.1969987  31.0295006  45.3785017  98.4619987  24.3195006  43.1335017
  99.4189987  24.3195006  43.1335017  98.2219987  25.2465006  43.1335017
  99.8709987  32.0825006  46.1945017 100.8279987  32.0825006  46.1945017
  99.6309987  33.0095006  46.1945017  95.9759987  31.6945006  36.9775017
  96.9329987  31.6945006  36.9775017  95.7359987  32.6215006  36.9775017
 102.8749987  19.7795006  42.5875017 103.8319987  19.7795006  42.5875017
 102.6349987  20.7065006  42.5875017 107.4999987  34.9885006  39.9295017
 108.4569987  34.9885006  39.9295017 107.2599987  35.9155006  39.9295017
 105.1289987  28.5745006  37.0845017 106.0859987  28.5745006  37.0845017
 104.8889987  29.5015006  37.0845017 105.1959987  27.1065006  34.1085017
 106.1529987  27.1065006  34.1085017 104.9559987  28.0335006  34.1085017
 100.2069987  29.4545006  39.9305017 101.1639987  29.4545006  39.9305017
  99.9669987  30.3815006  39.9305017 101.5419987  32.8575006  42.6105017
 102.4989987  32.8575006  42.6105017 101.3019987  33.7845006  42.6105017
 100.5459987  28.1955006  43.5835017 101.5029987  28.1955006  43.5835017
 100.3059987  29.1225006  43.5835017 106.5349987  33.7785006  44.3355017
 107.4919987  33.7785006  44.3355017 106.2949987  34.7055006  44.3355017
 101.4869987  32.6175006  48.2865017 102.4439987  32.6175006  48.2865017
 101.2469987  33.5445006  48.2865017 107.4589987  27.9625006  35.7115017
 108.4159987  27.9625006  35.7115017 107.2189987  28.8895006  35.7115017
  98.4209987  28.7845006  47.4645017  99.3779987  28.7845006  47.4645017
  98.1809987  29.7115006  47.4645017 105.0829987  34.7015006  39.1475017
 106.0399987  34.7015006  39.1475017 104.8429987  35.6285006  39.1475017
  99.7289987  34.6685006  49.0445017 100.6859987  34.6685006  49.0445017
  99.4889987  35.5955006  49.0445017  99.1529987  28.4985006  37.5835017
 100.1099987  28.4985006  37.5835017  98.9129987  29.4255006  37.5835017
  95.2739987  30.8945006  46.4145017  96.2309987  30.8945006  46.4145017
  95.0339987  31.8215006  46.4145017  95.0339987  33.6465006  43.2135017
  95.9909987  33.6465006  43.2135017  94.7939987  34.5735006  43.2135017
 104.2399987  33.8785006  47.7905017 105.1969987  33.8785006  47.7905017
 103.9999987  34.8055006  47.7905017 104.6769987  37.6335006  37.5675017
 105.6339987  37.6335006  37.5675017 104.4369987  38.5605006  37.5675017
  98.2939987  36.5075006  39.3955017  99.2509987  36.5075006  39.3955017
  98.0539987  37.4345006  39.3955017 107.7149987  36.8355006  34.5315017
 108.6719987  36.8355006  34.5315017 107.4749987  37.7625006  34.5315017
 107.2439987  36.6045006  37.1675017 108.2009987  36.6045006  37.1675017
 107.0039987  37.5315006  37.1675017  97.5479987  32.2155006  47.3815017
  98.5049987  32.2155006  47.3815017  97.3079987  33.1425006  47.3815017
 100.2169987  20.6775006  43.3435017 101.1739987  20.6775006  43.3435017
  99.9769987  21.6045006  43.3435017 104.8999987  20.3515006  46.7225017
 105.8569987  20.3515006  46.7225017 104.6599987  21.2785006  46.7225017
 104.5249987  22.9215006  34.0285017 105.4819987  22.9215006  34.0285017
 104.2849987  23.8485006  34.0285017 100.3059987  25.6425006  44.5545017
 101.2629987  25.6425006  44.5545017 100.0659987  26.5695006  44.5545017
 100.2699987  25.8305006  39.4165017 101.2269987  25.8305006  39.4165017
 100.0299987  26.7575006  39.4165017 105.7839987  26.2805006  38.2235017
 106.7409987  26.2805006  38.2235017 105.5439987  27.2075006  38.2235017
 104.8979987  26.5075006  49.6995017 105.8549987  26.5075006  49.6995017
 104.6579987  27.4345006  49.6995017 106.7849987  25.7375006  41.0495017
 107.7419987  25.7375006  41.0495017 106.5449987  26.6645006  41.0495017
  97.9659987  25.9295006  46.2875017  98.9229987  25.9295006  46.2875017
  97.7259987  26.8565006  46.2875017 101.3479987  23.3155006  33.1265017
 102.3049987  23.3155006  33.1265017 101.1079987  24.2425006  33.1265017
  94.6119987  23.0465006  40.2315017  95.5689987  23.0465006  40.2315017
  94.3719987  23.9735006  40.2315017  95.8929987  23.7645006  35.6215017
  96.8499987  23.7645006  35.6215017  95.6529987  24.6915006  35.6215017
 106.0449987  27.3565006  45.6605017 107.0019987  27.3565006  45.6605017
 105.8049987  28.2835006  45.6605017 102.8459987  23.3075006  40.4535017
 103.8029987  23.3075006  40.4535017 102.6059987  24.2345006  40.4535017
  97.6659987  24.9105006  39.2945017  98.6229987  24.9105006  39.2945017
  97.4259987  25.8375006  39.2945017 101.3109987  24.9135006  36.9465017
 102.2679987  24.9135006  36.9465017 101.0709987  25.8405006  36.9465017
 107.2399987  22.5065006  43.7575017 108.1969987  22.5065006  43.7575017
 106.9999987  23.4335006  43.7575017  99.9839987  26.1285006  34.5395017
 100.9409987  26.1285006  34.5395017  99.7439987  27.0555006  34.5395017
  98.1359987  30.6705006  49.5925017  99.0929987  30.6705006  49.5925017
  97.8959987  31.5975006  49.5925017 104.0949987  26.0755006  42.3085017
 105.0519987  26.0755006  42.3085017 103.8549987  27.0025006  42.3085017
  99.1449987  22.2245006  38.7805017 100.1019987  22.2245006  38.7805017
  98.9049987  23.1515006  38.7805017 102.7579987  24.4195006  44.7655017
 103.7149987  24.4195006  44.7655017 102.5179987  25.3465006  44.7655017
 103.3669987  30.6485006  36.4525017 104.3239987  30.6485006  36.4525017
 103.1269987  31.5755006  36.4525017 107.1559987  23.4815006  34.6455017
 108.1129987  23.4815006  34.6455017 106.9159987  24.4085006  34.6455017
 104.8409987  30.8665006  47.6925017 105.7979987  30.8665006  47.6925017
 104.6009987  31.7935006  47.6925017   0.1189987  25.4665006  36.3455017
   1.0759987  25.4665006  36.3455017  -0.1210013  26.3935006  36.3455017
  98.4449987  29.9995006  42.2335017  99.4019987  29.9995006  42.2335017
  98.2049987  30.9265006  42.2335017 105.4559987  32.1005006  35.4755017
 106.4129987  32.1005006  35.4755017 105.2159987  33.0275006  35.4755017
  95.4559987  28.4365006  47.5285017  96.4129987  28.4365006  47.5285017
  95.2159987  29.3635006  47.5285017 102.4719987  27.9865006  49.7175017
 103.4289987  27.9865006  49.7175017 102.2319987  28.9135006  49.7175017
 107.1539987  33.3625006  47.6265017 108.1109987  33.3625006  47.6265017
 106.9139987  34.2895006  47.6265017 100.8249987  33.4985006  39.6725017
 101.7819987  33.4985006  39.6725017 100.5849987  34.4255006  39.6725017
  96.6069987  28.3025006  34.3085017  97.5639987  28.3025006  34.3085017
  96.3669987  29.2295006  34.3085017 102.2579987  31.1585006  39.1745017
 103.2149987  31.1585006  39.1745017 102.0179987  32.0855006  39.1745017
 102.7009987  35.3265006  45.5525017 103.6579987  35.3265006  45.5525017
 102.4609987  36.2535006  45.5525017 100.9309987  36.1465006  38.7405017
 101.8879987  36.1465006  38.7405017 100.6909987  37.0735006  38.7405017
 106.2749987  31.3315006  45.2165017 107.2319987  31.3315006  45.2165017
 106.0349987  32.2585006  45.2165017  97.1119987  23.1695006  47.0745017
  98.0689987  23.1695006  47.0745017  96.8719987  24.0965006  47.0745017
  96.7599987  34.9845006  45.4915017  97.7169987  34.9845006  45.4915017
  96.5199987  35.9115006  45.4915017 102.6609987  33.4775006  32.7555017
 103.6179987  33.4775006  32.7555017 102.4209987  34.4045006  32.7555017
 101.4929987  33.0035006  35.2165017 102.4499987  33.0035006  35.2165017
 101.2529987  33.9305006  35.2165017  98.0329987  30.2905006  35.6845017
  98.9899987  30.2905006  35.6845017  97.7929987  31.2175006  35.6845017
 105.8509987  22.9255006  46.0245017 106.8079987  22.9255006  46.0245017
 105.6109987  23.8525006  46.0245017 106.3259987  22.7445006  37.0855017
 107.2829987  22.7445006  37.0855017 106.0859987  23.6715006  37.0855017
 104.2839987  34.6735006  35.9435017 105.2409987  34.6735006  35.9435017
 104.0439987  35.6005006  35.9435017 103.7919987  24.2995006  37.9285017
 104.7489987  24.2995006  37.9285017 103.5519987  25.2265006  37.9285017
 104.3359987  25.2475006  47.1325017 105.2929987  25.2475006  47.1325017
 104.0959987  26.1745006  47.1325017 104.6999987  21.3345006  38.8415017
 105.6569987  21.3345006  38.8415017 104.4599987  22.2615006  38.8415017
 101.6349987  35.7085006  35.9415017 102.5919987  35.7085006  35.9415017
 101.3949987  36.6355006  35.9415017 100.3239987  22.4175006  35.5385017
 101.2809987  22.4175006  35.5385017 100.0839987  23.3445006  35.5385017
  98.5649987  32.8575006  34.5985017  99.5219987  32.8575006  34.5985017
  98.3249987  33.7845006  34.5985017  96.8999987  25.5375006  33.7295017
  97.8569987  25.5375006  33.7295017  96.6599987  26.4645006  33.7295017
  97.7209987  20.3265006  42.4405017  98.6779987  20.3265006  42.4405017
  97.4809987  21.2535006  42.4405017  96.6709987  34.2205006  38.5695017
  97.6279987  34.2205006  38.5695017  96.4309987  35.1475006  38.5695017
  95.9009987  36.8935006  49.8855017  96.8579987  36.8935006  49.8855017
  95.6609987  37.8205006  49.8855017 100.5549987  35.8195006  51.5005017
 101.5119987  35.8195006  51.5005017 100.3149987  36.7465006  51.5005017
 104.7129987  35.3305006  32.8825017 105.6699987  35.3305006  32.8825017
 104.4729987  36.2575006  32.8825017 107.1359987  34.1935006  50.2225017
 108.0929987  34.1935006  50.2225017 106.8959987  35.1205006  50.2225017
  95.8149987  30.6805006  50.8765017  96.7719987  30.6805006  50.8765017
  95.5749987  31.6075006  50.8765017 100.1319987  31.0135006  32.9335017
 101.0889987  31.0135006  32.9335017  99.8919987  31.9405006  32.9335017
 102.4989987  30.6565006  50.2795017 103.4559987  30.6565006  50.2795017
 102.2589987  31.5835006  50.2795017 105.5969987  32.0985006  32.6965017
 106.5539987  32.0985006  32.6965017 105.3569987  33.0255006  32.6965017
  96.7069987  27.8975006  50.2625017  97.6639987  27.8975006  50.2625017
  96.4669987  28.8245006  50.2625017 101.3189987  29.0285006  35.3085017
 102.2759987  29.0285006  35.3085017 101.0789987  29.9555006  35.3085017
 100.6179987  26.8545006  47.6295017 101.5749987  26.8545006  47.6295017
 100.3779987  27.7815006  47.6295017 102.4129987  27.2475006  33.5365017
 103.3699987  27.2475006  33.5365017 102.1729987  28.1745006  33.5365017
 105.6769987  29.3965006  50.9765017 106.6339987  29.3965006  50.9765017
 105.4369987  30.3235006  50.9765017 101.0089987  24.2285006  48.6985017
 101.9659987  24.2285006  48.6985017 100.7689987  25.1555006  48.6985017
 101.4079987  22.6025006  46.2315017 102.3649987  22.6025006  46.2315017
 101.1679987  23.5295006  46.2315017 102.9779987  28.0745006  46.4735017
 103.9349987  28.0745006  46.4735017 102.7379987  29.0015006  46.4735017
 107.3909987  25.8725006  51.5565017 108.3479987  25.8725006  51.5565017
 107.1509987  26.7995006  51.5565017  99.4679987  25.4635006  50.6235017
 100.4249987  25.4635006  50.6235017  99.2279987  26.3905006  50.6235017
 102.2169987  20.0515006  46.6335017 103.1739987  20.0515006  46.6335017
 101.9769987  20.9785006  46.6335017 103.4789987  24.3735006  50.2275017
 104.4359987  24.3735006  50.2275017 103.2389987  25.3005006  50.2275017
 106.1369987  23.4805006  49.2905017 107.0939987  23.4805006  49.2905017
 105.8969987  24.4075006  49.2905017 107.7739987  22.1775006  51.2275017
 108.7309987  22.1775006  51.2275017 107.5339987  23.1045006  51.2275017
  97.5699987  23.3985006  50.3365017  98.5269987  23.3985006  50.3365017
  97.3299987  24.3255006  50.3365017 102.4129987  19.4125006  49.3275017
 103.3699987  19.4125006  49.3275017 102.1729987  20.3395006  49.3275017
 102.7819987  21.0425006  51.4135017 103.7389987  21.0425006  51.4135017
 102.5419987  21.9695006  51.4135017 102.2629987  37.9505006  34.5925017
 103.2199987  37.9505006  34.5925017 102.0229987  38.8775006  34.5925017
  95.8249987  32.5175006  34.0925017  96.7819987  32.5175006  34.0925017
  95.5849987  33.4445006  34.0925017  94.5769987  37.9335006  39.0485017
  95.5339987  37.9335006  39.0485017  94.3369987  38.8605006  39.0485017
  95.4419987  36.0445006  40.9175017  96.3989987  36.0445006  40.9175017
  95.2019987  36.9715006  40.9175017  95.4609987  29.1255006  43.4065017
  96.4179987  29.1255006  43.4065017  95.2209987  30.0525006  43.4065017
  95.0739987  24.4245006  49.5485017  96.0309987  24.4245006  49.5485017
  94.8339987  25.3515006  49.5485017  96.2799987  22.7155006  42.4075017
  97.2369987  22.7155006  42.4075017  96.0399987  23.6425006  42.4075017
  94.5689987  25.7045006  43.4565017  95.5259987  25.7045006  43.4565017
  94.3289987  26.6315006  43.4565017  94.9349987  21.9865006  37.5295017
  95.8919987  21.9865006  37.5295017  94.6949987  22.9135006  37.5295017
  94.8769987  20.6495006  45.8245017  95.8339987  20.6495006  45.8245017
  94.6369987  21.5765006  45.8245017  97.1059987  33.8395006  49.9925017
  98.0629987  33.8395006  49.9925017  96.8659987  34.7665006  49.9925017
 100.0109987  34.8295006  46.2385017 100.9679987  34.8295006  46.2385017
  99.7709987  35.7565006  46.2385017 104.3349987  36.2685006  49.2055017
 105.2919987  36.2685006  49.2055017 104.0949987  37.1955006  49.2055017
 106.6889987  37.5695006  48.4325017 107.6459987  37.5695006  48.4325017
 106.4489987  38.4965006  48.4325017  97.4399987  38.0785006  46.2485017
  98.3969987  38.0785006  46.2485017  97.1999987  39.0055006  46.2485017
  99.9219987  37.6625006  45.3835017 100.8789987  37.6625006  45.3835017
  99.6819987  38.5895006  45.3835017 104.5709987  37.5655006  44.5165017
 105.5279987  37.5655006  44.5165017 104.3309987  38.4925006  44.5165017
 106.9359987  36.4385006  45.5215017 107.8929987  36.4385006  45.5215017
 106.6959987  37.3655006  45.5215017  96.8989987  36.7575006  43.2325017
  97.8559987  36.7575006  43.2325017  96.6589987  37.6845006  43.2325017
  98.9679987  35.4015006  41.8545017  99.9249987  35.4015006  41.8545017
  98.7279987  36.3285006  41.8545017 101.4829987  35.9155006  42.7485017
 102.4399987  35.9155006  42.7485017 101.2429987  36.8425006  42.7485017
 105.0109987  21.5645006  41.8535017 105.9679987  21.5645006  41.8535017
 104.7709987  22.4915006  41.8535017  97.4059987  20.2015006  39.6905017
  98.3629987  20.2015006  39.6905017  97.1659987  21.1285006  39.6905017
  96.2079987  19.9635006  35.4835017  97.1649987  19.9635006  35.4835017
  95.9679987  20.8905006  35.4835017 101.8989987  20.0935006  39.4925017
 102.8559987  20.0935006  39.4925017 101.6589987  21.0205006  39.4925017
 107.4669987  20.0695006  41.3025017 108.4239987  20.0695006  41.3025017
 107.2269987  20.9965006  41.3025017  96.0939987  35.9165006  36.4445017
  97.0509987  35.9165006  36.4445017  95.8539987  36.8435006  36.4445017
  98.0119987  21.8765006  33.9605017  98.9689987  21.8765006  33.9605017
  97.7719987  22.8035006  33.9605017 103.0469987  22.1555006  36.3595017
 104.0039987  22.1555006  36.3595017 102.8069987  23.0825006  36.3595017
 104.9289987  37.2535006  34.7635017 105.8859987  37.2535006  34.7635017
 104.6889987  38.1805006  34.7635017  97.2919987  20.7375006  49.1755017
  98.2489987  20.7375006  49.1755017  97.0519987  21.6645006  49.1755017
  99.2959987  20.1115006  50.7885017 100.2529987  20.1115006  50.7885017
  99.0559987  21.0385006  50.7885017  97.8909987  36.8815006  33.4145017
  98.8479987  36.8815006  33.4145017  97.6509987  37.8085006  33.4145017
  -0.0930013  19.4675006  50.9725017   0.8639987  19.4675006  50.9725017
  -0.3330013  20.3945006  50.9725017  12.1919987  48.1935006  39.6005017
  13.1489987  48.1935006  39.6005017  11.9519987  49.1205006  39.6005017
  11.0879987  47.4575006  43.0915017  12.0449987  47.4575006  43.0915017
  10.8479987  48.3845006  43.0915017   3.4769987  47.0915006  44.6105017
   4.4339987  47.0915006  44.6105017   3.2369987  48.0185006  44.6105017
  14.7709987  50.4135006  41.3555017  15.7279987  50.4135006  41.3555017
  14.5309987  51.3405006  41.3555017   4.3399987  51.5615006  43.1615017
   5.2969987  51.5615006  43.1615017   4.0999987  52.4885006  43.1615017
   1.0649987  45.2375006  38.5595017   2.0219987  45.2375006  38.5595017
   0.8249987  46.1645006  38.5595017   1.6869987  47.3285006  40.7435017
   2.6439987  47.3285006  40.7435017   1.4469987  48.2555006  40.7435017
  11.8849987  55.5465006  41.6045017  12.8419987  55.5465006  41.6045017
  11.6449987  56.4735006  41.6045017   9.4569987  49.8725006  43.5275017
  10.4139987  49.8725006  43.5275017   9.2169987  50.7995006  43.5275017
  12.5729987  44.3195006  43.8345017  13.5299987  44.3195006  43.8345017
  12.3329987  45.2465006  43.8345017   5.7359987  42.4005006  41.0705017
   6.6929987  42.4005006  41.0705017   5.4959987  43.3275006  41.0705017
  13.4859987  42.4975006  39.4525017  14.4429987  42.4975006  39.4525017
  13.2459987  43.4245006  39.4525017   2.5409987  44.8605006  41.7225017
   3.4979987  44.8605006  41.7225017   2.3009987  45.7875006  41.7225017
   7.5189987  46.3695006  41.1055017   8.4759987  46.3695006  41.1055017
   7.2789987  47.2965006  41.1055017   4.6289987  41.3115006  45.1375017
   5.5859987  41.3115006  45.1375017   4.3889987  42.2385006  45.1375017
  11.9359987  50.7975006  38.6695017  12.8929987  50.7975006  38.6695017
  11.6959987  51.7245006  38.6695017   7.1569987  48.9565006  45.3795017
   8.1139987  48.9565006  45.3795017   6.9169987  49.8835006  45.3795017
  15.2799987  41.8255006  41.4385017  16.2369987  41.8255006  41.4385017
  15.0399987  42.7525006  41.4385017   4.2029987  43.1455006  43.1535017
   5.1599987  43.1455006  43.1535017   3.9629987  44.0725006  43.1535017
   5.5919987  50.9415006  46.1855017   6.5489987  50.9415006  46.1855017
   5.3519987  51.8685006  46.1855017   1.7049987  50.5965006  36.9555017
   2.6619987  50.5965006  36.9555017   1.4649987  51.5235006  36.9555017
  15.2719987  52.2115006  43.6395017  16.2289987  52.2115006  43.6395017
  15.0319987  53.1385006  43.6395017  15.6049987  40.5105006  45.0755017
  16.5619987  40.5105006  45.0755017  15.3649987  41.4375006  45.0755017
   8.5889987  38.6345006  42.5835017   9.5459987  38.6345006  42.5835017
   8.3489987  39.5615006  42.5835017  13.5479987  54.0165006  40.3285017
  14.5049987  54.0165006  40.3285017  13.3079987  54.9435006  40.3285017
  14.7359987  51.9345006  38.8425017  15.6929987  51.9345006  38.8425017
  14.4959987  52.8615006  38.8425017  10.8749987  47.4375006  37.1055017
  11.8319987  47.4375006  37.1055017  10.6349987  48.3645006  37.1055017
  10.9359987  45.9695006  34.1115017  11.8929987  45.9695006  34.1115017
  10.6959987  46.8965006  34.1115017  14.3089987  47.6605006  38.0225017
  15.2659987  47.6605006  38.0225017  14.0689987  48.5875006  38.0225017
   5.9519987  48.3205006  39.9325017   6.9089987  48.3205006  39.9325017
   5.7119987  49.2475006  39.9325017   7.2609987  51.7055006  42.6135017
   8.2179987  51.7055006  42.6135017   7.0209987  52.6325006  42.6135017
   6.2839987  47.0545006  43.5855017   7.2409987  47.0545006  43.5855017
   6.0439987  47.9815006  43.5855017  12.6129987  52.6095006  44.2805017
  13.5699987  52.6095006  44.2805017  12.3729987  53.5365006  44.2805017
   7.2049987  51.4665006  48.2895017   8.1619987  51.4665006  48.2895017
   6.9649987  52.3935006  48.2895017  13.1689987  46.8365006  35.6895017
  14.1259987  46.8365006  35.6895017  12.9289987  47.7635006  35.6895017
   4.1249987  47.6435006  47.4775017   5.0819987  47.6435006  47.4775017
   3.8849987  48.5705006  47.4775017  10.8989987  53.5635006  39.1515017
  11.8559987  53.5635006  39.1515017  10.6589987  54.4905006  39.1515017
   5.4399987  53.5215006  49.0425017   6.3969987  53.5215006  49.0425017
   5.1999987  54.4485006  49.0425017  16.8979987  38.5615006  35.5575017
  17.8549987  38.5615006  35.5575017  16.6579987  39.4885006  35.5575017
   4.9249987  47.3425006  37.5475017   5.8819987  47.3425006  37.5475017
   4.6849987  48.2695006  37.5475017  18.0399987  52.9155006  33.9585017
  18.9969987  52.9155006  33.9585017  17.7999987  53.8425006  33.9585017
   1.1249987  49.7295006  46.3655017   2.0819987  49.7295006  46.3655017
   0.8849987  50.6565006  46.3655017   1.0109987  52.6245006  42.9425017
   1.9679987  52.6245006  42.9425017   0.7709987  53.5515006  42.9425017
   9.8929987  52.7495006  47.7405017  10.8499987  52.7495006  47.7405017
   9.6529987  53.6765006  47.7405017  10.3709987  56.4835006  37.5755017
  11.3279987  56.4835006  37.5755017  10.1309987  57.4105006  37.5755017
   4.0199987  55.3435006  39.3665017   4.9769987  55.3435006  39.3665017
   3.7799987  56.2705006  39.3665017  13.4559987  55.6935006  34.5605017
  14.4129987  55.6935006  34.5605017  13.2159987  56.6205006  34.5605017
  13.1239987  55.6205006  37.3285017  14.0809987  55.6205006  37.3285017
  12.8839987  56.5475006  37.3285017   3.2629987  51.1015006  47.3955017
   4.2199987  51.1015006  47.3955017   3.0229987  52.0285006  47.3955017
   5.9369987  39.5415006  43.3355017   6.8939987  39.5415006  43.3355017
   5.6969987  40.4685006  43.3355017  10.5769987  39.2135006  46.7055017
  11.5339987  39.2135006  46.7055017  10.3369987  40.1405006  46.7055017
  14.6379987  47.8635006  33.4485017  15.5949987  47.8635006  33.4485017
  14.3979987  48.7905006  33.4485017  10.2349987  41.7815006  34.0075017
  11.1919987  41.7815006  34.0075017   9.9949987  42.7085006  34.0075017
   6.0439987  44.5035006  44.5575017   7.0009987  44.5035006  44.5575017
   5.8039987  45.4305006  44.5575017   5.9819987  44.6595006  39.4335017
   6.9389987  44.6595006  39.4335017   5.7419987  45.5865006  39.4335017
  11.5259987  45.1315006  38.2255017  12.4829987  45.1315006  38.2255017
  11.2859987  46.0585006  38.2255017  10.5849987  45.3535006  49.6905017
  11.5419987  45.3535006  49.6905017  10.3449987  46.2805006  49.6905017
  12.5329987  44.6025006  41.0495017  13.4899987  44.6025006  41.0495017
  12.2929987  45.5295006  41.0495017   3.7039987  44.7785006  46.2965017
   4.6609987  44.7785006  46.2965017   3.4639987  45.7055006  46.2965017
   7.0789987  42.1685006  33.1175017   8.0359987  42.1685006  33.1175017
   6.8389987  43.0955006  33.1175017   0.4269987  41.2035006  40.5655017
   1.3839987  41.2035006  40.5655017   0.1869987  42.1305006  40.5655017
   1.7879987  42.5935006  35.6805017   2.7449987  42.5935006  35.6805017
   1.5479987  43.5205006  35.6805017  11.7279987  46.2115006  45.6205017
  12.6849987  46.2115006  45.6205017  11.4879987  47.1385006  45.6205017
   8.5609987  42.1715006  40.4585017   9.5179987  42.1715006  40.4585017
   8.3209987  43.0985006  40.4585017   3.3929987  43.7245006  39.3085017
   4.3499987  43.7245006  39.3085017   3.1529987  44.6515006  39.3085017
   7.0229987  43.7735006  36.9455017   7.9799987  43.7735006  36.9455017
   6.7829987  44.7005006  36.9455017  12.9729987  41.4115006  43.7045017
  13.9299987  41.4115006  43.7045017  12.7329987  42.3385006  43.7045017
   5.7079987  44.9665006  34.5315017   6.6649987  44.9665006  34.5315017
   5.4679987  45.8935006  34.5315017  16.1779987  57.0815006  50.0245017
  17.1349987  57.0815006  50.0245017  15.9379987  58.0085006  50.0245017
   3.8569987  49.5055006  49.6055017   4.8139987  49.5055006  49.6055017
   3.6169987  50.4325006  49.6055017   9.8459987  44.9335006  42.3455017
  10.8029987  44.9335006  42.3455017   9.6059987  45.8605006  42.3455017
   4.8559987  41.0905006  38.7685017   5.8129987  41.0905006  38.7685017
   4.6159987  42.0175006  38.7685017   8.4859987  43.2755006  44.7605017
   9.4429987  43.2755006  44.7605017   8.2459987  44.2025006  44.7605017
   9.0799987  49.5045006  36.4565017  10.0369987  49.5045006  36.4565017
   8.8399987  50.4315006  36.4565017  12.9119987  42.3095006  34.6615017
  13.8689987  42.3095006  34.6615017  12.6719987  43.2365006  34.6615017
  10.5429987  49.7135006  47.6885017  11.4999987  49.7135006  47.6885017
  10.3029987  50.6405006  47.6885017  13.6439987  44.2145006  36.2765017
  14.6009987  44.2145006  36.2765017  13.4039987  45.1415006  36.2765017
   4.1839987  48.8755006  42.2565017   5.1409987  48.8755006  42.2565017
   3.9439987  49.8025006  42.2565017  11.1849987  50.9685006  35.4875017
  12.1419987  50.9685006  35.4875017  10.9449987  51.8955006  35.4875017
   1.1619987  47.2965006  47.5325017   2.1189987  47.2965006  47.5325017
   0.9219987  48.2235006  47.5325017   8.1929987  46.8465006  49.7185017
   9.1499987  46.8465006  49.7185017   7.9529987  47.7735006  49.7185017
  18.5279987  44.3815006  36.0545017  19.4849987  44.3815006  36.0545017
  18.2879987  45.3085006  36.0545017  16.8559987  53.1975006  36.4625017
  17.8129987  53.1975006  36.4625017  16.6159987  54.1245006  36.4625017
  13.9929987  48.0135006  43.5045017  14.9499987  48.0135006  43.5045017
  13.7529987  48.9405006  43.5045017   6.5669987  52.3285006  39.6425017
   7.5239987  52.3285006  39.6425017   6.3269987  53.2555006  39.6425017
   2.2879987  47.1755006  34.2395017   3.2449987  47.1755006  34.2395017
   2.0479987  48.1025006  34.2395017   7.9829987  50.0035006  39.1685017
   8.9399987  50.0035006  39.1685017   7.7429987  50.9305006  39.1685017
   8.4269987  54.1825006  45.5615017   9.3839987  54.1825006  45.5615017
   8.1869987  55.1095006  45.5615017   6.6629987  55.0015006  38.7045017
   7.6199987  55.0015006  38.7045017   6.4229987  55.9285006  38.7045017
  11.9509987  50.1865006  45.1735017  12.9079987  50.1865006  45.1735017
  11.7109987  51.1135006  45.1735017  14.2609987  51.2355006  34.2805017
  15.2179987  51.2355006  34.2805017  14.0209987  52.1625006  34.2805017
   2.8069987  42.0285006  47.0815017   3.7639987  42.0285006  47.0815017
   2.5669987  42.9555006  47.0815017  15.0679987  49.8775006  36.5105017
  16.0249987  49.8775006  36.5105017  14.8279987  50.8045006  36.5105017
   2.4749987  53.8285006  45.4885017   3.4319987  53.8285006  45.4885017
   2.2349987  54.7555006  45.4885017   8.3909987  52.3295006  32.7605017
   9.3479987  52.3295006  32.7605017   8.1509987  53.2565006  32.7605017
   7.2229987  51.8615006  35.2145017   8.1799987  51.8615006  35.2145017
   6.9829987  52.7885006  35.2145017   3.6899987  49.0865006  35.6965017
   4.6469987  49.0865006  35.6965017   3.4499987  50.0135006  35.6965017
  11.5419987  41.7755006  46.0035017  12.4989987  41.7755006  46.0035017
  11.3019987  42.7025006  46.0035017  12.3129987  41.3785006  37.1105017
  13.2699987  41.3785006  37.1105017  12.0729987  42.3055006  37.1105017
   9.9979987  53.5315006  35.9365017  10.9549987  53.5315006  35.9365017
   9.7579987  54.4585006  35.9365017   9.5319987  43.1335006  37.9315017
  10.4889987  43.1335006  37.9315017   9.2919987  44.0605006  37.9315017
  10.0449987  44.1235006  47.1305017  11.0019987  44.1235006  47.1305017
   9.8049987  45.0505006  47.1305017  10.3919987  40.1915006  38.8395017
  11.3489987  40.1915006  38.8395017  10.1519987  41.1185006  38.8395017
   7.3789987  54.5675006  35.9455017   8.3359987  54.5675006  35.9455017
   7.1389987  55.4945006  35.9455017   6.0489987  41.2845006  35.5345017
   7.0059987  41.2845006  35.5345017   5.8089987  42.2115006  35.5345017
  14.8879987  45.7965006  41.9885017  15.8449987  45.7965006  41.9885017
  14.6479987  46.7235006  41.9885017   4.2909987  51.7285006  34.5795017
   5.2479987  51.7285006  34.5795017   4.0509987  52.6555006  34.5795017
   2.5779987  44.4035006  33.7715017   3.5349987  44.4035006  33.7715017
   2.3379987  45.3305006  33.7715017  15.9779987  55.0255006  43.6425017
  16.9349987  55.0255006  43.6425017  15.7379987  55.9525006  43.6425017
   3.4639987  39.1825006  42.4285017   4.4209987  39.1825006  42.4285017
   3.2239987  40.1095006  42.4285017   2.3859987  53.1135006  38.6025017
   3.3429987  53.1135006  38.6025017   2.1459987  54.0405006  38.6025017
   1.7139987  55.6985006  49.8235017   2.6709987  55.6985006  49.8235017
   1.4739987  56.6255006  49.8235017   6.2699987  54.6585006  51.5045017
   7.2269987  54.6585006  51.5045017   6.0299987  55.5855006  51.5045017
  10.3969987  54.1845006  32.8945017  11.3539987  54.1845006  32.8945017
  10.1569987  55.1115006  32.8945017  12.7299987  53.1085006  50.3425017
  13.6869987  53.1085006  50.3425017  12.4899987  54.0355006  50.3425017
  14.9619987  53.9415006  33.0965017  15.9189987  53.9415006  33.0965017
  14.7219987  54.8685006  33.0965017   1.5089987  49.5385006  50.8785017
   2.4659987  49.5385006  50.8785017   1.2689987  50.4655006  50.8785017
   5.8669987  49.8765006  32.9275017   6.8239987  49.8765006  32.9275017
   5.6269987  50.8035006  32.9275017   8.2209987  49.5195006  50.2775017
   9.1779987  49.5195006  50.2775017   7.9809987  50.4465006  50.2775017
  11.2829987  50.9685006  32.6875017  12.2399987  50.9685006  32.6875017
  11.0429987  51.8955006  32.6875017   2.3639987  46.7355006  50.2555017
   3.3209987  46.7355006  50.2555017   2.1239987  47.6625006  50.2555017
   7.0619987  47.8845006  35.3135017   8.0189987  47.8845006  35.3135017
   6.8219987  48.8115006  35.3135017   6.3369987  45.7105006  47.6295017
   7.2939987  45.7105006  47.6295017   6.0969987  46.6375006  47.6295017
   8.1329987  46.1055006  33.5355017   9.0899987  46.1055006  33.5355017
   7.8929987  47.0325006  33.5355017  11.3969987  48.2475006  50.9435017
  12.3539987  48.2475006  50.9435017  11.1569987  49.1745006  50.9435017
  17.4659987  48.4275006  32.9795017  18.4229987  48.4275006  32.9795017
  17.2259987  49.3545006  32.9795017   6.7319987  43.0845006  48.6985017
   7.6889987  43.0845006  48.6985017   6.4919987  44.0115006  48.6985017
   7.1309987  41.4615006  46.2295017   8.0879987  41.4615006  46.2295017
   6.8909987  42.3885006  46.2295017   8.6809987  46.9345006  46.4755017
   9.6379987  46.9345006  46.4755017   8.4409987  47.8615006  46.4755017
  13.0879987  44.7085006  51.4695017  14.0449987  44.7085006  51.4695017
  12.8479987  45.6355006  51.4695017  14.4489987  47.5435006  49.6045017
  15.4059987  47.5435006  49.6045017  14.2089987  48.4705006  49.6045017
   5.1739987  44.3335006  50.6105017   6.1309987  44.3335006  50.6105017
   4.9339987  45.2605006  50.6105017   7.9129987  38.9055006  46.6425017
   8.8699987  38.9055006  46.6425017   7.6729987  39.8325006  46.6425017
   9.1989987  43.2295006  50.2305017  10.1559987  43.2295006  50.2305017
   8.9589987  44.1565006  50.2305017  11.8929987  42.3405006  49.2895017
  12.8499987  42.3405006  49.2895017  11.6529987  43.2675006  49.2895017
  13.5049987  40.9885006  51.2595017  14.4619987  40.9885006  51.2595017
  13.2649987  41.9155006  51.2595017   3.3259987  42.2585006  50.3525017
   4.2829987  42.2585006  50.3525017   3.0859987  43.1855006  50.3525017
   8.1359987  38.2675006  49.3275017   9.0929987  38.2675006  49.3275017
   7.8959987  39.1945006  49.3275017   8.5029987  39.9015006  51.4165017
   9.4599987  39.9015006  51.4165017   8.2629987  40.8285006  51.4165017
   7.9809987  56.8035006  34.5965017   8.9379987  56.8035006  34.5965017
   7.7409987  57.7305006  34.5965017   1.5909987  51.4155006  34.0505017
   2.5479987  51.4155006  34.0505017   1.3509987  52.3425006  34.0505017
 108.0929987  56.8405006  39.0705017 109.0499987  56.8405006  39.0705017
 107.8529987  57.7675006  39.0705017   1.5079987  55.0555006  41.0205017
   2.4649987  55.0555006  41.0205017   1.2679987  55.9825006  41.0205017
  16.6989987  50.9865006  51.4905017  17.6559987  50.9865006  51.4905017
  16.4589987  51.9135006  51.4905017  17.9969987  49.2975006  36.9165017
  18.9539987  49.2975006  36.9165017  17.7569987  50.2245006  36.9165017
  18.6519987  47.2495006  35.1935017  19.6089987  47.2495006  35.1935017
  18.4119987  48.1765006  35.1935017  17.0129987  44.4955006  33.7035017
  17.9699987  44.4955006  33.7035017  16.7729987  45.4225006  33.7035017
  16.1719987  45.8955006  39.3315017  17.1289987  45.8955006  39.3315017
  15.9319987  46.8225006  39.3315017   1.1829987  47.9705006  43.4095017
   2.1399987  47.9705006  43.4095017   0.9429987  48.8975006  43.4095017
  16.2669987  41.9505006  32.8385017  17.2239987  41.9505006  32.8385017
  16.0269987  42.8775006  32.8385017  15.8419987  43.4875006  37.8005017
  16.7989987  43.4875006  37.8005017  15.6019987  44.4145006  37.8005017
   0.8809987  43.2435006  49.4685017   1.8379987  43.2435006  49.4685017
   0.6409987  44.1705006  49.4685017  18.7999987  38.7765006  51.3885017
  19.7569987  38.7765006  51.3885017  18.5599987  39.7035006  51.3885017
  16.5019987  40.7705006  37.8635017  17.4589987  40.7705006  37.8635017
  16.2619987  41.6975006  37.8635017   2.0859987  41.6005006  42.3985017
   3.0429987  41.6005006  42.3985017   1.8459987  42.5275006  42.3985017
   0.8899987  44.5325006  43.6125017   1.8469987  44.5325006  43.6125017
   0.6499987  45.4595006  43.6125017  18.2879987  40.8205006  49.7865017
  19.2449987  40.8205006  49.7865017  18.0479987  41.7475006  49.7865017
  18.3369987  40.8065006  34.4225017  19.2939987  40.8065006  34.4225017
  18.0969987  41.7335006  34.4225017   0.8929987  40.7635006  37.5295017
   1.8499987  40.7635006  37.5295017   0.6529987  41.6905006  37.5295017
  15.4059987  55.8245006  39.4595017  16.3629987  55.8245006  39.4595017
  15.1659987  56.7515006  39.4595017 108.3279987  39.4895006  45.8595017
 109.2849987  39.4895006  45.8595017 108.0879987  40.4165006  45.8595017
   2.8149987  52.7195006  50.0085017   3.7719987  52.7195006  50.0085017
   2.5749987  53.6465006  50.0085017   5.7349987  53.6905006  46.2655017
   6.6919987  53.6905006  46.2655017   5.4949987  54.6175006  46.2655017
  10.0429987  55.1375006  49.1955017  10.9999987  55.1375006  49.1955017
   9.8029987  56.0645006  49.1955017  12.3699987  56.3935006  48.4585017
  13.3269987  56.3935006  48.4585017  12.1299987  57.3205006  48.4585017
  17.3349987  38.9935006  47.5825017  18.2919987  38.9935006  47.5825017
  17.0949987  39.9205006  47.5825017   3.1499987  56.9475006  46.2975017
   4.1069987  56.9475006  46.2975017   2.9099987  57.8745006  46.2975017
   5.6469987  56.5295006  45.3415017   6.6039987  56.5295006  45.3415017
   5.4069987  57.4565006  45.3415017  10.3319987  56.4255006  44.5115017
  11.2889987  56.4255006  44.5115017  10.0919987  57.3525006  44.5115017
  12.6389987  55.2745006  45.4625017  13.5959987  55.2745006  45.4625017
  12.3989987  56.2015006  45.4625017  15.2249987  56.8615006  45.7565017
  16.1819987  56.8615006  45.7565017  14.9849987  57.7885006  45.7565017
   2.6369987  55.6055006  43.2625017   3.5939987  55.6055006  43.2625017
   2.3969987  56.5325006  43.2625017   4.6809987  54.2955006  41.8575017
   5.6379987  54.2955006  41.8575017   4.4409987  55.2225006  41.8575017
   7.2539987  54.7755006  42.7275017   8.2109987  54.7755006  42.7275017
   7.0139987  55.7025006  42.7275017  10.7549987  40.4275006  41.8765017
  11.7119987  40.4275006  41.8765017  10.5149987  41.3545006  41.8765017
  15.9139987  38.5305006  41.9915017  16.8709987  38.5305006  41.9915017
  15.6739987  39.4575006  41.9915017  17.5899987  39.7145006  40.2645017
  18.5469987  39.7145006  40.2645017  17.3499987  40.6415006  40.2645017
   3.1299987  39.0585006  39.6675017   4.0869987  39.0585006  39.6675017
   2.8899987  39.9855006  39.6675017   1.9119987  38.8115006  35.4755017
   2.8689987  38.8115006  35.4755017   1.6719987  39.7385006  35.4755017
   7.6149987  38.9805006  39.5015017   8.5719987  38.9805006  39.5015017
   7.3749987  39.9075006  39.5015017  13.2849987  39.0025006  41.1405017
  14.2419987  39.0025006  41.1405017  13.0449987  39.9295006  41.1405017
  14.5839987  39.0415006  36.8225017  15.5409987  39.0415006  36.8225017
  14.3439987  39.9685006  36.8225017   1.9219987  54.7825006  36.4375017
   2.8789987  54.7825006  36.4375017   1.6819987  55.7095006  36.4375017
   3.7179987  40.7645006  33.9465017   4.6749987  40.7645006  33.9465017
   3.4779987  41.6915006  33.9465017   8.7599987  41.0145006  36.3595017
   9.7169987  41.0145006  36.3595017   8.5199987  41.9415006  36.3595017
  10.6719987  56.0485006  34.8045017  11.6289987  56.0485006  34.8045017
  10.4319987  56.9755006  34.8045017   2.9949987  39.5955006  49.1695017
   3.9519987  39.5955006  49.1695017   2.7549987  40.5225006  49.1695017
   5.0119987  38.9745006  50.7865017   5.9689987  38.9745006  50.7865017
   4.7719987  39.9015006  50.7865017   3.5879987  55.7165006  33.3925017
   4.5449987  55.7165006  33.3925017   3.3479987  56.6435006  33.3925017
  13.4239987  38.2785006  50.9495017  14.3809987  38.2785006  50.9495017
  13.1839987  39.2055006  50.9495017  33.7489987  50.3335006  41.4175017
  34.7059987  50.3335006  41.4175017  33.5089987  51.2605006  41.4175017
  19.7999987  45.1535006  38.6425017  20.7569987  45.1535006  38.6425017
  19.5599987  46.0805006  38.6425017  20.5159987  50.6095006  36.9845017
  21.4729987  50.6095006  36.9845017  20.2759987  51.5365006  36.9845017
  23.7739987  47.3225006  37.4965017  24.7309987  47.3225006  37.4965017
  23.5339987  48.2495006  37.4965017  30.3339987  45.1105006  38.1605017
  31.2909987  45.1105006  38.1605017  30.0939987  46.0375006  38.1605017
  20.4459987  42.6135006  35.5815017  21.4029987  42.6135006  35.5815017
  20.2059987  43.5405006  35.5815017  31.8139987  42.3325006  34.6355017
  32.7709987  42.3325006  34.6355017  31.5739987  43.2595006  34.6355017
  32.5189987  44.2125006  36.3045017  33.4759987  44.2125006  36.3045017
  32.2789987  45.1395006  36.3045017  21.1749987  47.2025006  34.2105017
  22.1319987  47.2025006  34.2105017  20.9349987  48.1295006  34.2105017
  22.5779987  49.1025006  35.6965017  23.5349987  49.1025006  35.6965017
  22.3379987  50.0295006  35.6965017  31.1899987  41.3905006  37.0985017
  32.1469987  41.3905006  37.0985017  30.9499987  42.3175006  37.0985017
  26.1289987  54.5655006  35.9155017  27.0859987  54.5655006  35.9155017
  25.8889987  55.4925006  35.9155017  23.1799987  51.7115006  34.6185017
  24.1369987  51.7115006  34.6185017  22.9399987  52.6385006  34.6185017
  20.5009987  55.7445006  49.9115017  21.4579987  55.7445006  49.9115017
  20.2609987  56.6715006  49.9115017  31.6749987  53.0225006  50.2565017
  32.6319987  53.0225006  50.2565017  31.4349987  53.9495006  50.2565017
  20.3069987  49.4795006  50.9545017  21.2639987  49.4795006  50.9545017
  20.0669987  50.4065006  50.9545017  21.0619987  46.6235006  50.2005017
  22.0189987  46.6235006  50.2005017  20.8219987  47.5505006  50.2005017
  20.4149987  51.3605006  34.1225017  21.3719987  51.3605006  34.1225017
  20.1749987  52.2875006  34.1225017  37.4979987  47.2505006  35.1895017
  38.4549987  47.2505006  35.1895017  37.2579987  48.1775006  35.1895017
  35.8119987  44.5135006  33.7125017  36.7689987  44.5135006  33.7125017
  35.5719987  45.4405006  33.7125017  19.4849987  40.8115006  37.5125017
  20.4419987  40.8115006  37.5125017  19.2449987  41.7385006  37.5125017
  19.4129987  39.4655006  45.7925017  20.3699987  39.4655006  45.7925017
  19.1729987  40.3925006  45.7925017  22.0489987  56.9645006  46.3075017
  23.0059987  56.9645006  46.3075017  21.8089987  57.8915006  46.3075017
  21.9639987  39.0175006  39.6575017  22.9209987  39.0175006  39.6575017
  21.7239987  39.9445006  39.6575017  20.7319987  38.8275006  35.4355017
  21.6889987  38.8275006  35.4355017  20.4919987  39.7545006  35.4355017
  22.6019987  40.7045006  33.9825017  23.5589987  40.7045006  33.9825017
  22.3619987  41.6315006  33.9825017  41.2509987  47.0295006  44.5525017
  42.2079987  47.0295006  44.5525017  41.0109987  47.9565006  44.5525017
  52.4929987  50.4115006  41.3155017  53.4499987  50.4115006  41.3155017
  52.2529987  51.3385006  41.3155017  49.6919987  50.8015006  38.6785017
  50.6489987  50.8015006  38.6785017  49.4519987  51.7285006  38.6785017
  51.1999987  54.0305006  40.2905017  52.1569987  54.0305006  40.2905017
  50.9599987  54.9575006  40.2905017  52.4699987  51.9585006  38.8365017
  53.4269987  51.9585006  38.8365017  52.2299987  52.8855006  38.8365017
  48.6359987  53.5885006  39.0975017  49.5929987  53.5885006  39.0975017
  48.3959987  54.5155006  39.0975017  55.7449987  52.9345006  33.9795017
  56.7019987  52.9345006  33.9795017  55.5049987  53.8615006  33.9795017
  38.7339987  49.7015006  46.3595017  39.6909987  49.7015006  46.3595017
  38.4939987  50.6285006  46.3595017  51.2619987  55.7165006  34.6315017
  52.2189987  55.7165006  34.6315017  51.0219987  56.6435006  34.6315017
  50.8559987  55.5885006  37.3355017  51.8129987  55.5885006  37.3355017
  50.6159987  56.5155006  37.3355017  51.9259987  51.3105006  34.3545017
  52.8829987  51.3105006  34.3545017  51.6859987  52.2375006  34.3545017
  56.4499987  55.6195006  34.5245017  57.4069987  55.6195006  34.5245017
  56.2099987  56.5465006  34.5245017  52.8149987  49.8735006  36.5125017
  53.7719987  49.8735006  36.5125017  52.5749987  50.8005006  36.5125017
  40.3699987  44.4045006  33.6545017  41.3269987  44.4045006  33.6545017
  40.1299987  45.3315006  33.6545017  53.6829987  55.0105006  43.6475017
  54.6399987  55.0105006  43.6475017  53.4429987  55.9375006  43.6475017
  44.1019987  54.7605006  51.5475017  45.0589987  54.7605006  51.5475017
  43.8619987  55.6875006  51.5475017  52.7059987  53.9925006  33.1485017
  53.6629987  53.9925006  33.1485017  52.4659987  54.9195006  33.1485017
  51.1819987  41.0205006  51.1855017  52.1389987  41.0205006  51.1855017
  50.9419987  41.9475006  51.1855017  54.3289987  53.0825006  46.0345017
  55.2859987  53.0825006  46.0345017  54.0889987  54.0095006  46.0345017
  53.8799987  45.9055006  39.4155017  54.8369987  45.9055006  39.4155017
  53.6399987  46.8325006  39.4155017  53.1079987  55.7645006  39.4555017
  54.0649987  55.7645006  39.4555017  52.8679987  56.6915006  39.4555017
  55.1029987  55.5895006  37.4895017  56.0599987  55.5895006  37.4895017
  54.8629987  56.5165006  37.4895017  54.3369987  54.3345006  49.5755017
  55.2939987  54.3345006  49.5755017  54.0969987  55.2615006  49.5755017
  58.2419987  50.6125006  37.0095017  59.1989987  50.6125006  37.0095017
  58.0019987  51.5395006  37.0095017  60.6069987  55.2715006  39.3845017
  61.5639987  55.2715006  39.3845017  60.3669987  56.1985006  39.3845017
  72.6529987  44.6815006  49.3775017  73.6099987  44.6815006  49.3775017
  72.4129987  45.6085006  49.3775017  58.9359987  53.0915006  38.5375017
  59.8929987  53.0915006  38.5375017  58.6959987  54.0185006  38.5375017
  62.8279987  54.6205006  51.5125017  63.7849987  54.6205006  51.5125017
  62.5879987  55.5475006  51.5125017  62.6199987  49.9235006  33.0655017
  63.5769987  49.9235006  33.0655017  62.3799987  50.8505006  33.0655017
  62.9469987  45.7745006  47.6615017  63.9039987  45.7745006  47.6615017
  62.7069987  46.7015006  47.6615017  56.8869987  56.7845006  39.0415017
  57.8439987  56.7845006  39.0415017  56.6469987  57.7115006  39.0415017
  57.7259987  54.8855006  40.8885017  58.6829987  54.8855006  40.8885017
  57.4859987  55.8125006  40.8885017  58.2969987  54.7785006  36.4645017
  59.2539987  54.7785006  36.4645017  58.0569987  55.7055006  36.4645017
  86.5199987  47.4715006  43.0575017  87.4769987  47.4715006  43.0575017
  86.2799987  48.3985006  43.0575017  93.4699987  41.4955006  44.2935017
  94.4269987  41.4955006  44.2935017  93.2299987  42.4225006  44.2935017
  88.0559987  44.3385006  43.8195017  89.0129987  44.3385006  43.8195017
  87.8159987  45.2655006  43.8195017  88.9009987  42.5105006  39.4695017
  89.8579987  42.5105006  39.4695017  88.6609987  43.4375006  39.4695017
  93.9379987  42.9415006  46.5495017  94.8949987  42.9415006  46.5495017
  93.6979987  43.8685006  46.5495017  79.9629987  41.1575006  45.1985017
  80.9199987  41.1575006  45.1985017  79.7229987  42.0845006  45.1985017
  90.6739987  41.8195006  41.4395017  91.6309987  41.8195006  41.4395017
  90.4339987  42.7465006  41.4395017  90.7519987  52.2295006  43.6965017
  91.7089987  52.2295006  43.6965017  90.5119987  53.1565006  43.6965017
  91.0049987  40.5065006  45.0875017  91.9619987  40.5065006  45.0875017
  90.7649987  41.4335006  45.0875017  84.0679987  38.5925006  42.6735017
  85.0249987  38.5925006  42.6735017  83.8279987  39.5195006  42.6735017
  91.8219987  50.5215006  47.3405017  92.7789987  50.5215006  47.3405017
  91.5819987  51.4485006  47.3405017  93.6789987  46.8275006  45.3885017
  94.6359987  46.8275006  45.3885017  93.4389987  47.7545006  45.3885017
  89.6589987  45.8155006  47.1245017  90.6159987  45.8155006  47.1245017
  89.4189987  46.7425006  47.1245017  88.5849987  46.8135006  35.6955017
  89.5419987  46.8135006  35.6955017  88.3449987  47.7405006  35.6955017
  92.3239987  38.5705006  35.5595017  93.2809987  38.5705006  35.5595017
  92.0839987  39.4975006  35.5595017  93.4529987  52.9205006  33.9335017
  94.4099987  52.9205006  33.9335017  93.2129987  53.8475006  33.9335017
  94.4239987  53.1395006  48.9535017  95.3809987  53.1395006  48.9535017
  94.1839987  54.0665006  48.9535017  88.8419987  55.6845006  34.5675017
  89.7989987  55.6845006  34.5675017  88.6019987  56.6115006  34.5675017
  88.5649987  55.5945006  37.3035017  89.5219987  55.5945006  37.3035017
  88.3249987  56.5215006  37.3035017  91.5529987  44.6625006  49.3825017
  92.5099987  44.6625006  49.3825017  91.3129987  45.5895006  49.3825017
  86.0189987  39.2185006  46.7135017  86.9759987  39.2185006  46.7135017
  85.7789987  40.1455006  46.7135017  89.3259987  43.0265006  47.5605017
  90.2829987  43.0265006  47.5605017  89.0859987  43.9535006  47.5605017
  90.0629987  47.8525006  33.4035017  91.0199987  47.8525006  33.4035017
  89.8229987  48.7795006  33.4035017  86.0119987  45.3245006  49.6675017
  86.9689987  45.3245006  49.6675017  85.7719987  46.2515006  49.6675017
  87.9759987  44.6115006  41.0405017  88.9329987  44.6115006  41.0405017
  87.7359987  45.5385006  41.0405017  87.1879987  46.2095006  45.6585017
  88.1449987  46.2095006  45.6585017  86.9479987  47.1365006  45.6585017
  88.3819987  41.3115006  43.7175017  89.3389987  41.3115006  43.7175017
  88.1419987  42.2385006  43.7175017  83.9169987  43.2685006  44.7825017
  84.8739987  43.2685006  44.7825017  83.6769987  44.1955006  44.7825017
  91.6719987  48.6755006  45.2595017  92.6289987  48.6755006  45.2595017
  91.4319987  49.6025006  45.2595017  85.9329987  49.7125006  47.6925017
  86.8899987  49.7125006  47.6925017  85.6929987  50.6395006  47.6925017
  83.6339987  46.8585006  49.7415017  84.5909987  46.8585006  49.7415017
  83.3939987  47.7855006  49.7415017  88.2109987  52.0965006  47.6765017
  89.1679987  52.0965006  47.6765017  87.9709987  53.0235006  47.6765017
  93.9839987  44.3745006  36.0425017  94.9409987  44.3745006  36.0425017
  93.7439987  45.3015006  36.0425017  93.9529987  50.2105006  48.8675017
  94.9099987  50.2105006  48.8675017  93.7129987  51.1375006  48.8675017
  92.2359987  53.1885006  36.4755017  93.1929987  53.1885006  36.4755017
  91.9959987  54.1155006  36.4755017  89.4459987  48.0145006  43.4985017
  90.4029987  48.0145006  43.4985017  89.2059987  48.9415006  43.4985017
  87.4099987  50.2215006  45.1945017  88.3669987  50.2215006  45.1945017
  87.1699987  51.1485006  45.1945017  94.1849987  55.6205006  34.5425017
  95.1419987  55.6205006  34.5425017  93.9449987  56.5475006  34.5425017
  78.2439987  42.0215006  47.0625017  79.2009987  42.0215006  47.0625017
  78.0039987  42.9485006  47.0625017  86.9939987  41.7845006  46.0175017
  87.9509987  41.7845006  46.0175017  86.7539987  42.7115006  46.0175017
  85.4249987  53.5535006  35.9555017  86.3819987  53.5535006  35.9555017
  85.1849987  54.4805006  35.9555017  85.4949987  44.1455006  47.1135017
  86.4519987  44.1455006  47.1135017  85.2549987  45.0725006  47.1135017
  85.8399987  40.2205006  38.8345017  86.7969987  40.2205006  38.8345017
  85.5999987  41.1475006  38.8345017  82.8069987  54.5835006  35.9545017
  83.7639987  54.5835006  35.9545017  82.5669987  55.5105006  35.9545017
  91.6909987  42.0055006  47.9825017  92.6479987  42.0055006  47.9825017
  91.4509987  42.9325006  47.9825017  90.2879987  45.8125006  41.9995017
  91.2449987  45.8125006  41.9995017  90.0479987  46.7395006  41.9995017
  91.3689987  55.0005006  43.5845017  92.3259987  55.0005006  43.5845017
  91.1289987  55.9275006  43.5845017  77.0689987  55.7315006  49.9205017
  78.0259987  55.7315006  49.9205017  76.8289987  56.6585006  49.9205017
  81.5789987  54.5125006  51.5425017  82.5359987  54.5125006  51.5425017
  81.3389987  55.4395006  51.5425017  88.2389987  53.0015006  50.2535017
  89.1959987  53.0015006  50.2535017  87.9989987  53.9285006  50.2535017
  90.3909987  53.9355006  33.1145017  91.3479987  53.9355006  33.1145017
  90.1509987  54.8625006  33.1145017  89.3479987  49.4105006  47.7165017
  90.3049987  49.4105006  47.7165017  89.1079987  50.3375006  47.7165017
  81.7229987  45.6875006  47.5885017  82.6799987  45.6875006  47.5885017
  81.4829987  46.6145006  47.5885017  86.8109987  48.2705006  50.9065017
  87.7679987  48.2705006  50.9065017  86.5709987  49.1975006  50.9065017
  92.9449987  48.4505006  32.9665017  93.9019987  48.4505006  32.9665017
  92.7049987  49.3775006  32.9665017  82.1879987  43.0765006  48.7255017
  83.1449987  43.0765006  48.7255017  81.9479987  44.0035006  48.7255017
  82.5499987  41.4725006  46.2045017  83.5069987  41.4725006  46.2045017
  82.3099987  42.3995006  46.2045017  84.0789987  46.9335006  46.4225017
  85.0359987  46.9335006  46.4225017  83.8389987  47.8605006  46.4225017
  88.4999987  44.6895006  51.4455017  89.4569987  44.6895006  51.4455017
  88.2599987  45.6165006  51.4455017  89.8239987  47.4855006  49.5865017
  90.7809987  47.4855006  49.5865017  89.5839987  48.4125006  49.5865017
  83.3669987  38.9245006  46.6535017  84.3239987  38.9245006  46.6535017
  83.1269987  39.8515006  46.6535017  84.6569987  43.1145006  50.2345017
  85.6139987  43.1145006  50.2345017  84.4169987  44.0415006  50.2345017
  87.3619987  42.5995006  49.1655017  88.3189987  42.5995006  49.1655017
  87.1219987  43.5265006  49.1655017  88.9459987  40.9935006  51.2635017
  89.9029987  40.9935006  51.2635017  88.7059987  41.9205006  51.2635017
  78.7249987  42.1895006  50.3355017  79.6819987  42.1895006  50.3355017
  78.4849987  43.1165006  50.3355017  83.5869987  38.2945006  49.3405017
  84.5439987  38.2945006  49.3405017  83.3469987  39.2215006  49.3405017
  83.9839987  39.9415006  51.3725017  84.9409987  39.9415006  51.3725017
  83.7439987  40.8685006  51.3725017  83.4459987  56.7435006  34.4925017
  84.4029987  56.7435006  34.4925017  83.2059987  57.6705006  34.4925017
  94.1409987  55.6555006  43.8515017  95.0979987  55.6555006  43.8515017
  93.9009987  56.5825006  43.8515017  92.1059987  51.0155006  51.4695017
  93.0629987  51.0155006  51.4695017  91.8659987  51.9425006  51.4695017
  93.3919987  49.3805006  36.9795017  94.3489987  49.3805006  36.9795017
  93.1519987  50.3075006  36.9795017  93.7499987  47.4665006  38.8045017
  94.7069987  47.4665006  38.8045017  93.5099987  48.3935006  38.8045017
  93.5099987  50.1095006  43.6945017  94.4669987  50.1095006  43.6945017
  93.2699987  51.0365006  43.6945017  92.0549987  52.9815006  46.0445017
  93.0119987  52.9815006  46.0445017  91.8149987  53.9085006  46.0445017
  94.0859987  47.2485006  35.1785017  95.0429987  47.2485006  35.1785017
  93.8459987  48.1755006  35.1785017  92.4929987  44.4895006  33.7065017
  93.4499987  44.4895006  33.7065017  92.2529987  45.4165006  33.7065017
  91.6129987  45.9215006  39.3685017  92.5699987  45.9215006  39.3685017
  91.3729987  46.8485006  39.3685017  92.4469987  47.8595006  49.0295017
  93.4039987  47.8595006  49.0295017  92.2069987  48.7865006  49.0295017
  93.9599987  45.7615006  49.6875017  94.9169987  45.7615006  49.6875017
  93.7199987  46.6885006  49.6875017  91.6849987  41.9415006  32.8385017
  92.6419987  41.9415006  32.8385017  91.4449987  42.8685006  32.8385017
  91.2739987  43.4815006  37.8225017  92.2309987  43.4815006  37.8225017
  91.0339987  44.4085006  37.8225017  91.9069987  44.0255006  43.2535017
  92.8639987  44.0255006  43.2535017  91.6669987  44.9525006  43.2535017
  91.9809987  44.7565006  46.0275017  92.9379987  44.7565006  46.0275017
  91.7409987  45.6835006  46.0275017  76.2109987  43.1225006  49.4825017
  77.1679987  43.1225006  49.4825017  75.9709987  44.0495006  49.4825017
  94.2379987  38.7955006  51.3855017  95.1949987  38.7955006  51.3855017
  93.9979987  39.7225006  51.3855017  91.9419987  40.7565006  37.8605017
  92.8989987  40.7565006  37.8605017  91.7019987  41.6835006  37.8605017
  93.7669987  40.9045006  49.7385017  94.7239987  40.9045006  49.7385017
  93.5269987  41.8315006  49.7385017  93.7599987  40.7995006  34.4175017
  94.7169987  40.7995006  34.4175017  93.5199987  41.7265006  34.4175017
  90.8289987  55.7255006  39.4795017  91.7859987  55.7255006  39.4795017
  90.5889987  56.6525006  39.4795017  92.7839987  38.9995006  47.5765017
  93.7409987  38.9995006  47.5765017  92.5439987  39.9265006  47.5765017
  86.2319987  40.4065006  41.9015017  87.1889987  40.4065006  41.9015017
  85.9919987  41.3335006  41.9015017  91.2929987  38.5105006  41.9935017
  92.2499987  38.5105006  41.9935017  91.0529987  39.4375006  41.9935017
  92.9919987  39.6925006  40.2625017  93.9489987  39.6925006  40.2625017
  92.7519987  40.6195006  40.2625017  88.7119987  38.9915006  41.1615017
  89.6689987  38.9915006  41.1615017  88.4719987  39.9185006  41.1615017
  90.0109987  39.0365006  36.8225017  90.9679987  39.0365006  36.8225017
  89.7709987  39.9635006  36.8225017  86.0899987  56.0365006  34.7705017
  87.0469987  56.0365006  34.7705017  85.8499987  56.9635006  34.7705017
  92.8169987  55.5815006  37.5195017  93.7739987  55.5815006  37.5195017
  92.5769987  56.5085006  37.5195017  78.4149987  39.5585006  49.1455017
  79.3719987  39.5585006  49.1455017  78.1749987  40.4855006  49.1455017
  80.4169987  38.9655006  50.7725017  81.3739987  38.9655006  50.7725017
  80.1769987  39.8925006  50.7725017  88.8319987  38.3045006  50.9525017
  89.7889987  38.3045006  50.9525017  88.5919987  39.2315006  50.9525017
 106.4689987  48.1645006  39.5665017 107.4259987  48.1645006  39.5665017
 106.2289987  49.0915006  39.5665017 105.2809987  47.4755006  43.0895017
 106.2379987  47.4755006  43.0895017 105.0409987  48.4025006  43.0895017
  97.7119987  47.1035006  44.6315017  98.6689987  47.1035006  44.6315017
  97.4719987  48.0305006  44.6315017  98.6169987  51.5825006  43.1095017
  99.5739987  51.5825006  43.1095017  98.3769987  52.5095006  43.1095017
  95.2869987  45.1495006  38.6155017  96.2439987  45.1495006  38.6155017
  95.0469987  46.0765006  38.6155017  95.9689987  47.3585006  40.7475017
  96.9259987  47.3585006  40.7475017  95.7289987  48.2855006  40.7475017
 106.1759987  55.5135006  41.5685017 107.1329987  55.5135006  41.5685017
 105.9359987  56.4405006  41.5685017 103.7009987  49.8555006  43.5155017
 104.6579987  49.8555006  43.5155017 103.4609987  50.7825006  43.5155017
 106.2229987  44.0815006  43.8085017 107.1799987  44.0815006  43.8085017
 105.9829987  45.0085006  43.8085017 100.0119987  42.3915006  41.0875017
 100.9689987  42.3915006  41.0875017  99.7719987  43.3185006  41.0875017
 107.7189987  42.9865006  39.0475017 108.6759987  42.9865006  39.0475017
 107.4789987  43.9135006  39.0475017  96.6399987  44.8145006  41.8215017
  97.5969987  44.8145006  41.8215017  96.3999987  45.7415006  41.8215017
 101.7909987  46.3765006  41.1035017 102.7479987  46.3765006  41.1035017
 101.5509987  47.3035006  41.1035017  98.8849987  41.2745006  45.1095017
  99.8419987  41.2745006  45.1095017  98.6449987  42.2015006  45.1095017
 106.2279987  50.7975006  38.6715017 107.1849987  50.7975006  38.6715017
 105.9879987  51.7245006  38.6715017 101.4369987  48.9545006  45.3815017
 102.3939987  48.9545006  45.3815017 101.1969987  49.8815006  45.3815017
  98.4689987  43.1515006  43.1435017  99.4259987  43.1515006  43.1435017
  98.2289987  44.0785006  43.1435017  99.8739987  50.9435006  46.1925017
 100.8309987  50.9435006  46.1925017  99.6339987  51.8705006  46.1925017
  96.0189987  50.6105006  36.9805017  96.9759987  50.6105006  36.9805017
  95.7789987  51.5375006  36.9805017 102.8699987  38.6325006  42.5855017
 103.8269987  38.6325006  42.5855017 102.6299987  39.5595006  42.5855017
 107.5009987  53.8425006  39.9265017 108.4579987  53.8425006  39.9265017
 107.2609987  54.7695006  39.9265017 105.1279987  47.4315006  37.0845017
 106.0849987  47.4315006  37.0845017 104.8879987  48.3585006  37.0845017
 105.1859987  45.9395006  34.1175017 106.1429987  45.9395006  34.1175017
 104.9459987  46.8665006  34.1175017 100.2129987  48.3175006  39.9245017
 101.1699987  48.3175006  39.9245017  99.9729987  49.2445006  39.9245017
 101.5279987  51.7045006  42.6155017 102.4849987  51.7045006  42.6155017
 101.2879987  52.6315006  42.6155017 100.5459987  47.0505006  43.5825017
 101.5029987  47.0505006  43.5825017 100.3059987  47.9775006  43.5825017
 106.5349987  52.6345006  44.3355017 107.4919987  52.6345006  44.3355017
 106.2949987  53.5615006  44.3355017 101.4859987  51.4745006  48.2875017
 102.4429987  51.4745006  48.2875017 101.2459987  52.4015006  48.2875017
 107.4599987  46.8175006  35.7125017 108.4169987  46.8175006  35.7125017
 107.2199987  47.7445006  35.7125017  98.4199987  47.6405006  47.4645017
  99.3769987  47.6405006  47.4645017  98.1799987  48.5675006  47.4645017
 105.0819987  53.5575006  39.1485017 106.0389987  53.5575006  39.1485017
 104.8419987  54.4845006  39.1485017  99.7309987  53.5165006  49.0405017
 100.6879987  53.5165006  49.0405017  99.4909987  54.4435006  49.0405017
  99.1739987  47.3485006  37.5595017 100.1309987  47.3485006  37.5595017
  98.9339987  48.2755006  37.5595017  95.2819987  49.7545006  46.3985017
  96.2389987  49.7545006  46.3985017  95.0419987  50.6815006  46.3985017
  94.9419987  52.3175006  43.5725017  95.8989987  52.3175006  43.5725017
  94.7019987  53.2445006  43.5725017 104.2419987  52.7345006  47.7905017
 105.1989987  52.7345006  47.7905017 104.0019987  53.6615006  47.7905017
 104.6709987  56.4855006  37.5785017 105.6279987  56.4855006  37.5785017
 104.4309987  57.4125006  37.5785017  98.3049987  55.3105006  39.3805017
  99.2619987  55.3105006  39.3805017  98.0649987  56.2375006  39.3805017
 107.7399987  55.6715006  34.5375017 108.6969987  55.6715006  34.5375017
 107.4999987  56.5985006  34.5375017 107.2489987  55.4475006  37.1765017
 108.2059987  55.4475006  37.1765017 107.0089987  56.3745006  37.1765017
  97.5509987  51.0655006  47.3735017  98.5079987  51.0655006  47.3735017
  97.3109987  51.9925006  47.3735017 100.2569987  39.6815006  43.3335017
 101.2139987  39.6815006  43.3335017 100.0169987  40.6085006  43.3335017
 104.9009987  39.2075006  46.7225017 105.8579987  39.2075006  46.7225017
 104.6609987  40.1345006  46.7225017 104.0059987  42.0575006  34.2015017
 104.9629987  42.0575006  34.2015017 103.7659987  42.9845006  34.2015017
 100.3039987  44.4995006  44.5535017 101.2609987  44.4995006  44.5535017
 100.0639987  45.4265006  44.5535017 100.2849987  44.6585006  39.4305017
 101.2419987  44.6585006  39.4305017 100.0449987  45.5855006  39.4305017
 105.7879987  45.1385006  38.2275017 106.7449987  45.1385006  38.2275017
 105.5479987  46.0655006  38.2275017 104.8979987  45.3635006  49.7005017
 105.8549987  45.3635006  49.7005017 104.6579987  46.2905006  49.7005017
 106.7859987  44.5935006  41.0495017 107.7429987  44.5935006  41.0495017
 106.5459987  45.5205006  41.0495017  97.9699987  44.7825006  46.2865017
  98.9269987  44.7825006  46.2865017  97.7299987  45.7095006  46.2865017
 101.3319987  42.1445006  33.0995017 102.2889987  42.1445006  33.0995017
 101.0919987  43.0715006  33.0995017  94.6079987  41.8965006  40.2315017
  95.5649987  41.8965006  40.2315017  94.3679987  42.8235006  40.2315017
  95.8809987  42.6125006  35.6075017  96.8379987  42.6125006  35.6075017
  95.6409987  43.5395006  35.6075017 106.0449987  46.2125006  45.6605017
 107.0019987  46.2125006  45.6605017 105.8049987  47.1395006  45.6605017
 102.8499987  42.1665006  40.4505017 103.8069987  42.1665006  40.4505017
 102.6099987  43.0935006  40.4505017  97.6639987  43.7465006  39.3205017
  98.6209987  43.7465006  39.3205017  97.4239987  44.6735006  39.3205017
 101.3079987  43.7745006  36.9485017 102.2649987  43.7745006  36.9485017
 101.0679987  44.7015006  36.9485017 107.2399987  41.3615006  43.7595017
 108.1969987  41.3615006  43.7595017 106.9999987  42.2885006  43.7595017
  99.9999987  44.9645006  34.5385017 100.9569987  44.9645006  34.5385017
  99.7599987  45.8915006  34.5385017  98.1349987  49.5265006  49.5935017
  99.0919987  49.5265006  49.5935017  97.8949987  50.4535006  49.5935017
 104.0949987  44.9315006  42.3085017 105.0519987  44.9315006  42.3085017
 103.8549987  45.8585006  42.3085017  99.1579987  41.0715006  38.8065017
 100.1149987  41.0715006  38.8065017  98.9179987  41.9985006  38.8065017
 102.7569987  43.2755006  44.7665017 103.7139987  43.2755006  44.7665017
 102.5169987  44.2025006  44.7665017 103.3489987  49.5275006  36.4505017
 104.3059987  49.5275006  36.4505017 103.1089987  50.4545006  36.4505017
 107.1309987  42.3365006  34.6195017 108.0879987  42.3365006  34.6195017
 106.8909987  43.2635006  34.6195017 104.8409987  49.7225006  47.6925017
 105.7979987  49.7225006  47.6925017 104.6009987  50.6495006  47.6925017
   0.1189987  44.3095006  36.3245017   1.0759987  44.3095006  36.3245017
  -0.1210013  45.2365006  36.3245017  98.4589987  48.8925006  42.2395017
  99.4159987  48.8925006  42.2395017  98.2189987  49.8195006  42.2395017
 105.4549987  50.9555006  35.4765017 106.4119987  50.9555006  35.4765017
 105.2149987  51.8825006  35.4765017  95.4559987  47.2955006  47.5295017
  96.4129987  47.2955006  47.5295017  95.2159987  48.2225006  47.5295017
 102.4719987  46.8425006  49.7185017 103.4289987  46.8425006  49.7185017
 102.2319987  47.7695006  49.7185017 107.1539987  52.2185006  47.6275017
 108.1109987  52.2185006  47.6275017 106.9139987  53.1455006  47.6275017
 100.8189987  52.3305006  39.6165017 101.7759987  52.3305006  39.6165017
 100.5789987  53.2575006  39.6165017  96.5959987  47.1915006  34.2165017
  97.5529987  47.1915006  34.2165017  96.3559987  48.1185006  34.2165017
 102.2349987  50.0095006  39.1415017 103.1919987  50.0095006  39.1415017
 101.9949987  50.9365006  39.1415017 102.7059987  54.1785006  45.5585017
 103.6629987  54.1785006  45.5585017 102.4659987  55.1055006  45.5585017
 100.9259987  54.9925006  38.7115017 101.8829987  54.9925006  38.7115017
 100.6859987  55.9195006  38.7115017 106.2749987  50.1875006  45.2165017
 107.2319987  50.1875006  45.2165017 106.0349987  51.1145006  45.2165017
  97.1119987  42.0265006  47.0745017  98.0689987  42.0265006  47.0745017
  96.8719987  42.9535006  47.0745017  96.7799987  53.8175006  45.4615017
  97.7369987  53.8175006  45.4615017  96.5399987  54.7445006  45.4615017
 102.6669987  52.3335006  32.7505017 103.6239987  52.3335006  32.7505017
 102.4269987  53.2605006  32.7505017 101.4309987  51.8605006  35.2405017
 102.3879987  51.8605006  35.2405017 101.1909987  52.7875006  35.2405017
  98.0259987  49.1155006  35.7465017  98.9829987  49.1155006  35.7465017
  97.7859987  50.0425006  35.7465017 105.8509987  41.7815006  46.0245017
 106.8079987  41.7815006  46.0245017 105.6109987  42.7085006  46.0245017
 106.3329987  41.5965006  37.0665017 107.2899987  41.5965006  37.0665017
 106.0929987  42.5235006  37.0665017 104.2879987  53.5265006  35.9395017
 105.2449987  53.5265006  35.9395017 104.0479987  54.4535006  35.9395017
 103.8089987  43.1375006  37.9165017 104.7659987  43.1375006  37.9165017
 103.5689987  44.0645006  37.9165017 104.3359987  44.1025006  47.1325017
 105.2929987  44.1025006  47.1325017 104.0959987  45.0295006  47.1325017
 104.6919987  40.1915006  38.8135017 105.6489987  40.1915006  38.8135017
 104.4519987  41.1185006  38.8135017 101.6019987  54.5595006  35.9405017
 102.5589987  54.5595006  35.9405017 101.3619987  55.4865006  35.9405017
 100.3379987  41.2825006  35.5265017 101.2949987  41.2825006  35.5265017
 100.0979987  42.2095006  35.5265017  98.5949987  51.7145006  34.6065017
  99.5519987  51.7145006  34.6065017  98.3549987  52.6415006  34.6065017
  96.9079987  44.3915006  33.7205017  97.8649987  44.3915006  33.7205017
  96.6679987  45.3185006  33.7205017  97.6859987  39.2145006  42.4235017
  98.6429987  39.2145006  42.4235017  97.4459987  40.1415006  42.4235017
  96.6709987  53.1305006  38.6205017  97.6279987  53.1305006  38.6205017
  96.4309987  54.0575006  38.6205017 100.5619987  54.6715006  51.5025017
 101.5189987  54.6715006  51.5025017 100.3219987  55.5985006  51.5025017
 104.7059987  54.1705006  32.8895017 105.6629987  54.1705006  32.8895017
 104.4659987  55.0975006  32.8895017 107.1369987  53.0525006  50.2375017
 108.0939987  53.0525006  50.2375017 106.8969987  53.9795006  50.2375017
  95.8139987  49.5265006  50.8815017  96.7709987  49.5265006  50.8815017
  95.5739987  50.4535006  50.8815017 100.1449987  49.8835006  32.9455017
 101.1019987  49.8835006  32.9455017  99.9049987  50.8105006  32.9455017
 102.4999987  49.5145006  50.2795017 103.4569987  49.5145006  50.2795017
 102.2599987  50.4415006  50.2795017 105.5989987  50.9545006  32.6965017
 106.5559987  50.9545006  32.6965017 105.3589987  51.8815006  32.6965017
  96.7089987  46.7565006  50.2655017  97.6659987  46.7565006  50.2655017
  96.4689987  47.6835006  50.2655017 101.3249987  47.8935006  35.3135017
 102.2819987  47.8935006  35.3135017 101.0849987  48.8205006  35.3135017
 100.6179987  45.7105006  47.6295017 101.5749987  45.7105006  47.6295017
 100.3779987  46.6375006  47.6295017 102.4069987  46.1125006  33.5345017
 103.3639987  46.1125006  33.5345017 102.1669987  47.0395006  33.5345017
 105.6769987  48.2515006  50.9765017 106.6339987  48.2515006  50.9765017
 105.4369987  49.1785006  50.9765017 101.0089987  43.0835006  48.6985017
 101.9659987  43.0835006  48.6985017 100.7689987  44.0105006  48.6985017
 101.4079987  41.4375006  46.2165017 102.3649987  41.4375006  46.2165017
 101.1679987  42.3645006  46.2165017 102.9789987  46.9305006  46.4775017
 103.9359987  46.9305006  46.4775017 102.7389987  47.8575006  46.4775017
 107.3889987  44.7295006  51.5565017 108.3459987  44.7295006  51.5565017
 107.1489987  45.6565006  51.5565017  99.4679987  44.3205006  50.6235017
 100.4249987  44.3205006  50.6235017  99.2279987  45.2475006  50.6235017
 102.2189987  38.9045006  46.6275017 103.1759987  38.9045006  46.6275017
 101.9789987  39.8315006  46.6275017 103.4789987  43.2295006  50.2245017
 104.4359987  43.2295006  50.2245017 103.2389987  44.1565006  50.2245017
 106.1369987  42.3365006  49.2905017 107.0939987  42.3365006  49.2905017
 105.8969987  43.2635006  49.2905017 107.7719987  41.0355006  51.2345017
 108.7289987  41.0355006  51.2345017 107.5319987  41.9625006  51.2345017
  97.5659987  42.2525006  50.3445017  98.5229987  42.2525006  50.3445017
  97.3259987  43.1795006  50.3445017 102.4129987  38.2685006  49.3265017
 103.3699987  38.2685006  49.3265017 102.1729987  39.1955006  49.3265017
 102.7779987  39.8975006  51.4115017 103.7349987  39.8975006  51.4115017
 102.5379987  40.8245006  51.4115017 102.2639987  56.8055006  34.5945017
 103.2209987  56.8055006  34.5945017 102.0239987  57.7325006  34.5945017
  95.8479987  51.3955006  34.0915017  96.8049987  51.3955006  34.0915017
  95.6079987  52.3225006  34.0915017  94.5709987  56.8525006  38.9885017
  95.5279987  56.8525006  38.9885017  94.3309987  57.7795006  38.9885017
  95.3089987  55.2135006  40.7625017  96.2659987  55.2135006  40.7625017
  95.0689987  56.1405006  40.7625017  95.4649987  48.0155006  43.3935017
  96.4219987  48.0155006  43.3935017  95.2249987  48.9425006  43.3935017
  95.0739987  43.2815006  49.5475017  96.0309987  43.2815006  49.5475017
  94.8339987  44.2085006  49.5475017  96.2829987  41.5695006  42.4045017
  97.2399987  41.5695006  42.4045017  96.0429987  42.4965006  42.4045017
  94.5689987  44.5645006  43.4585017  95.5259987  44.5645006  43.4585017
  94.3289987  45.4915006  43.4585017  94.9359987  40.8335006  37.5305017
  95.8929987  40.8335006  37.5305017  94.6959987  41.7605006  37.5305017
  94.9009987  39.5045006  45.8205017  95.8579987  39.5045006  45.8205017
  94.6609987  40.4315006  45.8205017  97.1019987  52.6655006  49.9895017
  98.0589987  52.6655006  49.9895017  96.8619987  53.5925006  49.9895017
 100.0089987  53.6895006  46.2545017 100.9659987  53.6895006  46.2545017
  99.7689987  54.6165006  46.2545017 104.3349987  55.1225006  49.2055017
 105.2919987  55.1225006  49.2055017 104.0949987  56.0495006  49.2055017
 106.6879987  56.4255006  48.4325017 107.6449987  56.4255006  48.4325017
 106.4479987  57.3525006  48.4325017  97.4429987  56.9595006  46.2795017
  98.3999987  56.9595006  46.2795017  97.2029987  57.8865006  46.2795017
  99.9159987  56.5245006  45.3365017 100.8729987  56.5245006  45.3365017
  99.6759987  57.4515006  45.3365017 104.5959987  56.4285006  44.5115017
 105.5529987  56.4285006  44.5115017 104.3559987  57.3555006  44.5115017
 106.9359987  55.2945006  45.5215017 107.8929987  55.2945006  45.5215017
 106.6959987  56.2215006  45.5215017  96.8439987  55.4865006  43.1495017
  97.8009987  55.4865006  43.1495017  96.6039987  56.4135006  43.1495017
  98.9349987  54.2655006  41.8545017  99.8919987  54.2655006  41.8545017
  98.6949987  55.1925006  41.8545017 101.5229987  54.7655006  42.7275017
 102.4799987  54.7655006  42.7275017 101.2829987  55.6925006  42.7275017
 105.0189987  40.4245006  41.8585017 105.9759987  40.4245006  41.8585017
 104.7789987  41.3515006  41.8585017  97.3839987  39.0525006  39.7345017
  98.3409987  39.0525006  39.7345017  97.1439987  39.9795006  39.7345017
  96.1829987  38.8195006  35.4585017  97.1399987  38.8195006  35.4585017
  95.9429987  39.7465006  35.4585017 101.8959987  38.9685006  39.5085017
 102.8529987  38.9685006  39.5085017 101.6559987  39.8955006  39.5085017
 107.4669987  38.9275006  41.3015017 108.4239987  38.9275006  41.3015017
 107.2269987  39.8545006  41.3015017  96.0969987  54.7495006  36.4725017
  97.0539987  54.7495006  36.4725017  95.8569987  55.6765006  36.4725017
  98.0239987  40.7595006  33.9435017  98.9809987  40.7595006  33.9435017
  97.7839987  41.6865006  33.9435017 103.0639987  40.9795006  36.3865017
 104.0209987  40.9795006  36.3865017 102.8239987  41.9065006  36.3865017
 104.9369987  56.0505006  34.7955017 105.8939987  56.0505006  34.7955017
 104.6969987  56.9775006  34.7955017  97.2919987  39.5935006  49.1745017
  98.2489987  39.5935006  49.1745017  97.0519987  40.5205006  49.1745017
  99.2949987  38.9675006  50.7885017 100.2519987  38.9675006  50.7885017
  99.0549987  39.8945006  50.7885017  97.8739987  55.7075006  33.4075017
  98.8309987  55.7075006  33.4075017  97.6339987  56.6345006  33.4075017
  -0.0890013  38.3305006  50.9855017   0.8679987  38.3305006  50.9855017
  -0.3290013  39.2575006  50.9855017  12.1989987  67.0475006  39.5965017
  13.1559987  67.0475006  39.5965017  11.9589987  67.9745006  39.5965017
  11.0709987  66.3165006  43.0815017  12.0279987  66.3165006  43.0815017
  10.8309987  67.2435006  43.0815017   3.4769987  65.9475006  44.6105017
   4.4339987  65.9475006  44.6105017   3.2369987  66.8745006  44.6105017
  14.7709987  69.2555006  41.3575017  15.7279987  69.2555006  41.3575017
  14.5309987  70.1825006  41.3575017   4.3399987  70.4175006  43.1625017
   5.2969987  70.4175006  43.1625017   4.0999987  71.3445006  43.1625017
   1.0659987  64.0945006  38.5655017   2.0229987  64.0945006  38.5655017
   0.8259987  65.0215006  38.5655017   1.6879987  66.1855006  40.7435017
   2.6449987  66.1855006  40.7435017   1.4479987  67.1125006  40.7435017
  11.8829987  74.4055006  41.5945017  12.8399987  74.4055006  41.5945017
  11.6429987  75.3325006  41.5945017   9.4479987  68.7225006  43.5235017
  10.4049987  68.7225006  43.5235017   9.2079987  69.6495006  43.5235017
  18.0799987  60.3365006  44.2935017  19.0369987  60.3365006  44.2935017
  17.8399987  61.2635006  44.2935017  12.6139987  63.1735006  43.8475017
  13.5709987  63.1735006  43.8475017  12.3739987  64.1005006  43.8475017
   5.7359987  61.2565006  41.0705017   6.6929987  61.2565006  41.0705017
   5.4959987  62.1835006  41.0705017  13.4909987  61.3435006  39.4565017
  14.4479987  61.3435006  39.4565017  13.2509987  62.2705006  39.4565017
   2.5409987  63.7155006  41.7215017   3.4979987  63.7155006  41.7215017
   2.3009987  64.6425006  41.7215017   7.5189987  65.2255006  41.1055017
   8.4759987  65.2255006  41.1055017   7.2789987  66.1525006  41.1055017
  18.5289987  61.8095006  46.5445017  19.4859987  61.8095006  46.5445017
  18.2889987  62.7365006  46.5445017   4.6289987  60.1675006  45.1375017
   5.5859987  60.1675006  45.1375017   4.3889987  61.0945006  45.1375017
  11.9379987  69.6515006  38.6705017  12.8949987  69.6515006  38.6705017
  11.6979987  70.5785006  38.6705017   7.1539987  67.8095006  45.3825017
   8.1109987  67.8095006  45.3825017   6.9139987  68.7365006  45.3825017
  15.3919987  60.6075006  41.3945017  16.3489987  60.6075006  41.3945017
  15.1519987  61.5345006  41.3945017   4.2039987  62.0025006  43.1525017
   5.1609987  62.0025006  43.1525017   3.9639987  62.9295006  43.1525017
   5.5929987  69.7985006  46.1865017   6.5499987  69.7985006  46.1865017
   5.3529987  70.7255006  46.1865017   1.7039987  69.4525006  36.9545017
   2.6609987  69.4525006  36.9545017   1.4639987  70.3795006  36.9545017
  15.2939987  71.0905006  43.7275017  16.2509987  71.0905006  43.7275017
  15.0539987  72.0175006  43.7275017  15.6049987  59.3795006  45.1025017
  16.5619987  59.3795006  45.1025017  15.3649987  60.3065006  45.1025017
   8.5889987  57.4905006  42.5835017   9.5459987  57.4905006  42.5835017
   8.3489987  58.4175006  42.5835017  13.5459987  72.8755006  40.3305017
  14.5029987  72.8755006  40.3305017  13.3059987  73.8025006  40.3305017
  14.7479987  70.8025006  38.8375017  15.7049987  70.8025006  38.8375017
  14.5079987  71.7295006  38.8375017  16.3839987  69.3835006  47.3325017
  17.3409987  69.3835006  47.3325017  16.1439987  70.3105006  47.3325017
  10.8749987  66.2915006  37.1055017  11.8319987  66.2915006  37.1055017
  10.6349987  67.2185006  37.1055017  10.9349987  64.8275006  34.1145017
  11.8919987  64.8275006  34.1145017  10.6949987  65.7545006  34.1145017
  18.2589987  65.6975006  45.3855017  19.2159987  65.6975006  45.3855017
  18.0189987  66.6245006  45.3855017  14.3099987  66.5125006  38.0235017
  15.2669987  66.5125006  38.0235017  14.0699987  67.4395006  38.0235017
  14.2359987  64.6665006  47.1295017  15.1929987  64.6665006  47.1295017
  13.9959987  65.5935006  47.1295017   5.9519987  67.1765006  39.9325017
   6.9089987  67.1765006  39.9325017   5.7119987  68.1035006  39.9325017
   7.2599987  70.5615006  42.6125017   8.2169987  70.5615006  42.6125017
   7.0199987  71.4885006  42.6125017   6.2839987  65.9095006  43.5845017
   7.2409987  65.9095006  43.5845017   6.0439987  66.8365006  43.5845017
  12.6449987  71.4705006  44.2885017  13.6019987  71.4705006  44.2885017
  12.4049987  72.3975006  44.2885017   7.1979987  70.3235006  48.3015017
   8.1549987  70.3235006  48.3015017   6.9579987  71.2505006  48.3015017
  13.1769987  65.6915006  35.6945017  14.1339987  65.6915006  35.6945017
  12.9369987  66.6185006  35.6945017   4.1239987  66.4995006  47.4785017
   5.0809987  66.4995006  47.4785017   3.8839987  67.4265006  47.4785017
  10.8989987  72.4185006  39.1575017  11.8559987  72.4185006  39.1575017
  10.6589987  73.3455006  39.1575017   5.4439987  72.3565006  49.0635017
   6.4009987  72.3565006  49.0635017   5.2039987  73.2835006  49.0635017
   4.9259987  66.2015006  37.5495017   5.8829987  66.2015006  37.5495017
   4.6859987  67.1285006  37.5495017  18.0139987  71.7915006  33.9065017
  18.9709987  71.7915006  33.9065017  17.7739987  72.7185006  33.9065017
   1.1249987  68.5855006  46.3655017   2.0819987  68.5855006  46.3655017
   0.8849987  69.5125006  46.3655017   1.0109987  71.4805006  42.9425017
   1.9679987  71.4805006  42.9425017   0.7709987  72.4075006  42.9425017
  18.9889987  72.0475006  48.9055017  19.9459987  72.0475006  48.9055017
  18.7489987  72.9745006  48.9055017   9.9529987  71.5895006  47.7635017
  10.9099987  71.5895006  47.7635017   9.7129987  72.5165006  47.7635017
  10.3789987  75.3405006  37.5745017  11.3359987  75.3405006  37.5745017
  10.1389987  76.2675006  37.5745017   4.0239987  74.1905006  39.3665017
   4.9809987  74.1905006  39.3665017   3.7839987  75.1175006  39.3665017
  13.4399987  74.5525006  34.5595017  14.3969987  74.5525006  34.5595017
  13.1999987  75.4795006  34.5595017  13.1399987  74.4745006  37.3235017
  14.0969987  74.4745006  37.3235017  12.8999987  75.4015006  37.3235017
  16.1289987  63.5215006  49.3865017  17.0859987  63.5215006  49.3865017
  15.8889987  64.4485006  49.3865017   3.2629987  69.9565006  47.3975017
   4.2199987  69.9565006  47.3975017   3.0229987  70.8835006  47.3975017
   5.9369987  58.3975006  43.3355017   6.8939987  58.3975006  43.3355017
   5.6969987  59.3245006  43.3355017  10.5829987  58.0915006  46.7145017
  11.5399987  58.0915006  46.7145017  10.3429987  59.0185006  46.7145017
  13.8859987  61.8945006  47.5925017  14.8429987  61.8945006  47.5925017
  13.6459987  62.8215006  47.5925017  14.6179987  66.7525006  33.4325017
  15.5749987  66.7525006  33.4325017  14.3779987  67.6795006  33.4325017
  10.2349987  60.6375006  34.0085017  11.1919987  60.6375006  34.0085017
   9.9949987  61.5645006  34.0085017   6.0449987  63.3595006  44.5575017
   7.0019987  63.3595006  44.5575017   5.8049987  64.2865006  44.5575017
   5.9849987  63.5165006  39.4365017   6.9419987  63.5165006  39.4365017
   5.7449987  64.4435006  39.4365017  11.5279987  63.9855006  38.2295017
  12.4849987  63.9855006  38.2295017  11.2879987  64.9125006  38.2295017
  10.5989987  64.1935006  49.6665017  11.5559987  64.1935006  49.6665017
  10.3589987  65.1205006  49.6665017  12.5529987  63.4685006  41.0575017
  13.5099987  63.4685006  41.0575017  12.3129987  64.3955006  41.0575017
   3.7039987  63.6345006  46.2965017   4.6609987  63.6345006  46.2965017
   3.4639987  64.5615006  46.2965017   7.0789987  61.0245006  33.1175017
   8.0359987  61.0245006  33.1175017   6.8389987  61.9515006  33.1175017
   0.4279987  60.0575006  40.5675017   1.3849987  60.0575006  40.5675017
   0.1879987  60.9845006  40.5675017   1.8019987  61.4675006  35.7065017
   2.7589987  61.4675006  35.7065017   1.5619987  62.3945006  35.7065017
  11.7689987  65.0715006  45.6425017  12.7259987  65.0715006  45.6425017
  11.5289987  65.9985006  45.6425017   8.5609987  61.0285006  40.4585017
   9.5179987  61.0285006  40.4585017   8.3209987  61.9555006  40.4585017
   3.3929987  62.5805006  39.3085017   4.3499987  62.5805006  39.3085017
   3.1529987  63.5075006  39.3085017   7.0239987  62.6295006  36.9435017
   7.9809987  62.6295006  36.9435017   6.7839987  63.5565006  36.9435017
  12.9839987  60.2465006  43.6955017  13.9409987  60.2465006  43.6955017
  12.7439987  61.1735006  43.6955017   5.7079987  63.8225006  34.5315017
   6.6649987  63.8225006  34.5315017   5.4679987  64.7495006  34.5315017
  16.1869987  75.9155006  50.0215017  17.1439987  75.9155006  50.0215017
  15.9469987  76.8425006  50.0215017   3.8609987  68.3835006  49.6075017
   4.8179987  68.3835006  49.6075017   3.6209987  69.3105006  49.6075017
   9.8569987  63.7945006  42.3525017  10.8139987  63.7945006  42.3525017
   9.6169987  64.7215006  42.3525017   4.8559987  59.9465006  38.7695017
   5.8129987  59.9465006  38.7695017   4.6159987  60.8735006  38.7695017
   8.4939987  62.1335006  44.7645017   9.4509987  62.1335006  44.7645017
   8.2539987  63.0605006  44.7645017   9.0829987  68.3595006  36.4565017
  10.0399987  68.3595006  36.4565017   8.8429987  69.2865006  36.4565017
  16.2429987  67.5335006  45.2625017  17.1999987  67.5335006  45.2625017
  16.0029987  68.4605006  45.2625017  12.9149987  61.1725006  34.6455017
  13.8719987  61.1725006  34.6455017  12.6749987  62.0995006  34.6455017
  10.5669987  68.5975006  47.6985017  11.5239987  68.5975006  47.6985017
  10.3269987  69.5245006  47.6985017  13.6409987  63.0835006  36.2885017
  14.5979987  63.0835006  36.2885017  13.4009987  64.0105006  36.2885017
   4.1839987  67.7315006  42.2575017   5.1409987  67.7315006  42.2575017
   3.9439987  68.6585006  42.2575017  11.1849987  69.8255006  35.4875017
  12.1419987  69.8255006  35.4875017  10.9449987  70.7525006  35.4875017
   1.1629987  66.1505006  47.5365017   2.1199987  66.1505006  47.5365017
   0.9229987  67.0775006  47.5365017   8.1899987  65.7045006  49.7195017
   9.1469987  65.7045006  49.7195017   7.9499987  66.6315006  49.7195017
  12.8599987  71.0335006  47.6415017  13.8169987  71.0335006  47.6415017
  12.6199987  71.9605006  47.6415017  18.5149987  63.2535006  36.0515017
  19.4719987  63.2535006  36.0515017  18.2749987  64.1805006  36.0515017
  18.5279987  69.0865006  48.8595017  19.4849987  69.0865006  48.8595017
  18.2879987  70.0135006  48.8595017  16.8149987  72.0545006  36.4465017
  17.7719987  72.0545006  36.4465017  16.5749987  72.9815006  36.4465017
  14.0339987  66.8695006  43.5375017  14.9909987  66.8695006  43.5375017
  13.7939987  67.7965006  43.5375017   6.5689987  71.1845006  39.6405017
   7.5259987  71.1845006  39.6405017   6.3289987  72.1115006  39.6405017
   2.2869987  66.0315006  34.2395017   3.2439987  66.0315006  34.2395017
   2.0469987  66.9585006  34.2395017   7.9829987  68.8575006  39.1675017
   8.9399987  68.8575006  39.1675017   7.7429987  69.7845006  39.1675017
   8.4309987  73.0375006  45.5595017   9.3879987  73.0375006  45.5595017
   8.1909987  73.9645006  45.5595017   6.6749987  73.8395006  38.7365017
   7.6319987  73.8395006  38.7365017   6.4349987  74.7665006  38.7365017
  11.9779987  69.0655006  45.1995017  12.9349987  69.0655006  45.1995017
  11.7379987  69.9925006  45.1995017  14.2639987  70.1025006  34.2615017
  15.2209987  70.1025006  34.2615017  14.0239987  71.0295006  34.2615017
  14.7449987  73.6355006  47.6945017  15.7019987  73.6355006  47.6945017
  14.5049987  74.5625006  47.6945017  18.7499987  74.4705006  34.5255017
  19.7069987  74.4705006  34.5255017  18.5099987  75.3975006  34.5255017
   2.8079987  60.8835006  47.0815017   3.7649987  60.8835006  47.0815017
   2.5679987  61.8105006  47.0815017  15.0679987  68.7455006  36.5145017
  16.0249987  68.7455006  36.5145017  14.8279987  69.6725006  36.5145017
   2.4749987  72.6845006  45.4885017   3.4319987  72.6845006  45.4885017
   2.2349987  73.6115006  45.4885017   8.3929987  71.1845006  32.7615017
   9.3499987  71.1845006  32.7615017   8.1529987  72.1115006  32.7615017
   7.2229987  70.7225006  35.2145017   8.1799987  70.7225006  35.2145017
   6.9829987  71.6495006  35.2145017   3.6929987  67.9465006  35.6965017
   4.6499987  67.9465006  35.6965017   3.4529987  68.8735006  35.6965017
  11.5569987  60.6485006  46.0125017  12.5139987  60.6485006  46.0125017
  11.3169987  61.5755006  46.0125017  12.3149987  60.2335006  37.1055017
  13.2719987  60.2335006  37.1055017  12.0749987  61.1605006  37.1055017
   9.9959987  72.3885006  35.9375017  10.9529987  72.3885006  35.9375017
   9.7559987  73.3155006  35.9375017   9.5319987  61.9895006  37.9315017
  10.4889987  61.9895006  37.9315017   9.2919987  62.9165006  37.9315017
  10.0829987  62.9995006  47.1195017  11.0399987  62.9995006  47.1195017
   9.8429987  63.9265006  47.1195017  10.3839987  59.0475006  38.8405017
  11.3409987  59.0475006  38.8405017  10.1439987  59.9745006  38.8405017
   7.4079987  73.4135006  35.9545017   8.3649987  73.4135006  35.9545017
   7.1679987  74.3405006  35.9545017   6.0499987  60.1405006  35.5345017
   7.0069987  60.1405006  35.5345017   5.8099987  61.0675006  35.5345017
  16.2849987  60.8935006  47.9655017  17.2419987  60.8935006  47.9655017
  16.0449987  61.8205006  47.9655017  14.8749987  64.6635006  41.9995017
  15.8319987  64.6635006  41.9995017  14.6349987  65.5905006  41.9995017
   4.2959987  70.5625006  34.5905017   5.2529987  70.5625006  34.5905017
   4.0559987  71.4895006  34.5905017   2.5799987  63.2615006  33.7635017
   3.5369987  63.2615006  33.7635017   2.3399987  64.1885006  33.7635017
  15.9419987  73.9085006  43.6605017  16.8989987  73.9085006  43.6605017
  15.7019987  74.8355006  43.6605017   3.4639987  58.0385006  42.4285017
   4.4209987  58.0385006  42.4285017   3.2239987  58.9655006  42.4285017
   2.3859987  71.9625006  38.6055017   3.3429987  71.9625006  38.6055017
   2.1459987  72.8895006  38.6055017   1.7129987  74.5545006  49.8175017
   2.6699987  74.5545006  49.8175017   1.4729987  75.4815006  49.8175017
   6.2699987  73.8075006  51.2225017   7.2269987  73.8075006  51.2225017
   6.0299987  74.7345006  51.2225017  10.3939987  73.0465006  32.8985017
  11.3509987  73.0465006  32.8985017  10.1539987  73.9735006  32.8985017
  12.8009987  71.9075006  50.2395017  13.7579987  71.9075006  50.2395017
  12.5609987  72.8345006  50.2395017  14.9529987  72.7745006  33.0575017
  15.9099987  72.7745006  33.0575017  14.7129987  73.7015006  33.0575017
   1.5089987  68.3945006  50.8785017   2.4659987  68.3945006  50.8785017
   1.2689987  69.3215006  50.8785017   5.8689987  68.7235006  32.9245017
   6.8259987  68.7235006  32.9245017   5.6289987  69.6505006  32.9245017
   8.2139987  68.3785006  50.2815017   9.1709987  68.3785006  50.2815017
   7.9739987  69.3055006  50.2815017  11.3059987  69.8295006  32.6835017
  12.2629987  69.8295006  32.6835017  11.0659987  70.7565006  32.6835017
  13.9349987  68.2405006  47.6605017  14.8919987  68.2405006  47.6605017
  13.6949987  69.1675006  47.6605017   2.3639987  65.5915006  50.2545017
   3.3209987  65.5915006  50.2545017   2.1239987  66.5185006  50.2545017
   7.0649987  66.7395006  35.3145017   8.0219987  66.7395006  35.3145017
   6.8249987  67.6665006  35.3145017   6.3379987  64.5675006  47.6305017
   7.2949987  64.5675006  47.6305017   6.0979987  65.4945006  47.6305017
   8.1319987  64.9615006  33.5355017   9.0889987  64.9615006  33.5355017
   7.8919987  65.8885006  33.5355017  11.3939987  67.1085006  50.9485017
  12.3509987  67.1085006  50.9485017  11.1539987  68.0355006  50.9485017
  17.4689987  67.3075006  32.9635017  18.4259987  67.3075006  32.9635017
  17.2289987  68.2345006  32.9635017   6.7329987  61.9405006  48.6975017
   7.6899987  61.9405006  48.6975017   6.4929987  62.8675006  48.6975017
   7.1309987  60.3185006  46.2295017   8.0879987  60.3185006  46.2295017
   6.8909987  61.2455006  46.2295017   8.6809987  65.7865006  46.4765017
   9.6379987  65.7865006  46.4765017   8.4409987  66.7135006  46.4765017
  13.0789987  63.5635006  51.4495017  14.0359987  63.5635006  51.4495017
  12.8389987  64.4905006  51.4495017  14.4059987  66.3545006  49.5925017
  15.3629987  66.3545006  49.5925017  14.1659987  67.2815006  49.5925017
   5.1809987  63.1905006  50.6055017   6.1379987  63.1905006  50.6055017
   4.9409987  64.1175006  50.6055017   7.9139987  57.7635006  46.6405017
   8.8709987  57.7635006  46.6405017   7.6739987  58.6905006  46.6405017
   9.1989987  62.0855006  50.2315017  10.1559987  62.0855006  50.2315017
   8.9589987  63.0125006  50.2315017  11.9109987  61.2225006  49.3075017
  12.8679987  61.2225006  49.3075017  11.6709987  62.1495006  49.3075017
  13.5009987  59.8625006  51.2565017  14.4579987  59.8625006  51.2565017
  13.2609987  60.7895006  51.2565017   3.3269987  61.1145006  50.3525017
   4.2839987  61.1145006  50.3525017   3.0869987  62.0415006  50.3525017
   8.1389987  57.1215006  49.3275017   9.0959987  57.1215006  49.3275017
   7.8989987  58.0485006  49.3275017   8.5019987  58.7575006  51.4175017
   9.4589987  58.7575006  51.4175017   8.2619987  59.6845006  51.4175017
   8.0039987  75.6405006  34.5865017   8.9609987  75.6405006  34.5865017
   7.7639987  76.5675006  34.5865017   1.5929987  70.2705006  34.0525017
   2.5499987  70.2705006  34.0525017   1.3529987  71.1975006  34.0525017
 108.0719987  75.6995006  39.0875017 109.0289987  75.6995006  39.0875017
 107.8319987  76.6265006  39.0875017   1.5129987  73.9105006  41.0215017
   2.4699987  73.9105006  41.0215017   1.2729987  74.8375006  41.0215017
  18.6609987  74.5595006  43.8615017  19.6179987  74.5595006  43.8615017
  18.4209987  75.4865006  43.8615017  18.2369987  74.1565006  46.8035017
  19.1939987  74.1565006  46.8035017  17.9969987  75.0835006  46.8035017
  16.6829987  69.8875006  51.4595017  17.6399987  69.8875006  51.4595017
  16.4429987  70.8145006  51.4595017  17.9599987  68.2145006  36.9335017
  18.9169987  68.2145006  36.9335017  17.7199987  69.1415006  36.9335017
  18.3869987  66.2475006  38.7755017  19.3439987  66.2475006  38.7755017
  18.1469987  67.1745006  38.7755017  18.1199987  68.9865006  43.7655017
  19.0769987  68.9865006  43.7655017  17.8799987  69.9135006  43.7655017
  16.6659987  71.8835006  46.0465017  17.6229987  71.8835006  46.0465017
  16.4259987  72.8105006  46.0465017  18.5519987  66.0695006  35.2085017
  19.5089987  66.0695006  35.2085017  18.3119987  66.9965006  35.2085017
  16.9919987  63.3495006  33.7085017  17.9489987  63.3495006  33.7085017
  16.7519987  64.2765006  33.7085017  16.1609987  64.7695006  39.3465017
  17.1179987  64.7695006  39.3465017  15.9209987  65.6965006  39.3465017
   1.1829987  66.8265006  43.4095017   2.1399987  66.8265006  43.4095017
   0.9429987  67.7535006  43.4095017  17.0289987  66.7235006  49.0255017
  17.9859987  66.7235006  49.0255017  16.7889987  67.6505006  49.0255017
  18.5369987  64.6165006  49.6915017  19.4939987  64.6165006  49.6915017
  18.2969987  65.5435006  49.6915017  16.2469987  60.8335006  32.8615017
  17.2039987  60.8335006  32.8615017  16.0069987  61.7605006  32.8615017
  15.8479987  62.3325006  37.7955017  16.8049987  62.3325006  37.7955017
  15.6079987  63.2595006  37.7955017  16.4829987  62.8605006  43.2425017
  17.4399987  62.8605006  43.2425017  16.2429987  63.7875006  43.2425017
  16.5509987  63.6105006  46.0365017  17.5079987  63.6105006  46.0365017
  16.3109987  64.5375006  46.0365017   0.8829987  62.0975006  49.4675017
   1.8399987  62.0975006  49.4675017   0.6429987  63.0245006  49.4675017
  18.8519987  57.6495006  51.3935017  19.8089987  57.6495006  51.3935017
  18.6119987  58.5765006  51.3935017   2.0859987  60.4565006  42.3995017
   3.0429987  60.4565006  42.3995017   1.8459987  61.3835006  42.3995017
   0.8909987  63.3885006  43.6125017   1.8479987  63.3885006  43.6125017
   0.6509987  64.3155006  43.6125017  18.3529987  59.7245006  49.7415017
  19.3099987  59.7245006  49.7415017  18.1129987  60.6515006  49.7415017
  18.3049987  59.7875006  34.3155017  19.2619987  59.7875006  34.3155017
  18.0649987  60.7145006  34.3155017   0.8919987  59.6335006  37.5435017
   1.8489987  59.6335006  37.5435017   0.6519987  60.5605006  37.5435017
  15.3849987  74.6405006  39.4795017  16.3419987  74.6405006  39.4795017
  15.1449987  75.5675006  39.4795017 108.3279987  58.3465006  45.8595017
 109.2849987  58.3465006  45.8595017 108.0879987  59.2735006  45.8595017
   2.8289987  71.5905006  50.0225017   3.7859987  71.5905006  50.0225017
   2.5889987  72.5175006  50.0225017   5.7329987  72.5475006  46.2675017
   6.6899987  72.5475006  46.2675017   5.4929987  73.4745006  46.2675017
  10.0479987  73.9665006  49.1915017  11.0049987  73.9665006  49.1915017
   9.8079987  74.8935006  49.1915017  12.3539987  75.2405006  48.4715017
  13.3109987  75.2405006  48.4715017  12.1139987  76.1675006  48.4715017
  17.3589987  57.8675006  47.5715017  18.3159987  57.8675006  47.5715017
  17.1189987  58.7945006  47.5715017   3.1509987  75.8035006  46.2985017
   4.1079987  75.8035006  46.2985017   2.9109987  76.7305006  46.2985017
   5.6469987  75.3845006  45.3425017   6.6039987  75.3845006  45.3425017
   5.4069987  76.3115006  45.3425017  10.3339987  75.2835006  44.5035017
  11.2909987  75.2835006  44.5035017  10.0939987  76.2105006  44.5035017
  12.6419987  74.1145006  45.5035017  13.5989987  74.1145006  45.5035017
  12.4019987  75.0415006  45.5035017  15.2239987  75.6825006  45.7615017
  16.1809987  75.6825006  45.7615017  14.9839987  76.6095006  45.7615017
   2.6369987  74.4615006  43.2625017   3.5939987  74.4615006  43.2625017
   2.3969987  75.3885006  43.2625017   4.6819987  73.1515006  41.8585017
   5.6389987  73.1515006  41.8585017   4.4419987  74.0785006  41.8585017
   7.2689987  73.6315006  42.7305017   8.2259987  73.6315006  42.7305017
   7.0289987  74.5585006  42.7305017  10.7579987  59.2815006  41.8775017
  11.7149987  59.2815006  41.8775017  10.5179987  60.2085006  41.8775017
  15.8959987  57.3395006  41.9275017  16.8529987  57.3395006  41.9275017
  15.6559987  58.2665006  41.9275017   3.1309987  57.9135006  39.6685017
   4.0879987  57.9135006  39.6685017   2.8909987  58.8405006  39.6685017
   1.9419987  57.6695006  35.5105017   2.8989987  57.6695006  35.5105017
   1.7019987  58.5965006  35.5105017   7.6149987  57.8375006  39.5015017
   8.5719987  57.8375006  39.5015017   7.3749987  58.7645006  39.5015017
  13.3269987  57.8515006  41.1365017  14.2839987  57.8515006  41.1365017
  13.0869987  58.7785006  41.1365017  14.5959987  57.8955006  36.8905017
  15.5529987  57.8955006  36.8905017  14.3559987  58.8225006  36.8905017
   1.8959987  73.6315006  36.4595017   2.8529987  73.6315006  36.4595017
   1.6559987  74.5585006  36.4595017   3.7349987  59.6245006  33.9455017
   4.6919987  59.6245006  33.9455017   3.4949987  60.5515006  33.9455017
   8.7609987  59.8705006  36.3595017   9.7179987  59.8705006  36.3595017
   8.5209987  60.7975006  36.3595017  10.6789987  74.9045006  34.8075017
  11.6359987  74.9045006  34.8075017  10.4389987  75.8315006  34.8075017
  17.3929987  74.4245006  37.5075017  18.3499987  74.4245006  37.5075017
  17.1529987  75.3515006  37.5075017   2.9949987  58.4515006  49.1695017
   3.9519987  58.4515006  49.1695017   2.7549987  59.3785006  49.1695017
   5.0119987  57.8305006  50.7865017   5.9689987  57.8305006  50.7865017
   4.7719987  58.7575006  50.7865017   3.4879987  74.1885006  33.2485017
   4.4449987  74.1885006  33.2485017   3.2479987  75.1155006  33.2485017
  13.4229987  57.1445006  50.9555017  14.3799987  57.1445006  50.9555017
  13.1829987  58.0715006  50.9555017  16.6249987  73.1685006  49.6055017
  17.5819987  73.1685006  49.6055017  16.3849987  74.0955006  49.6055017
  22.2929987  65.9825006  44.6355017  23.2499987  65.9825006  44.6355017
  22.0529987  66.9095006  44.6355017  23.2309987  70.4135006  43.1635017
  24.1879987  70.4135006  43.1635017  22.9909987  71.3405006  43.1635017
  19.8239987  63.9835006  38.6615017  20.7809987  63.9835006  38.6615017
  19.5839987  64.9105006  38.6615017  20.5779987  66.2355006  40.7435017
  21.5349987  66.2355006  40.7435017  20.3379987  67.1625006  40.7435017
  21.2369987  63.6595006  41.8205017  22.1939987  63.6595006  41.8205017
  20.9969987  64.5865006  41.8205017  26.0059987  67.7975006  45.4065017
  26.9629987  67.7975006  45.4065017  25.7659987  68.7245006  45.4065017
  24.4309987  69.8025006  46.1935017  25.3879987  69.8025006  46.1935017
  24.1909987  70.7295006  46.1935017  20.5139987  69.4475006  37.0055017
  21.4709987  69.4475006  37.0055017  20.2739987  70.3745006  37.0055017
  26.0569987  70.3285006  48.2645017  27.0139987  70.3285006  48.2645017
  25.8169987  71.2555006  48.2645017  22.9939987  66.5005006  47.4735017
  23.9509987  66.5005006  47.4735017  22.7539987  67.4275006  47.4735017
  24.3129987  72.3845006  49.0445017  25.2699987  72.3845006  49.0445017
  24.0729987  73.3115006  49.0445017  19.8509987  68.6035006  46.4145017
  20.8079987  68.6035006  46.4145017  19.6109987  69.5305006  46.4145017
  19.6089987  71.3485006  43.2175017  20.5659987  71.3485006  43.2175017
  19.3689987  72.2755006  43.2175017  28.7889987  71.5985006  47.7515017
  29.7459987  71.5985006  47.7515017  28.5489987  72.5255006  47.7515017
  22.8589987  74.2345006  39.4015017  23.8159987  74.2345006  39.4015017
  22.6189987  75.1615006  39.4015017  22.1099987  69.9375006  47.3875017
  23.0669987  69.9375006  47.3875017  21.8699987  70.8645006  47.3875017
  24.6719987  63.2665006  44.4875017  25.6289987  63.2665006  44.4875017
  24.4319987  64.1935006  44.4875017  22.5619987  63.6375006  46.2955017
  23.5189987  63.6375006  46.2955017  22.3219987  64.5645006  46.2955017
  20.4629987  61.5085006  35.5625017  21.4199987  61.5085006  35.5625017
  20.2229987  62.4355006  35.5625017  35.0459987  75.9585006  50.0115017
  36.0029987  75.9585006  50.0115017  34.8059987  76.8855006  50.0115017
  22.7069987  68.3885006  49.5935017  23.6639987  68.3885006  49.5935017
  22.4669987  69.3155006  49.5935017  29.4359987  68.5695006  47.6875017
  30.3929987  68.5695006  47.6875017  29.1959987  69.4965006  47.6875017
  23.0399987  67.6915006  42.2465017  23.9969987  67.6915006  42.2465017
  22.7999987  68.6185006  42.2465017  20.0329987  66.1475006  47.5295017
  20.9899987  66.1475006  47.5295017  19.7929987  67.0745006  47.5295017
  27.0869987  65.7225006  49.7115017  28.0439987  65.7225006  49.7115017
  26.8469987  66.6495006  49.7115017  31.7069987  70.9735006  47.6805017
  32.6639987  70.9735006  47.6805017  31.4669987  71.9005006  47.6805017
  27.2889987  73.0255006  45.5445017  28.2459987  73.0255006  45.5445017
  27.0489987  73.9525006  45.5445017  30.8739987  69.1075006  45.2185017
  31.8309987  69.1075006  45.2185017  30.6339987  70.0345006  45.2185017
  21.6949987  60.8765006  47.0805017  22.6519987  60.8765006  47.0805017
  21.4549987  61.8035006  47.0805017  21.3159987  72.6795006  45.5015017
  22.2729987  72.6795006  45.5015017  21.0759987  73.6065006  45.5015017
  21.2149987  71.9665006  38.5965017  22.1719987  71.9665006  38.5965017
  20.9749987  72.8935006  38.5965017  20.4759987  74.6055006  49.8865017
  21.4329987  74.6055006  49.8865017  20.2359987  75.5325006  49.8865017
  25.1349987  73.5355006  51.4965017  26.0919987  73.5355006  51.4965017
  24.8949987  74.4625006  51.4965017  20.3879987  68.3915006  50.8785017
  21.3449987  68.3915006  50.8785017  20.1479987  69.3185006  50.8785017
  27.0919987  68.3775006  50.2635017  28.0489987  68.3775006  50.2635017
  26.8519987  69.3045006  50.2635017  32.8459987  68.2595006  47.7115017
  33.8029987  68.2595006  47.7115017  32.6059987  69.1865006  47.7115017
  21.2849987  65.6125006  50.2655017  22.2419987  65.6125006  50.2655017
  21.0449987  66.5395006  50.2655017  25.2349987  64.5745006  47.6225017
  26.1919987  64.5745006  47.6225017  24.9949987  65.5015006  47.6225017
  30.2699987  67.0075006  50.8455017  31.2269987  67.0075006  50.8455017
  30.0299987  67.9345006  50.8455017  25.5539987  61.9545006  48.6895017
  26.5109987  61.9545006  48.6895017  25.3139987  62.8815006  48.6895017
  33.3139987  66.4175006  49.6065017  34.2709987  66.4175006  49.6065017
  33.0739987  67.3445006  49.6065017  24.0549987  63.1765006  50.6175017
  25.0119987  63.1765006  50.6175017  23.8149987  64.1035006  50.6175017
  22.1499987  61.1065006  50.3245017  23.1069987  61.1065006  50.3245017
  21.9099987  62.0335006  50.3245017  20.4319987  70.2815006  34.0505017
  21.3889987  70.2815006  34.0505017  20.1919987  71.2085006  34.0505017
  19.1429987  75.6465006  39.0615017  20.0999987  75.6465006  39.0615017
  18.9029987  76.5735006  39.0615017  19.9839987  73.7675006  40.9075017
  20.9409987  73.7675006  40.9075017  19.7439987  74.6945006  40.9075017
  35.8739987  63.3725006  33.7145017  36.8309987  63.3725006  33.7145017
  35.6339987  64.2995006  33.7145017  20.0469987  66.8475006  43.3835017
  21.0039987  66.8475006  43.3835017  19.8069987  67.7745006  43.3835017
  19.6359987  62.1435006  49.5595017  20.5929987  62.1435006  49.5595017
  19.3959987  63.0705006  49.5595017  19.1499987  63.4255006  43.4495017
  20.1069987  63.4255006  43.4495017  18.9099987  64.3525006  43.4495017
  37.1739987  59.7365006  49.7315017  38.1309987  59.7365006  49.7315017
  36.9339987  60.6635006  49.7315017  19.5009987  58.3855006  45.8465017
  20.4579987  58.3855006  45.8465017  19.2609987  59.3125006  45.8465017
  21.6819987  71.5525006  49.9925017  22.6389987  71.5525006  49.9925017
  21.4419987  72.4795006  49.9925017  24.5889987  72.5325006  46.2605017
  25.5459987  72.5325006  46.2605017  24.3489987  73.4595006  46.2605017
  28.8969987  73.9585006  49.2135017  29.8539987  73.9585006  49.2135017
  28.6569987  74.8855006  49.2135017  31.2689987  75.2695006  48.4315017
  32.2259987  75.2695006  48.4315017  31.0289987  76.1965006  48.4315017
  22.0189987  75.7975006  46.2755017  22.9759987  75.7975006  46.2755017
  21.7789987  76.7245006  46.2755017  24.4849987  75.3525006  45.3215017
  25.4419987  75.3525006  45.3215017  24.2449987  76.2795006  45.3215017
  21.4399987  74.4495006  43.2185017  22.3969987  74.4495006  43.2185017
  21.1999987  75.3765006  43.2185017  23.5229987  73.1745006  41.8955017
  24.4799987  73.1745006  41.8955017  23.2829987  74.1015006  41.8955017
  26.0979987  73.5935006  42.7315017  27.0549987  73.5935006  42.7315017
  25.8579987  74.5205006  42.7315017  20.6599987  73.6445006  36.4325017
  21.6169987  73.6445006  36.4325017  20.4199987  74.5715006  36.4325017
  21.9049987  58.4405006  49.2095017  22.8619987  58.4405006  49.2095017
  21.6649987  59.3675006  49.2095017  22.4719987  74.5565006  33.4225017
  23.4289987  74.5565006  33.4225017  22.2319987  75.4835006  33.4225017
  52.9819987  60.6695006  41.3845017  53.9389987  60.6695006  41.3845017
  52.7419987  61.5965006  41.3845017  54.5899987  57.4335006  35.5885017
  55.5469987  57.4335006  35.5885017  54.3499987  58.3605006  35.5885017
  53.9619987  75.8955006  50.0055017  54.9189987  75.8955006  50.0055017
  53.7219987  76.8225006  50.0055017  48.8849987  69.8065006  35.5095017
  49.8419987  69.8065006  35.5095017  48.6449987  70.7335006  35.5095017
  49.7689987  69.1005006  45.1835017  50.7259987  69.1005006  45.1835017
  49.5289987  70.0275006  45.1835017  46.0089987  71.1895006  32.6935017
  46.9659987  71.1895006  32.6935017  45.7689987  72.1165006  32.6935017
  44.9849987  70.7105006  35.1865017  45.9419987  70.7105006  35.1865017
  44.7449987  71.6375006  35.1865017  44.8179987  66.6475006  35.0485017
  45.7749987  66.6475006  35.0485017  44.5779987  67.5745006  35.0485017
  45.7229987  75.6825006  34.6055017  46.6799987  75.6825006  34.6055017
  45.4829987  76.6095006  34.6055017  55.6579987  68.1495006  36.9515017
  56.6149987  68.1495006  36.9515017  55.4179987  69.0765006  36.9515017
  50.1779987  75.3225006  48.4375017  51.1349987  75.3225006  48.4375017
  49.9379987  76.2495006  48.4375017  55.2939987  58.5055006  40.2665017
  56.2509987  58.5055006  40.2665017  55.0539987  59.4325006  40.2665017
  50.9349987  57.8725006  41.1515017  51.8919987  57.8725006  41.1515017
  50.6949987  58.7995006  41.1515017  52.2879987  57.9115006  36.8345017
  53.2449987  57.9115006  36.8345017  52.0479987  58.8385006  36.8345017
  61.9889987  72.4185006  49.0475017  62.9459987  72.4185006  49.0475017
  61.7489987  73.3455006  49.0475017  69.5079987  61.1925006  34.6435017
  70.4649987  61.1925006  34.6435017  69.2679987  62.1195006  34.6435017
  75.1289987  63.2535006  35.9815017  76.0859987  63.2535006  35.9815017
  74.8889987  64.1805006  35.9815017  59.1959987  63.2775006  33.7075017
  60.1529987  63.2775006  33.7075017  58.9559987  64.2045006  33.7075017
  62.8449987  73.4825006  51.5025017  63.8019987  73.4825006  51.5025017
  62.6049987  74.4095006  51.5025017  74.8699987  74.1215006  46.7875017
  75.8269987  74.1215006  46.7875017  74.6299987  75.0485006  46.7875017
  75.2279987  66.1005006  35.1985017  76.1849987  66.1005006  35.1985017
  74.9879987  67.0275006  35.1985017  73.5439987  63.3585006  33.7375017
  74.5009987  63.3585006  33.7375017  73.3039987  64.2855006  33.7375017
  57.2069987  59.6675006  37.5145017  58.1639987  59.6675006  37.5145017
  56.9669987  60.5945006  37.5145017  59.3909987  71.5385006  49.9785017
  60.3479987  71.5385006  49.9785017  59.1509987  72.4655006  49.9785017
  66.6269987  74.0295006  49.2195017  67.5839987  74.0295006  49.2195017
  66.3869987  74.9565006  49.2195017  66.9419987  75.4045006  44.6245017
  67.8989987  75.4045006  44.6245017  66.7019987  76.3315006  44.6245017
  58.4139987  57.6835006  35.4265017  59.3709987  57.6835006  35.4265017
  58.1739987  58.6105006  35.4265017  73.2439987  73.2315006  49.6995017
  74.2009987  73.2315006  49.6995017  73.0039987  74.1585006  49.6995017
  90.1999987  69.2555006  41.3635017  91.1569987  69.2555006  41.3635017
  89.9599987  70.1825006  41.3635017  87.3419987  74.4335006  41.5915017
  88.2989987  74.4335006  41.5915017  87.1019987  75.3605006  41.5915017
  93.5409987  60.3215006  44.3015017  94.4979987  60.3215006  44.3015017
  93.3009987  61.2485006  44.3015017  93.9029987  61.7825006  46.5685017
  94.8599987  61.7825006  46.5685017  93.6629987  62.7095006  46.5685017
  87.4089987  69.6665006  38.6605017  88.3659987  69.6665006  38.6605017
  87.1689987  70.5935006  38.6605017  90.7469987  71.0965006  43.7125017
  91.7039987  71.0965006  43.7125017  90.5069987  72.0235006  43.7125017
  88.9809987  72.8825006  40.3295017  89.9379987  72.8825006  40.3295017
  88.7409987  73.8095006  40.3295017  90.1909987  70.8115006  38.8365017
  91.1479987  70.8115006  38.8365017  89.9509987  71.7385006  38.8365017
  91.8439987  69.4015006  47.3315017  92.8009987  69.4015006  47.3315017
  91.6039987  70.3285006  47.3315017  89.7289987  66.5225006  38.0485017
  90.6859987  66.5225006  38.0485017  89.4889987  67.4495006  38.0485017
  88.1129987  71.4565006  44.3075017  89.0699987  71.4565006  44.3075017
  87.8729987  72.3835006  44.3075017  88.6099987  65.6725006  35.7125017
  89.5669987  65.6725006  35.7125017  88.3699987  66.5995006  35.7125017
  86.3359987  72.3955006  39.1495017  87.2929987  72.3955006  39.1495017
  86.0959987  73.3225006  39.1495017  92.3339987  57.4235006  35.5575017
  93.2909987  57.4235006  35.5575017  92.0939987  58.3505006  35.5575017
  93.4469987  71.7765006  33.9305017  94.4039987  71.7765006  33.9305017
  93.2069987  72.7035006  33.9305017  94.4129987  72.0435006  48.9045017
  95.3699987  72.0435006  48.9045017  94.1729987  72.9705006  48.9045017
  85.8489987  75.3555006  37.5665017  86.8059987  75.3555006  37.5665017
  85.6089987  76.2825006  37.5665017  88.8629987  74.5435006  34.5585017
  89.8199987  74.5435006  34.5585017  88.6229987  75.4705006  34.5585017
  88.5649987  74.4675006  37.3145017  89.5219987  74.4675006  37.3145017
  88.3249987  75.3945006  37.3145017  90.0549987  66.7355006  33.4395017
  91.0119987  66.7355006  33.4395017  89.8149987  67.6625006  33.4395017
  86.9409987  63.9705006  38.2015017  87.8979987  63.9705006  38.2015017
  86.7009987  64.8975006  38.2015017  91.6179987  75.9145006  50.0245017
  92.5749987  75.9145006  50.0245017  91.3779987  76.8415006  50.0245017
  91.6659987  67.5945006  45.2715017  92.6229987  67.5945006  45.2715017
  91.4259987  68.5215006  45.2715017  88.3419987  61.1725006  34.6175017
  89.2989987  61.1725006  34.6175017  88.1019987  62.0995006  34.6175017
  89.0909987  63.0535006  36.2915017  90.0479987  63.0535006  36.2915017
  88.8509987  63.9805006  36.2915017  86.5949987  69.8265006  35.4615017
  87.5519987  69.8265006  35.4615017  86.3549987  70.7535006  35.4615017
  88.2329987  71.0215006  47.6245017  89.1899987  71.0215006  47.6245017
  87.9929987  71.9485006  47.6245017  93.9499987  63.2255006  36.0615017
  94.9069987  63.2255006  36.0615017  93.7099987  64.1525006  36.0615017
  93.9779987  69.1345006  48.8605017  94.9349987  69.1345006  48.8605017
  93.7379987  70.0615006  48.8605017  92.2479987  72.0555006  36.4545017
  93.2049987  72.0555006  36.4545017  92.0079987  72.9825006  36.4545017
  77.6829987  66.1245006  34.2385017  78.6399987  66.1245006  34.2385017
  77.4429987  67.0515006  34.2385017  87.4469987  69.0875006  45.2055017
  88.4039987  69.0875006  45.2055017  87.2069987  70.0145006  45.2055017
  89.6879987  70.1065006  34.2835017  90.6449987  70.1065006  34.2835017
  89.4479987  71.0335006  34.2835017  90.1739987  73.6335006  47.6855017
  91.1309987  73.6335006  47.6855017  89.9339987  74.5605006  47.6855017
  94.1869987  74.4755006  34.5505017  95.1439987  74.4755006  34.5505017
  93.9469987  75.4025006  34.5505017  90.4999987  68.7555006  36.5225017
  91.4569987  68.7555006  36.5225017  90.2599987  69.6825006  36.5225017
  79.1439987  67.9595006  35.7025017  80.1009987  67.9595006  35.7025017
  78.9039987  68.8865006  35.7025017  87.7419987  60.2485006  37.1105017
  88.6989987  60.2485006  37.1105017  87.5019987  61.1755006  37.1105017
  85.4899987  72.4475006  35.9855017  86.4469987  72.4475006  35.9855017
  85.2499987  73.3745006  35.9855017  84.9259987  62.0365006  37.9235017
  85.8829987  62.0365006  37.9235017  84.6859987  62.9635006  37.9235017
  91.3539987  73.9145006  43.6645017  92.3109987  73.9145006  43.6645017
  91.1139987  74.8415006  43.6645017  85.7919987  73.0195006  32.8895017
  86.7489987  73.0195006  32.8895017  85.5519987  73.9465006  32.8895017
  88.2789987  71.8665006  50.2065017  89.2359987  71.8665006  50.2065017
  88.0389987  72.7935006  50.2065017  90.3919987  72.7995006  33.0935017
  91.3489987  72.7995006  33.0935017  90.1519987  73.7265006  33.0935017
  86.6489987  69.8225006  32.6685017  87.6059987  69.8225006  32.6685017
  86.4089987  70.7495006  32.6685017  89.3599987  68.2765006  47.5775017
  90.3169987  68.2765006  47.5775017  89.1199987  69.2035006  47.5775017
  92.9109987  67.2905006  32.9645017  93.8679987  67.2905006  32.9645017
  92.6709987  68.2175006  32.9645017  88.5309987  63.5415006  51.5795017
  89.4879987  63.5415006  51.5795017  88.2909987  64.4685006  51.5795017
  87.3469987  61.2915006  49.3105017  88.3039987  61.2915006  49.3105017
  87.1069987  62.2185006  49.3105017  88.9509987  59.8735006  51.2585017
  89.9079987  59.8735006  51.2585017  88.7109987  60.8005006  51.2585017
  94.0739987  74.5635006  43.8685017  95.0309987  74.5635006  43.8685017
  93.8339987  75.4905006  43.8685017  93.6639987  74.1565006  46.8015017
  94.6209987  74.1565006  46.8015017  93.4239987  75.0835006  46.8015017
  92.1139987  69.8715006  51.4655017  93.0709987  69.8715006  51.4655017
  91.8739987  70.7985006  51.4655017  93.4149987  68.1975006  36.9135017
  94.3719987  68.1975006  36.9135017  93.1749987  69.1245006  36.9135017
  93.7719987  66.2725006  38.7895017  94.7289987  66.2725006  38.7895017
  93.5319987  67.1995006  38.7895017  93.5409987  69.0025006  43.7365017
  94.4979987  69.0025006  43.7365017  93.3009987  69.9295006  43.7365017
  92.0909987  71.8915006  46.0585017  93.0479987  71.8915006  46.0585017
  91.8509987  72.8185006  46.0585017  94.0869987  66.1115006  35.1805017
  95.0439987  66.1115006  35.1805017  93.8469987  67.0385006  35.1805017
  92.4489987  63.3485006  33.7035017  93.4059987  63.3485006  33.7035017
  92.2089987  64.2755006  33.7035017  91.5499987  64.7575006  39.3535017
  92.5069987  64.7575006  39.3535017  91.3099987  65.6845006  39.3535017
  92.4579987  66.7355006  49.1555017  93.4149987  66.7355006  49.1555017
  92.2179987  67.6625006  49.1555017  91.6789987  60.8035006  32.8465017
  92.6359987  60.8035006  32.8465017  91.4389987  61.7305006  32.8465017
  91.2949987  62.3535006  37.8005017  92.2519987  62.3535006  37.8005017
  91.0549987  63.2805006  37.8005017  94.2969987  57.6945006  51.4055017
  95.2539987  57.6945006  51.4055017  94.0569987  58.6215006  51.4055017
  92.0069987  59.6015006  37.7835017  92.9639987  59.6015006  37.7835017
  91.7669987  60.5285006  37.7835017  93.7619987  59.6655006  34.4165017
  94.7189987  59.6655006  34.4165017  93.5219987  60.5925006  34.4165017
  90.8159987  74.6405006  39.4755017  91.7729987  74.6405006  39.4755017
  90.5759987  75.5675006  39.4755017  87.8119987  75.2825006  48.4475017
  88.7689987  75.2825006  48.4475017  87.5719987  76.2095006  48.4475017
  88.0929987  74.1355006  45.4645017  89.0499987  74.1355006  45.4645017
  87.8529987  75.0625006  45.4645017  90.6569987  75.6795006  45.7575017
  91.6139987  75.6795006  45.7575017  90.4169987  76.6065006  45.7575017
  91.3259987  57.3395006  41.9835017  92.2829987  57.3395006  41.9835017
  91.0859987  58.2665006  41.9835017  92.9889987  58.5835006  40.2485017
  93.9459987  58.5835006  40.2485017  92.7489987  59.5105006  40.2485017
  90.0059987  57.8995006  36.8265017  90.9629987  57.8995006  36.8265017
  89.7659987  58.8265006  36.8265017  84.3279987  59.9375006  36.3555017
  85.2849987  59.9375006  36.3555017  84.0879987  60.8645006  36.3555017
  86.0889987  74.8765006  34.8165017  87.0459987  74.8765006  34.8165017
  85.8489987  75.8035006  34.8165017  92.8509987  74.4275006  37.5025017
  93.8079987  74.4275006  37.5025017  92.6109987  75.3545006  37.5025017
  88.9449987  57.1925006  51.0405017  89.9019987  57.1925006  51.0405017
  88.7049987  58.1195006  51.0405017  92.0599987  73.1715006  49.5975017
  93.0169987  73.1715006  49.5975017  91.8199987  74.0985006  49.5975017
 106.4689987  67.0205006  39.5665017 107.4259987  67.0205006  39.5665017
 106.2289987  67.9475006  39.5665017 105.2819987  66.3315006  43.0895017
 106.2389987  66.3315006  43.0895017 105.0419987  67.2585006  43.0895017
  97.7209987  65.9715006  44.6325017  98.6779987  65.9715006  44.6325017
  97.4809987  66.8985006  44.6325017  98.6349987  70.4245006  43.1475017
  99.5919987  70.4245006  43.1475017  98.3949987  71.3515006  43.1475017
  95.2839987  64.0005006  38.6125017  96.2409987  64.0005006  38.6125017
  95.0439987  64.9275006  38.6125017  95.9679987  66.1965006  40.7505017
  96.9249987  66.1965006  40.7505017  95.7279987  67.1235006  40.7505017
 106.1659987  74.3655006  41.5685017 107.1229987  74.3655006  41.5685017
 105.9259987  75.2925006  41.5685017 103.7009987  68.7115006  43.5155017
 104.6579987  68.7115006  43.5155017 103.4609987  69.6385006  43.5155017
 106.2239987  62.9375006  43.8085017 107.1809987  62.9375006  43.8085017
 105.9839987  63.8645006  43.8085017 100.0169987  61.2625006  41.0825017
 100.9739987  61.2625006  41.0825017  99.7769987  62.1895006  41.0825017
 107.7189987  61.8445006  39.0515017 108.6759987  61.8445006  39.0515017
 107.4789987  62.7715006  39.0515017  96.6719987  63.6795006  41.8095017
  97.6289987  63.6795006  41.8095017  96.4319987  64.6065006  41.8095017
 101.7909987  65.2315006  41.1045017 102.7479987  65.2315006  41.1045017
 101.5509987  66.1585006  41.1045017  98.8959987  60.1535006  45.1265017
  99.8529987  60.1535006  45.1265017  98.6559987  61.0805006  45.1265017
 106.2229987  69.6545006  38.6745017 107.1799987  69.6545006  38.6745017
 105.9829987  70.5815006  38.6745017 101.4369987  67.8105006  45.3815017
 102.3939987  67.8105006  45.3815017 101.1969987  68.7375006  45.3815017
  98.4739987  62.0085006  43.1475017  99.4309987  62.0085006  43.1475017
  98.2339987  62.9355006  43.1475017  99.8729987  69.8015006  46.1945017
 100.8299987  69.8015006  46.1945017  99.6329987  70.7285006  46.1945017
  95.9879987  69.4415006  36.9725017  96.9449987  69.4415006  36.9725017
  95.7479987  70.3685006  36.9725017 102.8749987  57.4915006  42.5885017
 103.8319987  57.4915006  42.5885017 102.6349987  58.4185006  42.5885017
 107.5019987  72.6985006  39.9275017 108.4589987  72.6985006  39.9275017
 107.2619987  73.6255006  39.9275017 105.1289987  66.2865006  37.0855017
 106.0859987  66.2865006  37.0855017 104.8889987  67.2135006  37.0855017
 105.1939987  64.8185006  34.1065017 106.1509987  64.8185006  34.1065017
 104.9539987  65.7455006  34.1065017 100.2099987  67.1655006  39.9315017
 101.1669987  67.1655006  39.9315017  99.9699987  68.0925006  39.9315017
 101.5389987  70.5585006  42.6165017 102.4959987  70.5585006  42.6165017
 101.2989987  71.4855006  42.6165017 100.5479987  65.9055006  43.5835017
 101.5049987  65.9055006  43.5835017 100.3079987  66.8325006  43.5835017
 106.5349987  71.4905006  44.3355017 107.4919987  71.4905006  44.3355017
 106.2949987  72.4175006  44.3355017 101.4869987  70.3295006  48.2875017
 102.4439987  70.3295006  48.2875017 101.2469987  71.2565006  48.2875017
 107.4589987  65.6745006  35.7115017 108.4159987  65.6745006  35.7115017
 107.2189987  66.6015006  35.7115017  98.4059987  66.4875006  47.4715017
  99.3629987  66.4875006  47.4715017  98.1659987  67.4145006  47.4715017
 105.0819987  72.4135006  39.1485017 106.0389987  72.4135006  39.1485017
 104.8419987  73.3405006  39.1485017  99.7259987  72.3795006  49.0415017
 100.6829987  72.3795006  49.0415017  99.4859987  73.3065006  49.0415017
  99.1819987  66.1845006  37.5445017 100.1389987  66.1845006  37.5445017
  98.9419987  67.1115006  37.5445017  95.2989987  68.6125006  46.4045017
  96.2559987  68.6125006  46.4045017  95.0589987  69.5395006  46.4045017
  95.0329987  71.3695006  43.2055017  95.9899987  71.3695006  43.2055017
  94.7929987  72.2965006  43.2055017 104.2419987  71.5905006  47.7905017
 105.1989987  71.5905006  47.7905017 104.0019987  72.5175006  47.7905017
 104.6609987  75.3415006  37.5785017 105.6179987  75.3415006  37.5785017
 104.4209987  76.2685006  37.5785017  98.3869987  74.4955006  39.7715017
  99.3439987  74.4955006  39.7715017  98.1469987  75.4225006  39.7715017
 107.6669987  74.4735006  34.5205017 108.6239987  74.4735006  34.5205017
 107.4269987  75.4005006  34.5205017 107.2329987  74.3015006  37.1855017
 108.1899987  74.3015006  37.1855017 106.9929987  75.2285006  37.1855017
  97.5529987  69.9335006  47.3875017  98.5099987  69.9335006  47.3875017
  97.3129987  70.8605006  47.3875017 100.2069987  58.3835006  43.3575017
 101.1639987  58.3835006  43.3575017  99.9669987  59.3105006  43.3575017
 104.8999987  58.0635006  46.7225017 105.8569987  58.0635006  46.7225017
 104.6599987  58.9905006  46.7225017 104.5279987  60.6345006  34.0305017
 105.4849987  60.6345006  34.0305017 104.2879987  61.5615006  34.0305017
 100.3079987  63.3545006  44.5525017 101.2649987  63.3545006  44.5525017
 100.0679987  64.2815006  44.5525017 100.2799987  63.5145006  39.4305017
 101.2369987  63.5145006  39.4305017 100.0399987  64.4415006  39.4305017
 105.7879987  63.9925006  38.2255017 106.7449987  63.9925006  38.2255017
 105.5479987  64.9195006  38.2255017 104.8989987  64.2195006  49.6995017
 105.8559987  64.2195006  49.6995017 104.6589987  65.1465006  49.6995017
 106.7849987  63.4495006  41.0495017 107.7419987  63.4495006  41.0495017
 106.5449987  64.3765006  41.0495017  98.0009987  63.6375006  46.2905017
  98.9579987  63.6375006  46.2905017  97.7609987  64.5645006  46.2905017
 101.3599987  61.0145006  33.1135017 102.3169987  61.0145006  33.1135017
 101.1199987  61.9415006  33.1135017  94.6219987  60.7635006  40.1995017
  95.5789987  60.7635006  40.1995017  94.3819987  61.6905006  40.1995017
  95.8689987  61.4475006  35.6355017  96.8259987  61.4475006  35.6355017
  95.6289987  62.3745006  35.6355017 106.0439987  65.0685006  45.6615017
 107.0009987  65.0685006  45.6615017 105.8039987  65.9955006  45.6615017
 102.8459987  61.0205006  40.4535017 103.8029987  61.0205006  40.4535017
 102.6059987  61.9475006  40.4535017  97.6579987  62.5945006  39.3275017
  98.6149987  62.5945006  39.3275017  97.4179987  63.5215006  39.3275017
 101.3139987  62.6385006  36.9585017 102.2709987  62.6385006  36.9585017
 101.0739987  63.5655006  36.9585017 107.2399987  60.2185006  43.7575017
 108.1969987  60.2185006  43.7575017 106.9999987  61.1455006  43.7575017
 100.0349987  63.9025006  34.5535017 100.9919987  63.9025006  34.5535017
  99.7949987  64.8295006  34.5535017  98.1329987  68.3765006  49.5935017
  99.0899987  68.3765006  49.5935017  97.8929987  69.3035006  49.5935017
 104.0949987  63.7875006  42.3085017 105.0519987  63.7875006  42.3085017
 103.8549987  64.7145006  42.3085017  99.1559987  59.9305006  38.8115017
 100.1129987  59.9305006  38.8115017  98.9159987  60.8575006  38.8115017
 102.7579987  62.1315006  44.7645017 103.7149987  62.1315006  44.7645017
 102.5179987  63.0585006  44.7645017 103.3649987  68.3625006  36.4525017
 104.3219987  68.3625006  36.4525017 103.1249987  69.2895006  36.4525017
 107.1599987  61.1935006  34.6465017 108.1169987  61.1935006  34.6465017
 106.9199987  62.1205006  34.6465017 104.8409987  68.5785006  47.6925017
 105.7979987  68.5785006  47.6925017 104.6009987  69.5055006  47.6925017
   0.1189987  63.1785006  36.3445017   1.0759987  63.1785006  36.3445017
  -0.1210013  64.1055006  36.3445017  98.4719987  67.7315006  42.2525017
  99.4289987  67.7315006  42.2525017  98.2319987  68.6585006  42.2525017
 105.4559987  69.8115006  35.4765017 106.4129987  69.8115006  35.4765017
 105.2159987  70.7385006  35.4765017  95.4529987  66.1535006  47.5285017
  96.4099987  66.1535006  47.5285017  95.2129987  67.0805006  47.5285017
 102.4739987  65.7025006  49.7195017 103.4309987  65.7025006  49.7195017
 102.2339987  66.6295006  49.7195017 107.1529987  71.0745006  47.6285017
 108.1099987  71.0745006  47.6285017 106.9129987  72.0015006  47.6285017
 100.8369987  71.1975006  39.6385017 101.7939987  71.1975006  39.6385017
 100.5969987  72.1245006  39.6385017  96.6119987  66.1765006  34.1285017
  97.5689987  66.1765006  34.1285017  96.3719987  67.1035006  34.1285017
 102.2589987  68.8525006  39.1675017 103.2159987  68.8525006  39.1675017
 102.0189987  69.7795006  39.1675017 102.7069987  73.0335006  45.5575017
 103.6639987  73.0335006  45.5575017 102.4669987  73.9605006  45.5575017
 100.9119987  73.8675006  38.6915017 101.8689987  73.8675006  38.6915017
 100.6719987  74.7945006  38.6915017 106.2749987  69.0435006  45.2165017
 107.2319987  69.0435006  45.2165017 106.0349987  69.9705006  45.2165017
  97.1079987  60.8695006  47.0805017  98.0649987  60.8695006  47.0805017
  96.8679987  61.7965006  47.0805017  96.7289987  72.6805006  45.5065017
  97.6859987  72.6805006  45.5065017  96.4889987  73.6075006  45.5065017
 102.6649987  71.1875006  32.7545017 103.6219987  71.1875006  32.7545017
 102.4249987  72.1145006  32.7545017 101.4639987  70.7165006  35.2265017
 102.4209987  70.7165006  35.2265017 101.2239987  71.6435006  35.2265017
  98.0159987  67.9675006  35.7225017  98.9729987  67.9675006  35.7225017
  97.7759987  68.8945006  35.7225017 105.8509987  60.6375006  46.0245017
 106.8079987  60.6375006  46.0245017 105.6109987  61.5645006  46.0245017
 106.3259987  60.4575006  37.0845017 107.2829987  60.4575006  37.0845017
 106.0859987  61.3845006  37.0845017 104.2919987  72.3845006  35.9355017
 105.2489987  72.3845006  35.9355017 104.0519987  73.3115006  35.9355017
 103.7929987  62.0105006  37.9285017 104.7499987  62.0105006  37.9285017
 103.5529987  62.9375006  37.9285017 104.3349987  62.9585006  47.1335017
 105.2919987  62.9585006  47.1335017 104.0949987  63.8855006  47.1335017
 104.6989987  59.0465006  38.8415017 105.6559987  59.0465006  38.8415017
 104.4589987  59.9735006  38.8415017 101.5649987  73.4215006  35.9495017
 102.5219987  73.4215006  35.9495017 101.3249987  74.3485006  35.9495017
 100.3469987  60.1225006  35.5575017 101.3039987  60.1225006  35.5575017
 100.1069987  61.0495006  35.5575017  98.5679987  70.5935006  34.6025017
  99.5249987  70.5935006  34.6025017  98.3279987  71.5205006  34.6025017
  96.2389987  63.6635006  34.1645017  97.1959987  63.6635006  34.1645017
  95.9989987  64.5905006  34.1645017  97.7279987  58.0325006  42.4445017
  98.6849987  58.0325006  42.4445017  97.4879987  58.9595006  42.4445017
  96.3949987  71.6735006  38.5205017  97.3519987  71.6735006  38.5205017
  96.1549987  72.6005006  38.5205017  95.8999987  74.6075006  49.8875017
  96.8569987  74.6075006  49.8875017  95.6599987  75.5345006  49.8875017
 100.5579987  73.5235006  51.5015017 101.5149987  73.5235006  51.5015017
 100.3179987  74.4505006  51.5015017 104.7049987  73.0265006  32.8885017
 105.6619987  73.0265006  32.8885017 104.4649987  73.9535006  32.8885017
 107.1329987  71.9095006  50.2335017 108.0899987  71.9095006  50.2335017
 106.8929987  72.8365006  50.2335017  95.8189987  68.3915006  50.8745017
  96.7759987  68.3915006  50.8745017  95.5789987  69.3185006  50.8745017
 100.1419987  68.7325006  32.9255017 101.0989987  68.7325006  32.9255017
  99.9019987  69.6595006  32.9255017 102.4999987  68.3695006  50.2795017
 103.4569987  68.3695006  50.2795017 102.2599987  69.2965006  50.2795017
 105.6019987  69.8125006  32.6965017 106.5589987  69.8125006  32.6965017
 105.3619987  70.7395006  32.6965017  96.6559987  65.5945006  50.2495017
  97.6129987  65.5945006  50.2495017  96.4159987  66.5215006  50.2495017
 101.3289987  66.7305006  35.3075017 102.2859987  66.7305006  35.3075017
 101.0889987  67.6575006  35.3075017 100.6179987  64.5685006  47.6315017
 101.5749987  64.5685006  47.6315017 100.3779987  65.4955006  47.6315017
 102.4159987  64.9725006  33.5335017 103.3729987  64.9725006  33.5335017
 102.1759987  65.8995006  33.5335017 105.6739987  67.1045006  50.9825017
 106.6309987  67.1045006  50.9825017 105.4339987  68.0315006  50.9825017
 101.0119987  61.9405006  48.6985017 101.9689987  61.9405006  48.6985017
 100.7719987  62.8675006  48.6985017 101.4109987  60.3145006  46.2315017
 102.3679987  60.3145006  46.2315017 101.1709987  61.2415006  46.2315017
 102.9789987  65.7865006  46.4775017 103.9359987  65.7865006  46.4775017
 102.7389987  66.7135006  46.4775017 107.3879987  63.5855006  51.5555017
 108.3449987  63.5855006  51.5555017 107.1479987  64.5125006  51.5555017
  99.4579987  63.1875006  50.6125017 100.4149987  63.1875006  50.6125017
  99.2179987  64.1145006  50.6125017 102.2199987  57.7605006  46.6335017
 103.1769987  57.7605006  46.6335017 101.9799987  58.6875006  46.6335017
 103.4709987  62.0955006  50.2415017 104.4279987  62.0955006  50.2415017
 103.2309987  63.0225006  50.2415017 106.1369987  61.1935006  49.2905017
 107.0939987  61.1935006  49.2905017 105.8969987  62.1205006  49.2905017
 107.7719987  59.8925006  51.2325017 108.7289987  59.8925006  51.2325017
 107.5319987  60.8195006  51.2325017  97.5529987  61.0955006  50.3255017
  98.5099987  61.0955006  50.3255017  97.3129987  62.0225006  50.3255017
 102.4129987  57.1245006  49.3275017 103.3699987  57.1245006  49.3275017
 102.1729987  58.0515006  49.3275017 102.7809987  58.7555006  51.4135017
 103.7379987  58.7555006  51.4135017 102.5409987  59.6825006  51.4135017
 102.2549987  75.6555006  34.6055017 103.2119987  75.6555006  34.6055017
 102.0149987  76.5825006  34.6055017  95.8299987  70.2715006  34.0765017
  96.7869987  70.2715006  34.0765017  95.5899987  71.1985006  34.0765017
  94.6099987  75.6285006  39.0335017  95.5669987  75.6285006  39.0335017
  94.3699987  76.5555006  39.0335017  95.4639987  73.7395006  40.8855017
  96.4209987  73.7395006  40.8855017  95.2239987  74.6665006  40.8855017
  95.4709987  66.8605006  43.3865017  96.4279987  66.8605006  43.3865017
  95.2309987  67.7875006  43.3865017  95.0819987  62.0915006  49.4965017
  96.0389987  62.0915006  49.4965017  94.8419987  63.0185006  49.4965017
  96.2909987  60.4285006  42.3875017  97.2479987  60.4285006  42.3875017
  96.0509987  61.3555006  42.3875017  94.6189987  63.3685006  43.4935017
  95.5759987  63.3685006  43.4935017  94.3789987  64.2955006  43.4935017
  94.9199987  59.6895006  37.5585017  95.8769987  59.6895006  37.5585017
  94.6799987  60.6165006  37.5585017  97.1069987  71.5515006  49.9925017
  98.0639987  71.5515006  49.9925017  96.8669987  72.4785006  49.9925017
 100.0159987  72.5455006  46.2635017 100.9729987  72.5455006  46.2635017
  99.7759987  73.4725006  46.2635017 104.3359987  73.9805006  49.2045017
 105.2929987  73.9805006  49.2045017 104.0959987  74.9075006  49.2045017
 106.6879987  75.2785006  48.4365017 107.6449987  75.2785006  48.4365017
 106.4479987  76.2055006  48.4365017  97.4409987  75.7925006  46.2755017
  98.3979987  75.7925006  46.2755017  97.2009987  76.7195006  46.2755017
  99.9209987  75.3825006  45.3595017 100.8779987  75.3825006  45.3595017
  99.6809987  76.3095006  45.3595017 104.5959987  75.2815006  44.5105017
 105.5529987  75.2815006  44.5105017 104.3559987  76.2085006  44.5105017
 106.9369987  74.1505006  45.5215017 107.8939987  74.1505006  45.5215017
 106.6969987  75.0775006  45.5215017  96.8709987  74.4285006  43.1915017
  97.8279987  74.4285006  43.1915017  96.6309987  75.3555006  43.1915017
  98.9839987  73.1085006  41.8415017  99.9409987  73.1085006  41.8415017
  98.7439987  74.0355006  41.8415017 101.5289987  73.6315006  42.7235017
 102.4859987  73.6315006  42.7235017 101.2889987  74.5585006  42.7235017
 105.0109987  59.2755006  41.8545017 105.9679987  59.2755006  41.8545017
 104.7709987  60.2025006  41.8545017  97.3779987  57.9025006  39.7515017
  98.3349987  57.9025006  39.7515017  97.1379987  58.8295006  39.7515017
  96.1579987  57.6795006  35.4345017  97.1149987  57.6795006  35.4345017
  95.9179987  58.6065006  35.4345017 101.9039987  57.8265006  39.4995017
 102.8609987  57.8265006  39.4995017 101.6639987  58.7535006  39.4995017
 107.4669987  57.7825006  41.3025017 108.4239987  57.7825006  41.3025017
 107.2269987  58.7095006  41.3025017  96.0789987  73.6405006  36.4365017
  97.0359987  73.6405006  36.4365017  95.8389987  74.5675006  36.4365017
  98.0259987  59.1325006  34.1775017  98.9829987  59.1325006  34.1775017
  97.7859987  60.0595006  34.1775017 103.0609987  59.8625006  36.3615017
 104.0179987  59.8625006  36.3615017 102.8209987  60.7895006  36.3615017
 104.9319987  74.9085006  34.7945017 105.8889987  74.9085006  34.7945017
 104.6919987  75.8355006  34.7945017  97.2929987  58.4665006  49.1865017
  98.2499987  58.4665006  49.1865017  97.0529987  59.3935006  49.1865017
  99.2939987  57.8315006  50.7975017 100.2509987  57.8315006  50.7975017
  99.0539987  58.7585006  50.7975017  97.8809987  74.5725006  33.4265017
  98.8379987  74.5725006  33.4265017  97.6409987  75.4995006  33.4265017
  -0.0900013  57.1885006  50.9795017   0.8669987  57.1885006  50.9795017
  -0.3300013  58.1155006  50.9795017  12.1969987  85.9035006  39.5985017
  13.1539987  85.9035006  39.5985017  11.9569987  86.8305006  39.5985017
  11.0709987  85.1725006  43.0815017  12.0279987  85.1725006  43.0815017
  10.8309987  86.0995006  43.0815017   3.4689987  84.8005006  44.6055017
   4.4259987  84.8005006  44.6055017   3.2289987  85.7275006  44.6055017
  14.7719987  88.1095006  41.3525017  15.7289987  88.1095006  41.3525017
  14.5319987  89.0365006  41.3525017   4.3399987  89.2735006  43.1615017
   5.2969987  89.2735006  43.1615017   4.0999987  90.2005006  43.1615017
   1.0659987  82.9515006  38.5645017   2.0229987  82.9515006  38.5645017
   0.8259987  83.8785006  38.5645017   1.6869987  85.0415006  40.7495017
   2.6439987  85.0415006  40.7495017   1.4469987  85.9685006  40.7495017
  11.8829987  93.2615006  41.5945017  12.8399987  93.2615006  41.5945017
  11.6429987  94.1885006  41.5945017   9.4479987  87.5785006  43.5235017
  10.4049987  87.5785006  43.5235017   9.2079987  88.5055006  43.5235017
  18.0689987  79.2155006  44.2865017  19.0259987  79.2155006  44.2865017
  17.8289987  80.1425006  44.2865017  12.6119987  82.0325006  43.8495017
  13.5689987  82.0325006  43.8495017  12.3719987  82.9595006  43.8495017
   5.7379987  80.1125006  41.0705017   6.6949987  80.1125006  41.0705017
   5.4979987  81.0395006  41.0705017  13.4539987  80.2145006  39.4655017
  14.4109987  80.2145006  39.4655017  13.2139987  81.1415006  39.4655017
   2.5809987  82.5975006  41.7025017   3.5379987  82.5975006  41.7025017
   2.3409987  83.5245006  41.7025017   7.5189987  84.0815006  41.1055017
   8.4759987  84.0815006  41.1055017   7.2789987  85.0085006  41.1055017
  18.4989987  80.6475006  46.5525017  19.4559987  80.6475006  46.5525017
  18.2589987  81.5745006  46.5525017   4.6329987  79.0215006  45.1365017
   5.5899987  79.0215006  45.1365017   4.3929987  79.9485006  45.1365017
  11.9369987  88.5075006  38.6705017  12.8939987  88.5075006  38.6705017
  11.6969987  89.4345006  38.6705017   7.1539987  86.6665006  45.3825017
   8.1109987  86.6665006  45.3825017   6.9139987  87.5935006  45.3825017
  15.2259987  79.5425006  41.4655017  16.1829987  79.5425006  41.4655017
  14.9859987  80.4695006  41.4655017   4.2149987  80.8495006  43.1485017
   5.1719987  80.8495006  43.1485017   3.9749987  81.7765006  43.1485017
   5.5979987  88.6585006  46.1925017   6.5549987  88.6585006  46.1925017
   5.3579987  89.5855006  46.1925017   1.7049987  88.3085006  36.9555017
   2.6619987  88.3085006  36.9555017   1.4649987  89.2355006  36.9555017
  15.2939987  89.9465006  43.7275017  16.2509987  89.9465006  43.7275017
  15.0539987  90.8735006  43.7275017  15.6059987  78.2355006  45.1275017
  16.5629987  78.2355006  45.1275017  15.3659987  79.1625006  45.1275017
   8.5899987  76.3465006  42.5835017   9.5469987  76.3465006  42.5835017
   8.3499987  77.2735006  42.5835017  13.5469987  91.7315006  40.3295017
  14.5039987  91.7315006  40.3295017  13.3069987  92.6585006  40.3295017
  14.7569987  89.6595006  38.8295017  15.7139987  89.6595006  38.8295017
  14.5169987  90.5865006  38.8295017  16.3819987  88.2375006  47.3345017
  17.3389987  88.2375006  47.3345017  16.1419987  89.1645006  47.3345017
  10.8739987  85.1475006  37.1015017  11.8309987  85.1475006  37.1015017
  10.6339987  86.0745006  37.1015017  10.9129987  83.6655006  34.1305017
  11.8699987  83.6655006  34.1305017  10.6729987  84.5925006  34.1305017
  18.2609987  84.5545006  45.3835017  19.2179987  84.5545006  45.3835017
  18.0209987  85.4815006  45.3835017  14.3049987  85.3795006  38.0185017
  15.2619987  85.3795006  38.0185017  14.0649987  86.3065006  38.0185017
  14.2159987  83.5155006  47.1545017  15.1729987  83.5155006  47.1545017
  13.9759987  84.4425006  47.1545017   5.9519987  86.0325006  39.9325017
   6.9089987  86.0325006  39.9325017   5.7119987  86.9595006  39.9325017
   7.2599987  89.4175006  42.6115017   8.2169987  89.4175006  42.6115017
   7.0199987  90.3445006  42.6115017   6.2839987  84.7655006  43.5855017
   7.2409987  84.7655006  43.5855017   6.0439987  85.6925006  43.5855017
  12.6449987  90.3255006  44.2885017  13.6019987  90.3255006  44.2885017
  12.4049987  91.2525006  44.2885017   7.2049987  89.1865006  48.2895017
   8.1619987  89.1865006  48.2895017   6.9649987  90.1135006  48.2895017
  13.1839987  84.5555006  35.7105017  14.1409987  84.5555006  35.7105017
  12.9439987  85.4825006  35.7105017   4.1339987  85.3675006  47.4745017
   5.0909987  85.3675006  47.4745017   3.8939987  86.2945006  47.4745017
  10.8979987  91.2745006  39.1575017  11.8549987  91.2745006  39.1575017
  10.6579987  92.2015006  39.1575017   5.4399987  91.2335006  49.0435017
   6.3969987  91.2335006  49.0435017   5.1999987  92.1605006  49.0435017
  16.9039987  76.2835006  35.5715017  17.8609987  76.2835006  35.5715017
  16.6639987  77.2105006  35.5715017   4.9259987  85.0575006  37.5495017
   5.8829987  85.0575006  37.5495017   4.6859987  85.9845006  37.5495017
  18.0339987  90.6475006  33.9025017  18.9909987  90.6475006  33.9025017
  17.7939987  91.5745006  33.9025017   1.1279987  87.4465006  46.3665017
   2.0849987  87.4465006  46.3665017   0.8879987  88.3735006  46.3665017
   1.0109987  90.3375006  42.9425017   1.9679987  90.3375006  42.9425017
   0.7709987  91.2645006  42.9425017  18.9889987  90.9035006  48.9065017
  19.9459987  90.9035006  48.9065017  18.7489987  91.8305006  48.9065017
   9.9459987  90.4465006  47.7695017  10.9029987  90.4465006  47.7695017
   9.7059987  91.3735006  47.7695017  10.3799987  94.1965006  37.5735017
  11.3369987  94.1965006  37.5735017  10.1399987  95.1235006  37.5735017
   4.0209987  93.0545006  39.3635017   4.9779987  93.0545006  39.3635017
   3.7809987  93.9815006  39.3635017  13.4609987  93.4145006  34.5585017
  14.4179987  93.4145006  34.5585017  13.2209987  94.3415006  34.5585017
  13.1329987  93.3285006  37.3205017  14.0899987  93.3285006  37.3205017
  12.8929987  94.2555006  37.3205017  16.0639987  82.3885006  49.4105017
  17.0209987  82.3885006  49.4105017  15.8239987  83.3155006  49.4105017
   3.2629987  88.8135006  47.3965017   4.2199987  88.8135006  47.3965017
   3.0229987  89.7405006  47.3965017   5.9369987  77.2525006  43.3365017
   6.8939987  77.2525006  43.3365017   5.6969987  78.1795006  43.3365017
  10.5829987  76.9355006  46.7115017  11.5399987  76.9355006  46.7115017
  10.3429987  77.8625006  46.7115017  13.8919987  80.7555006  47.6055017
  14.8489987  80.7555006  47.6055017  13.6519987  81.6825006  47.6055017
  14.6569987  85.5375006  33.5255017  15.6139987  85.5375006  33.5255017
  14.4169987  86.4645006  33.5255017  10.2339987  79.4935006  34.0065017
  11.1909987  79.4935006  34.0065017   9.9939987  80.4205006  34.0065017
   6.0399987  82.2165006  44.5625017   6.9969987  82.2165006  44.5625017
   5.7999987  83.1435006  44.5625017   5.9869987  82.3745006  39.4365017
   6.9439987  82.3745006  39.4365017   5.7469987  83.3015006  39.4365017
  11.5279987  82.8425006  38.2265017  12.4849987  82.8425006  38.2265017
  11.2879987  83.7695006  38.2265017  10.6169987  83.0665006  49.6945017
  11.5739987  83.0665006  49.6945017  10.3769987  83.9935006  49.6945017
  12.5289987  82.3195006  41.0625017  13.4859987  82.3195006  41.0625017
  12.2889987  83.2465006  41.0625017   3.7049987  82.4815006  46.2865017
   4.6619987  82.4815006  46.2865017   3.4649987  83.4085006  46.2865017
   7.0929987  79.9015006  33.1155017   8.0499987  79.9015006  33.1155017
   6.8529987  80.8285006  33.1155017   0.4299987  78.9115006  40.5695017
   1.3869987  78.9115006  40.5695017   0.1899987  79.8385006  40.5695017
   1.7989987  80.3405006  35.7215017   2.7559987  80.3405006  35.7215017
   1.5589987  81.2675006  35.7215017  11.7979987  83.9255006  45.6655017
  12.7549987  83.9255006  45.6655017  11.5579987  84.8525006  45.6655017
   8.5679987  79.8835006  40.4555017   9.5249987  79.8835006  40.4555017
   8.3279987  80.8105006  40.4555017   3.3909987  81.4315006  39.3025017
   4.3479987  81.4315006  39.3025017   3.1509987  82.3585006  39.3025017
   7.0209987  81.4875006  36.9505017   7.9779987  81.4875006  36.9505017
   6.7809987  82.4145006  36.9505017  12.9719987  79.1195006  43.7075017
  13.9289987  79.1195006  43.7075017  12.7319987  80.0465006  43.7075017
   5.7069987  82.6795006  34.5315017   6.6639987  82.6795006  34.5315017
   5.4669987  83.6065006  34.5315017  16.1869987  94.7715006  50.0215017
  17.1439987  94.7715006  50.0215017  15.9469987  95.6985006  50.0215017
   3.8559987  87.2155006  49.6055017   4.8129987  87.2155006  49.6055017
   3.6159987  88.1425006  49.6055017   9.8589987  82.6515006  42.3535017
  10.8159987  82.6515006  42.3535017   9.6189987  83.5785006  42.3535017
   4.8669987  78.8015006  38.7925017   5.8239987  78.8015006  38.7925017
   4.6269987  79.7285006  38.7925017   8.4939987  80.9875006  44.7645017
   9.4509987  80.9875006  44.7645017   8.2539987  81.9145006  44.7645017
   9.0809987  87.2165006  36.4555017  10.0379987  87.2165006  36.4555017
   8.8409987  88.1435006  36.4555017  16.2439987  86.3895006  45.2615017
  17.2009987  86.3895006  45.2615017  16.0039987  87.3165006  45.2615017
  12.9129987  80.0115006  34.6645017  13.8699987  80.0115006  34.6645017
  12.6729987  80.9385006  34.6645017  10.5909987  87.4525006  47.7175017
  11.5479987  87.4525006  47.7175017  10.3509987  88.3795006  47.7175017
  13.5739987  81.9765006  36.2285017  14.5309987  81.9765006  36.2285017
  13.3339987  82.9035006  36.2285017   4.1849987  86.5885006  42.2575017
   5.1419987  86.5885006  42.2575017   3.9449987  87.5155006  42.2575017
  11.1859987  88.6805006  35.4875017  12.1429987  88.6805006  35.4875017
  10.9459987  89.6075006  35.4875017   1.1499987  85.0075006  47.5315017
   2.1069987  85.0075006  47.5315017   0.9099987  85.9345006  47.5315017
   8.1979987  84.5615006  49.7185017   9.1549987  84.5615006  49.7185017
   7.9579987  85.4885006  49.7185017  12.8599987  89.8905006  47.6415017
  13.8169987  89.8905006  47.6415017  12.6199987  90.8175006  47.6415017
  18.7159987  82.1255006  35.8025017  19.6729987  82.1255006  35.8025017
  18.4759987  83.0525006  35.8025017  18.5309987  87.9445006  48.8585017
  19.4879987  87.9445006  48.8585017  18.2909987  88.8715006  48.8585017
  16.8189987  90.9155006  36.4355017  17.7759987  90.9155006  36.4355017
  16.5789987  91.8425006  36.4355017  14.0319987  85.7345006  43.5165017
  14.9889987  85.7345006  43.5165017  13.7919987  86.6615006  43.5165017
   6.5689987  90.0425006  39.6415017   7.5259987  90.0425006  39.6415017
   6.3289987  90.9695006  39.6415017   2.2869987  84.8875006  34.2395017
   3.2439987  84.8875006  34.2395017   2.0469987  85.8145006  34.2395017
   7.9829987  87.7135006  39.1675017   8.9399987  87.7135006  39.1675017
   7.7429987  88.6405006  39.1675017   8.4399987  91.8745006  45.5515017
   9.3969987  91.8745006  45.5515017   8.1999987  92.8015006  45.5515017
   6.6629987  92.7135006  38.7035017   7.6199987  92.7135006  38.7035017
   6.4229987  93.6405006  38.7035017  11.9749987  87.9205006  45.2005017
  12.9319987  87.9205006  45.2005017  11.7349987  88.8475006  45.2005017
  14.2879987  88.9655006  34.2655017  15.2449987  88.9655006  34.2655017
  14.0479987  89.8925006  34.2655017  14.7449987  92.4915006  47.6945017
  15.7019987  92.4915006  47.6945017  14.5049987  93.4185006  47.6945017
  18.7569987  93.3595006  34.5705017  19.7139987  93.3595006  34.5705017
  18.5169987  94.2865006  34.5705017   2.8109987  79.7345006  47.0805017
   3.7679987  79.7345006  47.0805017   2.5709987  80.6615006  47.0805017
  15.0649987  87.6125006  36.5345017  16.0219987  87.6125006  36.5345017
  14.8249987  88.5395006  36.5345017   2.4749987  91.5405006  45.4895017
   3.4319987  91.5405006  45.4895017   2.2349987  92.4675006  45.4895017
   8.3899987  90.0415006  32.7605017   9.3469987  90.0415006  32.7605017
   8.1499987  90.9685006  32.7605017   7.2229987  89.5735006  35.2145017
   8.1799987  89.5735006  35.2145017   6.9829987  90.5005006  35.2145017
   3.6919987  86.8005006  35.6975017   4.6489987  86.8005006  35.6975017
   3.4519987  87.7275006  35.6975017  11.5509987  79.5085006  46.0155017
  12.5079987  79.5085006  46.0155017  11.3109987  80.4355006  46.0155017
  12.3159987  79.0915006  37.1125017  13.2729987  79.0915006  37.1125017
  12.0759987  80.0185006  37.1125017   9.9979987  91.2435006  35.9355017
  10.9549987  91.2435006  35.9355017   9.7579987  92.1705006  35.9355017
   9.5209987  80.8525006  37.9325017  10.4779987  80.8525006  37.9325017
   9.2809987  81.7795006  37.9325017  10.0929987  81.8635006  47.1175017
  11.0499987  81.8635006  47.1175017   9.8529987  82.7905006  47.1175017
  10.3939987  77.9025006  38.8375017  11.3509987  77.9025006  38.8375017
  10.1539987  78.8295006  38.8375017   7.3789987  92.2795006  35.9455017
   8.3359987  92.2795006  35.9455017   7.1389987  93.2065006  35.9455017
   6.0709987  79.0255006  35.5285017   7.0279987  79.0255006  35.5285017
   5.8309987  79.9525006  35.5285017  16.2829987  79.7235006  47.9695017
  17.2399987  79.7235006  47.9695017  16.0429987  80.6505006  47.9695017
  14.8559987  83.5275006  42.0365017  15.8129987  83.5275006  42.0365017
  14.6159987  84.4545006  42.0365017   4.2909987  89.4415006  34.5805017
   5.2479987  89.4415006  34.5805017   4.0509987  90.3685006  34.5805017
   2.5789987  82.1165006  33.7655017   3.5359987  82.1165006  33.7655017
   2.3389987  83.0435006  33.7655017  15.9439987  92.7625006  43.6605017
  16.9009987  92.7625006  43.6605017  15.7039987  93.6895006  43.6605017
   3.4669987  76.8915006  42.4315017   4.4239987  76.8915006  42.4315017
   3.2269987  77.8185006  42.4315017   2.3859987  90.8255006  38.6025017
   3.3429987  90.8255006  38.6025017   2.1459987  91.7525006  38.6025017
   1.7139987  93.4105006  49.8225017   2.6709987  93.4105006  49.8225017
   1.4739987  94.3375006  49.8225017   6.2719987  92.3635006  51.5105017
   7.2289987  92.3635006  51.5105017   6.0319987  93.2905006  51.5105017
  10.3969987  91.8965006  32.8945017  11.3539987  91.8965006  32.8945017
  10.1569987  92.8235006  32.8945017  12.8019987  90.7695006  50.2385017
  13.7589987  90.7695006  50.2385017  12.5619987  91.6965006  50.2385017
  14.9909987  91.6675006  33.1185017  15.9479987  91.6675006  33.1185017
  14.7509987  92.5945006  33.1185017   1.5079987  87.2495006  50.8795017
   2.4649987  87.2495006  50.8795017   1.2679987  88.1765006  50.8795017
   5.8659987  87.5885006  32.9265017   6.8229987  87.5885006  32.9265017
   5.6259987  88.5155006  32.9265017   8.2539987  87.2225006  50.2705017
   9.2109987  87.2225006  50.2705017   8.0139987  88.1495006  50.2705017
  11.2799987  88.6795006  32.6845017  12.2369987  88.6795006  32.6845017
  11.0399987  89.6065006  32.6845017  13.9139987  87.1315006  47.6365017
  14.8709987  87.1315006  47.6365017  13.6739987  88.0585006  47.6365017
   2.3809987  84.4575006  50.2675017   3.3379987  84.4575006  50.2675017
   2.1409987  85.3845006  50.2675017   7.0629987  85.5955006  35.3145017
   8.0199987  85.5955006  35.3145017   6.8229987  86.5225006  35.3145017
   6.3389987  83.4235006  47.6305017   7.2959987  83.4235006  47.6305017
   6.0989987  84.3505006  47.6305017   8.1349987  83.8195006  33.5335017
   9.0919987  83.8195006  33.5335017   7.8949987  84.7465006  33.5335017
  11.3649987  85.9705006  50.9235017  12.3219987  85.9705006  50.9235017
  11.1249987  86.8975006  50.9235017  17.5099987  86.1395006  32.9685017
  18.4669987  86.1395006  32.9685017  17.2699987  87.0665006  32.9685017
   6.7349987  80.7975006  48.6955017   7.6919987  80.7975006  48.6955017
   6.4949987  81.7245006  48.6955017   7.1319987  79.1745006  46.2305017
   8.0889987  79.1745006  46.2305017   6.8919987  80.1015006  46.2305017
   8.6799987  84.6415006  46.4695017   9.6369987  84.6415006  46.4695017
   8.4399987  85.5685006  46.4695017  13.0809987  82.1765006  51.6085017
  14.0379987  82.1765006  51.6085017  12.8409987  83.1035006  51.6085017
  14.5759987  85.3005006  49.2875017  15.5329987  85.3005006  49.2875017
  14.3359987  86.2275006  49.2875017   5.1809987  82.0455006  50.6055017
   6.1379987  82.0455006  50.6055017   4.9409987  82.9725006  50.6055017
   7.9209987  76.6215006  46.6325017   8.8779987  76.6215006  46.6325017
   7.6809987  77.5485006  46.6325017   9.2039987  80.9465006  50.2325017
  10.1609987  80.9465006  50.2325017   8.9639987  81.8735006  50.2325017
  11.9209987  80.1205006  49.3465017  12.8779987  80.1205006  49.3465017
  11.6809987  81.0475006  49.3465017  13.5059987  78.7205006  51.2495017
  14.4629987  78.7205006  51.2495017  13.2659987  79.6475006  51.2495017
   3.3309987  79.9695006  50.3545017   4.2879987  79.9695006  50.3545017
   3.0909987  80.8965006  50.3545017   8.1279987  75.9615006  49.3335017
   9.0849987  75.9615006  49.3335017   7.8879987  76.8885006  49.3335017
   8.4909987  77.5895006  51.4225017   9.4479987  77.5895006  51.4225017
   8.2509987  78.5165006  51.4225017   7.9809987  94.5145006  34.5965017
   8.9379987  94.5145006  34.5965017   7.7409987  95.4415006  34.5965017
   1.5899987  89.1275006  34.0505017   2.5469987  89.1275006  34.0505017
   1.3499987  90.0545006  34.0505017 108.0929987  94.5525006  39.0705017
 109.0499987  94.5525006  39.0705017 107.8529987  95.4795006  39.0705017
   1.5109987  92.7645006  41.0205017   2.4679987  92.7645006  41.0205017
   1.2709987  93.6915006  41.0205017  18.6619987  93.4155006  43.8605017
  19.6189987  93.4155006  43.8605017  18.4219987  94.3425006  43.8605017
  18.2379987  93.0125006  46.8035017  19.1949987  93.0125006  46.8035017
  17.9979987  93.9395006  46.8035017  16.6679987  88.7295006  51.4655017
  17.6249987  88.7295006  51.4655017  16.4279987  89.6565006  51.4655017
  17.9869987  87.0715006  36.9165017  18.9439987  87.0715006  36.9165017
  17.7469987  87.9985006  36.9165017  18.3449987  85.1665006  38.7945017
  19.3019987  85.1665006  38.7945017  18.1049987  86.0935006  38.7945017
  18.1199987  87.8425006  43.7655017  19.0769987  87.8425006  43.7655017
  17.8799987  88.7695006  43.7655017  16.6639987  90.7345006  46.0485017
  17.6209987  90.7345006  46.0485017  16.4239987  91.6615006  46.0485017
  18.6809987  84.9765006  35.1755017  19.6379987  84.9765006  35.1755017
  18.4409987  85.9035006  35.1755017  17.0199987  82.2025006  33.7065017
  17.9769987  82.2025006  33.7065017  16.7799987  83.1295006  33.7065017
  15.9889987  83.7265006  39.3695017  16.9459987  83.7265006  39.3695017
  15.7489987  84.6535006  39.3695017   1.1829987  85.7125006  43.4025017
   2.1399987  85.7125006  43.4025017   0.9429987  86.6395006  43.4025017
  17.0689987  85.5805006  49.0425017  18.0259987  85.5805006  49.0425017
  16.8289987  86.5075006  49.0425017  18.5219987  83.4695006  49.7035017
  19.4789987  83.4695006  49.7035017  18.2819987  84.3965006  49.7035017
  16.2809987  79.6375006  32.8435017  17.2379987  79.6375006  32.8435017
  16.0409987  80.5645006  32.8435017  15.4659987  80.9835006  37.5445017
  16.4229987  80.9835006  37.5445017  15.2259987  81.9105006  37.5445017
  16.4839987  81.7445006  43.2515017  17.4409987  81.7445006  43.2515017
  16.2439987  82.6715006  43.2515017  16.5509987  82.4665006  46.0345017
  17.5079987  82.4665006  46.0345017  16.3109987  83.3935006  46.0345017
   0.8799987  80.9655006  49.5195017   1.8369987  80.9655006  49.5195017
   0.6399987  81.8925006  49.5195017  18.8139987  76.5045006  51.3875017
  19.7709987  76.5045006  51.3875017  18.5739987  77.4315006  51.3875017
  16.5119987  78.4455006  37.8505017  17.4689987  78.4455006  37.8505017
  16.2719987  79.3725006  37.8505017   2.1199987  79.3055006  42.3645017
   3.0769987  79.3055006  42.3645017   1.8799987  80.2325006  42.3645017
   0.8999987  82.2525006  43.5155017   1.8569987  82.2525006  43.5155017
   0.6599987  83.1795006  43.5155017  18.3379987  78.6185006  49.7405017
  19.2949987  78.6185006  49.7405017  18.0979987  79.5455006  49.7405017
  18.3409987  78.5095006  34.4155017  19.2979987  78.5095006  34.4155017
  18.1009987  79.4365006  34.4155017   0.8889987  78.5155006  37.5665017
   1.8459987  78.5155006  37.5665017   0.6489987  79.4425006  37.5665017
  15.3889987  93.5005006  39.4755017  16.3459987  93.5005006  39.4755017
  15.1489987  94.4275006  39.4755017 108.3239987  77.1715006  45.8505017
 109.2809987  77.1715006  45.8505017 108.0839987  78.0985006  45.8505017
   2.8159987  90.4375006  50.0085017   3.7729987  90.4375006  50.0085017
   2.5759987  91.3645006  50.0085017   5.7329987  91.4085006  46.2645017
   6.6899987  91.4085006  46.2645017   5.4929987  92.3355006  46.2645017
  10.0569987  92.8275006  49.1825017  11.0139987  92.8275006  49.1825017
   9.8169987  93.7545006  49.1825017  12.3549987  94.0975006  48.4705017
  13.3119987  94.0975006  48.4705017  12.1149987  95.0245006  48.4705017
  17.3559987  76.7105006  47.5745017  18.3129987  76.7105006  47.5745017
  17.1159987  77.6375006  47.5745017   3.1439987  94.6525006  46.2965017
   4.1009987  94.6525006  46.2965017   2.9039987  95.5795006  46.2965017
   5.6429987  94.2345006  45.3375017   6.5999987  94.2345006  45.3375017
   5.4029987  95.1615006  45.3375017  10.3379987  94.1415006  44.5035017
  11.2949987  94.1415006  44.5035017  10.0979987  95.0685006  44.5035017
  12.6399987  92.9715006  45.5045017  13.5969987  92.9715006  45.5045017
  12.3999987  93.8985006  45.5045017  15.2249987  94.5395006  45.7625017
  16.1819987  94.5395006  45.7625017  14.9849987  95.4665006  45.7625017
   2.6369987  93.3185006  43.2625017   3.5939987  93.3185006  43.2625017
   2.3969987  94.2455006  43.2625017   4.6819987  92.0075006  41.8575017
   5.6389987  92.0075006  41.8575017   4.4419987  92.9345006  41.8575017
   7.2679987  92.4805006  42.7255017   8.2249987  92.4805006  42.7255017
   7.0279987  93.4075006  42.7255017  10.7539987  78.1415006  41.8745017
  11.7109987  78.1415006  41.8745017  10.5139987  79.0685006  41.8745017
  15.8889987  76.2065006  41.9555017  16.8459987  76.2065006  41.9555017
  15.6489987  77.1335006  41.9555017  17.5689987  77.4045006  40.2585017
  18.5259987  77.4045006  40.2585017  17.3289987  78.3315006  40.2585017
   3.1169987  76.7645006  39.6995017   4.0739987  76.7645006  39.6995017
   2.8769987  77.6915006  39.6995017   1.3739987  76.6705006  35.3915017
   2.3309987  76.6705006  35.3915017   1.1339987  77.5975006  35.3915017
   7.6249987  76.6945006  39.5135017   8.5819987  76.6945006  39.5135017
   7.3849987  77.6215006  39.5135017  13.2809987  76.7135006  41.1445017
  14.2379987  76.7135006  41.1445017  13.0409987  77.6405006  41.1445017
  14.5799987  76.7485006  36.8215017  15.5369987  76.7485006  36.8215017
  14.3399987  77.6755006  36.8215017   1.9219987  92.4945006  36.4375017
   2.8789987  92.4945006  36.4375017   1.6819987  93.4215006  36.4375017
   3.8369987  78.7445006  33.7715017   4.7939987  78.7445006  33.7715017
   3.5969987  79.6715006  33.7715017   8.7919987  78.7335006  36.3565017
   9.7489987  78.7335006  36.3565017   8.5519987  79.6605006  36.3565017
  10.6779987  93.7595006  34.8065017  11.6349987  93.7595006  34.8065017
  10.4379987  94.6865006  34.8065017  17.4029987  93.2855006  37.4985017
  18.3599987  93.2855006  37.4985017  17.1629987  94.2125006  37.4985017
   2.9949987  77.3085006  49.1695017   3.9519987  77.3085006  49.1695017
   2.7549987  78.2355006  49.1695017   5.0189987  76.6885006  50.7945017
   5.9759987  76.6885006  50.7945017   4.7789987  77.6155006  50.7945017
   3.5879987  93.4285006  33.3935017   4.5449987  93.4285006  33.3935017
   3.3479987  94.3555006  33.3935017  13.4179987  75.9825006  50.9465017
  14.3749987  75.9825006  50.9465017  13.1779987  76.9095006  50.9465017
  16.6259987  92.0245006  49.6065017  17.5829987  92.0245006  49.6065017
  16.3859987  92.9515006  49.6065017  31.0529987  85.9125006  39.6335017
  32.0099987  85.9125006  39.6335017  30.8129987  86.8395006  39.6335017
  29.9049987  85.1725006  43.1205017  30.8619987  85.1725006  43.1205017
  29.6649987  86.0995006  43.1205017  22.2829987  84.8265006  44.6345017
  23.2399987  84.8265006  44.6345017  22.0429987  85.7535006  44.6345017
  33.6099987  88.1365006  41.3395017  34.5669987  88.1365006  41.3395017
  33.3699987  89.0635006  41.3395017  23.2109987  89.2765006  43.1565017
  24.1679987  89.2765006  43.1565017  22.9709987  90.2035006  43.1565017
  20.1799987  83.1025006  38.5035017  21.1369987  83.1025006  38.5035017
  19.9399987  84.0295006  38.5035017  20.5589987  85.0885006  40.7645017
  21.5159987  85.0885006  40.7645017  20.3189987  86.0155006  40.7645017
  30.7359987  93.2605006  41.5935017  31.6929987  93.2605006  41.5935017
  30.4959987  94.1875006  41.5935017  28.3109987  87.5715006  43.5195017
  29.2679987  87.5715006  43.5195017  28.0709987  88.4985006  43.5195017
  24.5899987  80.1135006  41.0925017  25.5469987  80.1135006  41.0925017
  24.3499987  81.0405006  41.0925017  21.2219987  82.5345006  41.8255017
  22.1789987  82.5345006  41.8255017  20.9819987  83.4615006  41.8255017
  26.3329987  84.0835006  41.1375017  27.2899987  84.0835006  41.1375017
  26.0929987  85.0105006  41.1375017  23.4699987  79.0165006  45.1365017
  24.4269987  79.0165006  45.1365017  23.2299987  79.9435006  45.1365017
  30.7999987  88.5185006  38.6675017  31.7569987  88.5185006  38.6675017
  30.5599987  89.4455006  38.6675017  26.0179987  86.6635006  45.3835017
  26.9749987  86.6635006  45.3835017  25.7779987  87.5905006  45.3835017
  23.0399987  80.8855006  43.1325017  23.9969987  80.8855006  43.1325017
  22.7999987  81.8125006  43.1325017  24.4429987  88.6515006  46.1865017
  25.3999987  88.6515006  46.1865017  24.2029987  89.5785006  46.1865017
  20.5359987  88.2895006  36.9895017  21.4929987  88.2895006  36.9895017
  20.2959987  89.2165006  36.9895017  34.1489987  89.9635006  43.7225017
  35.1059987  89.9635006  43.7225017  33.9089987  90.8905006  43.7225017
  27.4539987  76.3345006  42.6085017  28.4109987  76.3345006  42.6085017
  27.2139987  77.2615006  42.6085017  32.4019987  91.7335006  40.3305017
  33.3589987  91.7335006  40.3305017  32.1619987  92.6605006  40.3305017
  33.6219987  89.6575006  38.8435017  34.5789987  89.6575006  38.8435017
  33.3819987  90.5845006  38.8435017  35.2389987  88.2295006  47.3125017
  36.1959987  88.2295006  47.3125017  34.9989987  89.1565006  47.3125017
  29.7529987  85.1985006  37.0985017  30.7099987  85.1985006  37.0985017
  29.5129987  86.1255006  37.0985017  24.7789987  86.0295006  39.9355017
  25.7359987  86.0295006  39.9355017  24.5389987  86.9565006  39.9355017
  26.1139987  89.4185006  42.6145017  27.0709987  89.4185006  42.6145017
  25.8739987  90.3455006  42.6145017  25.1309987  84.7665006  43.5875017
  26.0879987  84.7665006  43.5875017  24.8909987  85.6935006  43.5875017
  31.5069987  90.3245006  44.2935017  32.4639987  90.3245006  44.2935017
  31.2669987  91.2515006  44.2935017  26.0609987  89.1835006  48.2875017
  27.0179987  89.1835006  48.2875017  25.8209987  90.1105006  48.2875017
  22.9959987  85.3525006  47.4635017  23.9529987  85.3525006  47.4635017
  22.7559987  86.2795006  47.4635017  29.7539987  91.2735006  39.1565017
  30.7109987  91.2735006  39.1565017  29.5139987  92.2005006  39.1565017
  24.3019987  91.2345006  49.0415017  25.2589987  91.2345006  49.0415017
  24.0619987  92.1615006  49.0415017  23.7599987  85.0525006  37.5435017
  24.7169987  85.0525006  37.5435017  23.5199987  85.9795006  37.5435017
  36.8829987  90.6415006  33.9305017  37.8399987  90.6415006  33.9305017
  36.6429987  91.5685006  33.9305017  19.8509987  87.4645006  46.4155017
  20.8079987  87.4645006  46.4155017  19.6109987  88.3915006  46.4155017
  19.6079987  90.2035006  43.2195017  20.5649987  90.2035006  43.2195017
  19.3679987  91.1305006  43.2195017  28.8019987  90.4475006  47.7695017
  29.7589987  90.4475006  47.7695017  28.5619987  91.3745006  47.7695017
  29.2199987  94.1985006  37.5705017  30.1769987  94.1985006  37.5705017
  28.9799987  95.1255006  37.5705017  22.8789987  93.0605006  39.3795017
  23.8359987  93.0605006  39.3795017  22.6389987  93.9875006  39.3795017
  32.2729987  93.4015006  34.5615017  33.2299987  93.4015006  34.5615017
  32.0329987  94.3285006  34.5615017  31.9919987  93.3275006  37.3225017
  32.9489987  93.3275006  37.3225017  31.7519987  94.2545006  37.3225017
  22.1239987  88.7825006  47.3825017  23.0809987  88.7825006  47.3825017
  21.8839987  89.7095006  47.3825017  24.7799987  77.2325006  43.3565017
  25.7369987  77.2325006  43.3565017  24.5399987  78.1595006  43.3565017
  33.4849987  85.5985006  33.4185017  34.4419987  85.5985006  33.4185017
  33.2449987  86.5255006  33.4185017  24.8929987  82.2055006  44.5515017
  25.8499987  82.2055006  44.5515017  24.6529987  83.1325006  44.5515017
  24.8429987  82.3895006  39.4215017  25.7999987  82.3895006  39.4215017
  24.6029987  83.3165006  39.4215017  22.5449987  82.4975006  46.2885017
  23.5019987  82.4975006  46.2885017  22.3049987  83.4245006  46.2885017
  25.7999987  79.8655006  33.1235017  26.7569987  79.8655006  33.1235017
  25.5599987  80.7925006  33.1235017  19.1889987  79.5085006  40.2805017
  20.1459987  79.5085006  40.2805017  18.9489987  80.4355006  40.2805017
  20.4729987  80.2985006  35.6015017  21.4299987  80.2985006  35.6015017
  20.2329987  81.2255006  35.6015017  22.2619987  81.4465006  39.3355017
  23.2189987  81.4465006  39.3355017  22.0219987  82.3735006  39.3355017
  25.8959987  81.4605006  36.9595017  26.8529987  81.4605006  36.9595017
  25.6559987  82.3875006  36.9595017  24.5759987  82.6805006  34.5325017
  25.5329987  82.6805006  34.5325017  24.3359987  83.6075006  34.5325017
  35.0419987  94.7735006  50.0215017  35.9989987  94.7735006  50.0215017
  34.8019987  95.7005006  50.0215017  22.7149987  87.2225006  49.6065017
  23.6719987  87.2225006  49.6065017  22.4749987  88.1495006  49.6065017
  28.7229987  82.6505006  42.3995017  29.6799987  82.6505006  42.3995017
  28.4829987  83.5775006  42.3995017  23.7269987  78.8005006  38.7815017
  24.6839987  78.8005006  38.7815017  23.4869987  79.7275006  38.7815017
  27.3559987  81.0035006  44.7795017  28.3129987  81.0035006  44.7795017
  27.1159987  81.9305006  44.7795017  27.9359987  87.2345006  36.4495017
  28.8929987  87.2345006  36.4495017  27.6959987  88.1615006  36.4495017
  29.3979987  87.4565006  47.6895017  30.3549987  87.4565006  47.6895017
  29.1579987  88.3835006  47.6895017  23.0529987  86.5955006  42.2725017
  24.0099987  86.5955006  42.2725017  22.8129987  87.5225006  42.2725017
  30.0409987  88.6765006  35.4815017  30.9979987  88.6765006  35.4815017
  29.8009987  89.6035006  35.4815017  20.0229987  85.0015006  47.5365017
  20.9799987  85.0015006  47.5365017  19.7829987  85.9285006  47.5365017
  27.0699987  84.5565006  49.7055017  28.0269987  84.5565006  49.7055017
  26.8299987  85.4835006  49.7055017  31.7179987  89.9035006  47.6385017
  32.6749987  89.9035006  47.6385017  31.4779987  90.8305006  47.6385017
  37.3899987  88.0025006  48.8655017  38.3469987  88.0025006  48.8655017
  37.1499987  88.9295006  48.8655017  35.6759987  90.9295006  36.4435017
  36.6329987  90.9295006  36.4435017  35.4359987  91.8565006  36.4435017
  32.8319987  85.7595006  43.4955017  33.7889987  85.7595006  43.4955017
  32.5919987  86.6865006  43.4955017  25.4129987  90.0525006  39.6435017
  26.3699987  90.0525006  39.6435017  25.1729987  90.9795006  39.6435017
  21.1779987  84.8975006  34.2075017  22.1349987  84.8975006  34.2075017
  20.9379987  85.8245006  34.2075017  26.8239987  87.7355006  39.1665017
  27.7809987  87.7355006  39.1665017  26.5839987  88.6625006  39.1665017
  27.2909987  91.8915006  45.5585017  28.2479987  91.8915006  45.5585017
  27.0509987  92.8185006  45.5585017  25.5149987  92.7345006  38.6805017
  26.4719987  92.7345006  38.6805017  25.2749987  93.6615006  38.6805017
  30.8289987  87.9075006  45.1995017  31.7859987  87.9075006  45.1995017
  30.5889987  88.8345006  45.1995017  33.1279987  88.9665006  34.2865017
  34.0849987  88.9665006  34.2865017  32.8879987  89.8935006  34.2865017
  33.5959987  92.4945006  47.6935017  34.5529987  92.4945006  47.6935017
  33.3559987  93.4215006  47.6935017  37.6049987  93.3325006  34.5255017
  38.5619987  93.3325006  34.5255017  37.3649987  94.2595006  34.5255017
  21.6929987  79.7395006  47.0845017  22.6499987  79.7395006  47.0845017
  21.4529987  80.6665006  47.0845017  33.9289987  87.6135006  36.5245017
  34.8859987  87.6135006  36.5245017  33.6889987  88.5405006  36.5245017
  21.3059987  91.5355006  45.5055017  22.2629987  91.5355006  45.5055017
  21.0659987  92.4625006  45.5055017  27.2499987  90.0475006  32.7545017
  28.2069987  90.0475006  32.7545017  27.0099987  90.9745006  32.7545017
  26.0669987  89.5715006  35.2165017  27.0239987  89.5715006  35.2165017
  25.8269987  90.4985006  35.2165017  22.5749987  86.8155006  35.7105017
  23.5319987  86.8155006  35.7105017  22.3349987  87.7425006  35.7105017
  28.8589987  91.2565006  35.9415017  29.8159987  91.2565006  35.9415017
  28.6189987  92.1835006  35.9415017  28.8979987  81.8085006  47.1195017
  29.8549987  81.8085006  47.1195017  28.6579987  82.7355006  47.1195017
  26.2329987  92.2505006  35.9825017  27.1899987  92.2505006  35.9825017
  25.9929987  93.1775006  35.9825017  24.9009987  79.0175006  35.5395017
  25.8579987  79.0175006  35.5395017  24.6609987  79.9445006  35.5395017
  23.1409987  89.4285006  34.5925017  24.0979987  89.4285006  34.5925017
  22.9009987  90.3555006  34.5925017  21.5079987  82.1015006  33.6895017
  22.4649987  82.1015006  33.6895017  21.2679987  83.0285006  33.6895017
  34.7989987  92.7645006  43.6605017  35.7559987  92.7645006  43.6605017
  34.5589987  93.6915006  43.6605017  22.2899987  76.8965006  42.4485017
  23.2469987  76.8965006  42.4485017  22.0499987  77.8235006  42.4485017
  21.2489987  90.8145006  38.5905017  22.2059987  90.8145006  38.5905017
  21.0089987  91.7415006  38.5905017  20.4779987  93.4575006  49.8915017
  21.4349987  93.4575006  49.8915017  20.2379987  94.3845006  49.8915017
  25.1239987  92.3765006  51.5045017  26.0809987  92.3765006  51.5045017
  24.8839987  93.3035006  51.5045017  29.2469987  91.9095006  32.9085017
  30.2039987  91.9095006  32.9085017  29.0069987  92.8365006  32.9085017
  31.6659987  90.7555006  50.2445017  32.6229987  90.7555006  50.2445017
  31.4259987  91.6825006  50.2445017  33.8199987  91.6545006  33.1055017
  34.7769987  91.6545006  33.1055017  33.5799987  92.5815006  33.1055017
  20.3859987  87.2315006  50.8965017  21.3429987  87.2315006  50.8965017
  20.1459987  88.1585006  50.8965017  24.7199987  87.5925006  32.9245017
  25.6769987  87.5925006  32.9245017  24.4799987  88.5195006  32.9245017
  27.0909987  87.2235006  50.2725017  28.0479987  87.2235006  50.2725017
  26.8509987  88.1505006  50.2725017  30.1379987  88.6755006  32.6895017
  31.0949987  88.6755006  32.6895017  29.8979987  89.6025006  32.6895017
  32.7899987  87.0975006  47.6445017  33.7469987  87.0975006  47.6445017
  32.5499987  88.0245006  47.6445017  21.2909987  84.4685006  50.2695017
  22.2479987  84.4685006  50.2695017  21.0509987  85.3955006  50.2695017
  25.9179987  85.5885006  35.3135017  26.8749987  85.5885006  35.3135017
  25.6779987  86.5155006  35.3135017  25.1969987  83.4295006  47.6265017
  26.1539987  83.4295006  47.6265017  24.9569987  84.3565006  47.6265017
  26.9969987  83.8225006  33.5415017  27.9539987  83.8225006  33.5415017
  26.7569987  84.7495006  33.5415017  30.2479987  85.9615006  50.9325017
  31.2049987  85.9615006  50.9325017  30.0079987  86.8885006  50.9325017
  36.3729987  86.1465006  32.9735017  37.3299987  86.1465006  32.9735017
  36.1329987  87.0735006  32.9735017  25.6219987  80.7865006  48.6945017
  26.5789987  80.7865006  48.6945017  25.3819987  81.7135006  48.6945017
  25.9759987  79.1595006  46.2205017  26.9329987  79.1595006  46.2205017
  25.7359987  80.0865006  46.2205017  27.5349987  84.6405006  46.4715017
  28.4919987  84.6405006  46.4715017  27.2949987  85.5675006  46.4715017
  31.9769987  82.4465006  51.5445017  32.9339987  82.4465006  51.5445017
  31.7369987  83.3735006  51.5445017  24.0459987  82.0415006  50.6285017
  25.0029987  82.0415006  50.6285017  23.8059987  82.9685006  50.6285017
  26.7949987  76.6165006  46.6215017  27.7519987  76.6165006  46.6215017
  26.5549987  77.5435006  46.6215017  28.0659987  80.9495006  50.2155017
  29.0229987  80.9495006  50.2155017  27.8259987  81.8765006  50.2155017
  22.1439987  79.9665006  50.3445017  23.1009987  79.9665006  50.3445017
  21.9039987  80.8935006  50.3445017  26.9869987  75.9945006  49.3265017
  27.9439987  75.9945006  49.3265017  26.7469987  76.9215006  49.3265017
  27.3719987  77.6325006  51.3895017  28.3289987  77.6325006  51.3895017
  27.1319987  78.5595006  51.3895017  26.8239987  94.1585006  34.3995017
  27.7809987  94.1585006  34.3995017  26.5839987  95.0855006  34.3995017
  20.3999987  89.1535006  34.0355017  21.3569987  89.1535006  34.0355017
  20.1599987  90.0805006  34.0355017  19.1539987  94.5005006  39.0555017
  20.1109987  94.5005006  39.0555017  18.9139987  95.4275006  39.0555017
  19.9829987  92.6175006  40.9095017  20.9399987  92.6175006  40.9095017
  19.7429987  93.5445006  40.9095017  37.5169987  93.4175006  43.8615017
  38.4739987  93.4175006  43.8615017  37.2769987  94.3445006  43.8615017
  37.1009987  93.0075006  46.8085017  38.0579987  93.0075006  46.8085017
  36.8609987  93.9345006  46.8085017  35.5319987  88.7465006  51.4565017
  36.4889987  88.7465006  51.4565017  35.2919987  89.6735006  51.4565017
  36.8159987  87.0845006  36.9495017  37.7729987  87.0845006  36.9495017
  36.5759987  88.0115006  36.9495017  37.0359987  87.8695006  43.7995017
  37.9929987  87.8695006  43.7995017  36.7959987  88.7965006  43.7995017
  35.5299987  90.7475006  46.0575017  36.4869987  90.7475006  46.0575017
  35.2899987  91.6745006  46.0575017  20.0349987  85.6895006  43.3985017
  20.9919987  85.6895006  43.3985017  19.7949987  86.6165006  43.3985017
  19.6559987  80.9935006  49.5455017  20.6129987  80.9935006  49.5455017
  19.4159987  81.9205006  49.5455017  20.8599987  79.2755006  42.4295017
  21.8169987  79.2755006  42.4295017  20.6199987  80.2025006  42.4295017
  19.1579987  82.2695006  43.4755017  20.1149987  82.2695006  43.4755017
  18.9179987  83.1965006  43.4755017  19.5219987  78.5025006  37.5005017
  20.4789987  78.5025006  37.5005017  19.2819987  79.4295006  37.5005017
  34.2359987  93.5095006  39.4725017  35.1929987  93.5095006  39.4725017
  33.9959987  94.4365006  39.4725017  19.4619987  77.2215006  45.8345017
  20.4189987  77.2215006  45.8345017  19.2219987  78.1485006  45.8345017
  21.6829987  90.4055006  49.9915017  22.6399987  90.4055006  49.9915017
  21.4429987  91.3325006  49.9915017  24.5939987  91.3995006  46.2645017
  25.5509987  91.3995006  46.2645017  24.3539987  92.3265006  46.2645017
  28.9129987  92.8275006  49.1815017  29.8699987  92.8275006  49.1815017
  28.6729987  93.7545006  49.1815017  31.2109987  94.0975006  48.4705017
  32.1679987  94.0975006  48.4705017  30.9709987  95.0245006  48.4705017
  22.0199987  94.6485006  46.2745017  22.9769987  94.6485006  46.2745017
  21.7799987  95.5755006  46.2745017  24.4889987  94.2305006  45.3385017
  25.4459987  94.2305006  45.3385017  24.2489987  95.1575006  45.3385017
  29.1909987  94.1395006  44.5055017  30.1479987  94.1395006  44.5055017
  28.9509987  95.0665006  44.5055017  31.4979987  92.9705006  45.5035017
  32.4549987  92.9705006  45.5035017  31.2579987  93.8975006  45.5035017
  34.0799987  94.5385006  45.7615017  35.0369987  94.5385006  45.7615017
  33.8399987  95.4655006  45.7615017  21.4539987  93.2975006  43.2045017
  22.4109987  93.2975006  43.2045017  21.2139987  94.2245006  43.2045017
  23.5489987  92.0095006  41.8575017  24.5059987  92.0095006  41.8575017
  23.3089987  92.9365006  41.8575017  26.1379987  92.4915006  42.7285017
  27.0949987  92.4915006  42.7285017  25.8979987  93.4185006  42.7285017
  21.9619987  76.7775006  39.7205017  22.9189987  76.7775006  39.7205017
  21.7219987  77.7045006  39.7205017  20.7479987  76.5315006  35.4555017
  21.7049987  76.5315006  35.4555017  20.5079987  77.4585006  35.4555017
  26.4889987  76.7125006  39.5025017  27.4459987  76.7125006  39.5025017
  26.2489987  77.6395006  39.5025017  20.6749987  92.4815006  36.4285017
  21.6319987  92.4815006  36.4285017  20.4349987  93.4085006  36.4285017
  22.6159987  78.4815006  33.9165017  23.5729987  78.4815006  33.9165017
  22.3759987  79.4085006  33.9165017  29.4949987  93.8515006  34.7585017
  30.4519987  93.8515006  34.7585017  29.2549987  94.7785006  34.7585017
  36.2459987  93.2885006  37.5105017  37.2029987  93.2885006  37.5105017
  36.0059987  94.2155006  37.5105017  21.8669987  77.3055006  49.1745017
  22.8239987  77.3055006  49.1745017  21.6269987  78.2325006  49.1745017
  23.8669987  76.6785006  50.7835017  24.8239987  76.6785006  50.7835017
  23.6269987  77.6055006  50.7835017  22.4669987  93.4535006  33.4035017
  23.4239987  93.4535006  33.4035017  22.2269987  94.3805006  33.4035017
  35.4779987  92.0445006  49.6055017  36.4349987  92.0445006  49.6055017
  35.2379987  92.9715006  49.6055017  49.4769987  93.0675006  41.5005017
  50.4339987  93.0675006  41.5005017  49.2369987  93.9945006  41.5005017
  39.3909987  88.2965006  37.0025017  40.3479987  88.2965006  37.0025017
  39.1509987  89.2235006  37.0025017  52.4679987  89.6595006  38.8135017
  53.4249987  89.6595006  38.8135017  52.2279987  90.5865006  38.8135017
  48.5509987  85.1005006  36.9605017  49.5079987  85.1005006  36.9605017
  48.3109987  86.0275006  36.9605017  55.7369987  90.6665006  33.9585017
  56.6939987  90.6665006  33.9585017  55.4969987  91.5935006  33.9585017
  38.6589987  87.4475006  46.3685017  39.6159987  87.4475006  46.3685017
  38.4189987  88.3745006  46.3685017  38.4889987  90.2135006  43.2135017
  39.4459987  90.2135006  43.2135017  38.2489987  91.1405006  43.2135017
  56.6799987  90.9125006  48.8985017  57.6369987  90.9125006  48.8985017
  56.4399987  91.8395006  48.8985017  48.1189987  94.2055006  37.5575017
  49.0759987  94.2055006  37.5575017  47.8789987  95.1325006  37.5575017
  41.7239987  93.0685006  39.3875017  42.6809987  93.0685006  39.3875017
  41.4839987  93.9955006  39.3875017  51.1169987  93.4365006  34.5555017
  52.0739987  93.4365006  34.5555017  50.8769987  94.3635006  34.5555017
  50.8339987  93.3165006  37.2765017  51.7909987  93.3165006  37.2765017
  50.5939987  94.2435006  37.2765017  52.3569987  85.4755006  33.4265017
  53.3139987  85.4755006  33.4265017  52.1169987  86.4025006  33.4265017
  42.5709987  78.7845006  38.7615017  43.5279987  78.7845006  38.7615017
  42.3309987  79.7115006  38.7615017  46.7789987  87.2395006  36.4635017
  47.7359987  87.2395006  36.4635017  46.5389987  88.1665006  36.4635017
  48.8489987  88.7075006  35.4335017  49.8059987  88.7075006  35.4335017
  48.6089987  89.6345006  35.4335017  56.2529987  87.9705006  48.8495017
  57.2099987  87.9705006  48.8495017  56.0129987  88.8975006  48.8495017
  54.5839987  90.8945006  36.4955017  55.5409987  90.8945006  36.4955017
  54.3439987  91.8215006  36.4955017  40.0249987  84.9205006  34.2035017
  40.9819987  84.9205006  34.2035017  39.7849987  85.8475006  34.2035017
  44.3559987  92.7425006  38.6845017  45.3129987  92.7425006  38.6845017
  44.1159987  93.6695006  38.6845017  56.4459987  93.3415006  34.5035017
  57.4029987  93.3415006  34.5035017  56.2059987  94.2685006  34.5035017
  52.8029987  87.6435006  36.6205017  53.7599987  87.6435006  36.6205017
  52.5629987  88.5705006  36.6205017  40.1309987  91.5375006  45.5025017
  41.0879987  91.5375006  45.5025017  39.8909987  92.4645006  45.5025017
  46.0859987  90.0325006  32.7555017  47.0429987  90.0325006  32.7555017
  45.8459987  90.9595006  32.7555017  44.9379987  89.5675006  35.2265017
  45.8949987  89.5675006  35.2265017  44.6979987  90.4945006  35.2265017
  41.4419987  86.8135006  35.7095017  42.3989987  86.8135006  35.7095017
  41.2019987  87.7405006  35.7095017  47.7059987  91.2395006  35.9535017
  48.6629987  91.2395006  35.9535017  47.4659987  92.1665006  35.9535017
  45.0819987  92.2685006  35.9465017  46.0389987  92.2685006  35.9465017
  44.8419987  93.1955006  35.9465017  42.0039987  89.4395006  34.5875017
  42.9609987  89.4395006  34.5875017  41.7639987  90.3665006  34.5875017
  53.7099987  92.6595006  43.6175017  54.6669987  92.6595006  43.6175017
  53.4699987  93.5865006  43.6175017  40.1039987  90.8395006  38.6185017
  41.0609987  90.8395006  38.6185017  39.8639987  91.7665006  38.6185017
  39.3279987  93.4615006  49.8965017  40.2849987  93.4615006  49.8965017
  39.0879987  94.3885006  49.8965017  43.9859987  92.3875006  51.5175017
  44.9429987  92.3875006  51.5175017  43.7459987  93.3145006  51.5175017
  48.1189987  91.8965006  32.9025017  49.0759987  91.8965006  32.9025017
  47.8789987  92.8235006  32.9025017  52.6779987  91.6835006  33.1155017
  53.6349987  91.6835006  33.1155017  52.4379987  92.6105006  33.1155017
  43.6259987  87.6055006  32.9555017  44.5829987  87.6055006  32.9555017
  43.3859987  88.5325006  32.9555017  45.9269987  87.2385006  50.2575017
  46.8839987  87.2385006  50.2575017  45.6869987  88.1655006  50.2575017
  48.8759987  88.6705006  32.6515017  49.8329987  88.6705006  32.6515017
  48.6359987  89.5975006  32.6515017  45.6919987  94.5205006  34.5845017
  46.6489987  94.5205006  34.5845017  45.4519987  95.4475006  34.5845017
  39.2499987  89.1145006  34.0525017  40.2069987  89.1145006  34.0525017
  39.0099987  90.0415006  34.0525017  38.0109987  94.5015006  39.0525017
  38.9679987  94.5015006  39.0525017  37.7709987  95.4285006  39.0525017
  38.8389987  92.6145006  40.9145017  39.7959987  92.6145006  40.9145017
  38.5989987  93.5415006  40.9145017  56.4189987  93.4015006  43.8745017
  57.3759987  93.4015006  43.8745017  56.1789987  94.3285006  43.8745017
  55.9979987  93.0075006  46.7875017  56.9549987  93.0075006  46.7875017
  55.7579987  93.9345006  46.7875017  54.3719987  88.7055006  51.4295017
  55.3289987  88.7055006  51.4295017  54.1319987  89.6325006  51.4295017
  56.3759987  85.0075006  35.1695017  57.3329987  85.0075006  35.1695017
  56.1359987  85.9345006  35.1695017  54.7619987  85.5845006  49.0045017
  55.7189987  85.5845006  49.0045017  54.5219987  86.5115006  49.0045017
  53.0859987  93.5155006  39.4615017  54.0429987  93.5155006  39.4615017
  52.8459987  94.4425006  39.4615017  40.5279987  90.4425006  50.0195017
  41.4849987  90.4425006  50.0195017  40.2879987  91.3695006  50.0195017
  47.7599987  92.8965006  49.2275017  48.7169987  92.8965006  49.2275017
  47.5199987  93.8235006  49.2275017  40.8719987  94.6575006  46.2705017
  41.8289987  94.6575006  46.2705017  40.6319987  95.5845006  46.2705017
  43.3679987  94.2875006  45.2935017  44.3249987  94.2875006  45.2935017
  43.1279987  95.2145006  45.2935017  48.0219987  94.1325006  44.5095017
  48.9789987  94.1325006  44.5095017  47.7819987  95.0595006  44.5095017
  40.2779987  93.2965006  43.1965017  41.2349987  93.2965006  43.1965017
  40.0379987  94.2235006  43.1965017  42.4259987  92.0135006  41.8725017
  43.3829987  92.0135006  41.8725017  42.1859987  92.9405006  41.8725017
  39.5219987  92.4795006  36.4385017  40.4789987  92.4795006  36.4385017
  39.2819987  93.4065006  36.4385017  48.3689987  93.8525006  34.7515017
  49.3259987  93.8525006  34.7515017  48.1289987  94.7795006  34.7515017
  55.1129987  93.2825006  37.5265017  56.0699987  93.2825006  37.5265017
  54.8729987  94.2095006  37.5265017  41.3239987  93.4495006  33.4115017
  42.2809987  93.4495006  33.4115017  41.0839987  94.3765006  33.4115017
  68.7609987  85.9075006  39.6395017  69.7179987  85.9075006  39.6395017
  68.5209987  86.8345006  39.6395017  67.6389987  85.1575006  43.0635017
  68.5959987  85.1575006  43.0635017  67.3989987  86.0845006  43.0635017
  71.3489987  88.1185006  41.3535017  72.3059987  88.1185006  41.3535017
  71.1089987  89.0455006  41.3535017  60.9179987  89.2805006  43.1015017
  61.8749987  89.2805006  43.1015017  60.6779987  90.2075006  43.1015017
  68.4379987  93.2575006  41.5875017  69.3949987  93.2575006  41.5875017
  68.1979987  94.1845006  41.5875017  66.0239987  87.6035006  43.5085017
  66.9809987  87.6035006  43.5085017  65.7839987  88.5305006  43.5085017
  75.1469987  80.6785006  46.5905017  76.1039987  80.6785006  46.5905017
  74.9069987  81.6055006  46.5905017  68.5089987  88.5245006  38.6745017
  69.4659987  88.5245006  38.6745017  68.2689987  89.4515006  38.6745017
  63.7279987  86.6665006  45.3735017  64.6849987  86.6665006  45.3735017
  63.4879987  87.5935006  45.3735017  62.1489987  88.6575006  46.2015017
  63.1059987  88.6575006  46.2015017  61.9089987  89.5845006  46.2015017
  71.8619987  89.9455006  43.7275017  72.8189987  89.9455006  43.7275017
  71.6219987  90.8725006  43.7275017  70.1129987  91.7335006  40.3315017
  71.0699987  91.7335006  40.3315017  69.8729987  92.6605006  40.3315017
  71.3259987  89.6715006  38.8455017  72.2829987  89.6715006  38.8455017
  71.0859987  90.5985006  38.8455017  72.9619987  88.2395006  47.3335017
  73.9189987  88.2395006  47.3335017  72.7219987  89.1665006  47.3335017
  74.8369987  84.5575006  45.3985017  75.7939987  84.5575006  45.3985017
  74.5969987  85.4845006  45.3985017  70.8119987  83.5295006  47.1445017
  71.7689987  83.5295006  47.1445017  70.5719987  84.4565006  47.1445017
  63.8099987  89.3955006  42.6045017  64.7669987  89.3955006  42.6045017
  63.5699987  90.3225006  42.6045017  69.2169987  90.3255006  44.2895017
  70.1739987  90.3255006  44.2895017  68.9769987  91.2525006  44.2895017
  63.7809987  89.1965006  48.2975017  64.7379987  89.1965006  48.2975017
  63.5409987  90.1235006  48.2975017  60.6819987  85.3375006  47.5035017
  61.6389987  85.3375006  47.5035017  60.4419987  86.2645006  47.5035017
  67.4639987  91.2705006  39.1465017  68.4209987  91.2705006  39.1465017
  67.2239987  92.1975006  39.1465017  62.0129987  91.2355006  49.0415017
  62.9699987  91.2355006  49.0415017  61.7729987  92.1625006  49.0415017
  74.5949987  90.6515006  33.9275017  75.5519987  90.6515006  33.9275017
  74.3549987  91.5785006  33.9275017  57.5839987  87.4355006  46.4155017
  58.5409987  87.4355006  46.4155017  57.3439987  88.3625006  46.4155017
  57.3399987  90.2335006  43.1695017  58.2969987  90.2335006  43.1695017
  57.0999987  91.1605006  43.1695017  75.5579987  90.9045006  48.9045017
  76.5149987  90.9045006  48.9045017  75.3179987  91.8315006  48.9045017
  66.5179987  90.4505006  47.7675017  67.4749987  90.4505006  47.7675017
  66.2779987  91.3775006  47.7675017  66.9549987  94.2055006  37.5765017
  67.9119987  94.2055006  37.5765017  66.7149987  95.1325006  37.5765017
  70.0119987  93.4035006  34.5555017  70.9689987  93.4035006  34.5555017
  69.7719987  94.3305006  34.5555017  69.7019987  93.3285006  37.3215017
  70.6589987  93.3285006  37.3215017  69.4619987  94.2555006  37.3215017
  72.6799987  82.3825006  49.4065017  73.6369987  82.3825006  49.4065017
  72.4399987  83.3095006  49.4065017  59.8019987  88.8075006  47.3925017
  60.7589987  88.8075006  47.3925017  59.5619987  89.7345006  47.3925017
  67.1259987  76.9815006  46.7655017  68.0829987  76.9815006  46.7655017
  66.8859987  77.9085006  46.7655017  70.4629987  80.7305006  47.6135017
  71.4199987  80.7305006  47.6135017  70.2229987  81.6575006  47.6135017
  67.1589987  83.0415006  49.6735017  68.1159987  83.0415006  49.6735017
  66.9189987  83.9685006  49.6735017  68.3719987  83.9285006  45.6465017
  69.3289987  83.9285006  45.6465017  68.1319987  84.8555006  45.6465017
  72.7539987  94.7725006  50.0175017  73.7109987  94.7725006  50.0175017
  72.5139987  95.6995006  50.0175017  60.4099987  87.2055006  49.5835017
  61.3669987  87.2055006  49.5835017  60.1699987  88.1325006  49.5835017
  72.8039987  86.3825006  45.2635017  73.7609987  86.3825006  45.2635017
  72.5639987  87.3095006  45.2635017  67.1459987  87.4525006  47.7065017
  68.1029987  87.4525006  47.7065017  66.9059987  88.3795006  47.7065017
  60.7779987  86.5995006  42.2385017  61.7349987  86.5995006  42.2385017
  60.5379987  87.5265006  42.2385017  67.7779987  88.7045006  35.5095017
  68.7349987  88.7045006  35.5095017  67.5379987  89.6315006  35.5095017
  64.7639987  84.5745006  49.7505017  65.7209987  84.5745006  49.7505017
  64.5239987  85.5015006  49.7505017  69.4279987  89.8905006  47.6445017
  70.3849987  89.8905006  47.6445017  69.1879987  90.8175006  47.6445017
  75.0969987  87.9405006  48.8585017  76.0539987  87.9405006  48.8585017
  74.8569987  88.8675006  48.8585017  73.3939987  90.9215006  36.4525017
  74.3509987  90.9215006  36.4525017  73.1539987  91.8485006  36.4525017
  70.5989987  85.7235006  43.5465017  71.5559987  85.7235006  43.5465017
  70.3589987  86.6505006  43.5465017  63.1039987  90.0465006  39.6615017
  64.0609987  90.0465006  39.6615017  62.8639987  90.9735006  39.6615017
  64.5409987  87.7215006  39.2085017  65.4979987  87.7215006  39.2085017
  64.3009987  88.6485006  39.2085017  64.9999987  91.8935006  45.5585017
  65.9569987  91.8935006  45.5585017  64.7599987  92.8205006  45.5585017
  63.1849987  92.7115006  38.7375017  64.1419987  92.7115006  38.7375017
  62.9449987  93.6385006  38.7375017  68.5419987  87.9275006  45.1945017
  69.4989987  87.9275006  45.1945017  68.3019987  88.8545006  45.1945017
  70.8329987  88.9745006  34.2985017  71.7899987  88.9745006  34.2985017
  70.5929987  89.9015006  34.2985017  71.3129987  92.4915006  47.6935017
  72.2699987  92.4915006  47.6935017  71.0729987  93.4185006  47.6935017
  75.3159987  93.3335006  34.5235017  76.2729987  93.3335006  34.5235017
  75.0759987  94.2605006  34.5235017  71.6499987  87.6345006  36.5475017
  72.6069987  87.6345006  36.5475017  71.4099987  88.5615006  36.5475017
  59.0409987  91.5565006  45.5085017  59.9979987  91.5565006  45.5085017
  58.8009987  92.4835006  45.5085017  64.9489987  90.0045006  32.7595017
  65.9059987  90.0045006  32.7595017  64.7089987  90.9315006  32.7595017
  68.1139987  79.5045006  45.9985017  69.0709987  79.5045006  45.9985017
  67.8739987  80.4315006  45.9985017  66.5649987  91.2415006  35.9215017
  67.5219987  91.2415006  35.9215017  66.3249987  92.1685006  35.9215017
  66.6829987  81.8685006  47.0955017  67.6399987  81.8685006  47.0955017
  66.4429987  82.7955006  47.0955017  63.9089987  92.2885006  35.9335017
  64.8659987  92.2885006  35.9335017  63.6689987  93.2155006  35.9335017
  72.8529987  79.7695006  47.9675017  73.8099987  79.7695006  47.9675017
  72.6129987  80.6965006  47.9675017  71.3999987  83.5365006  42.0745017
  72.3569987  83.5365006  42.0745017  71.1599987  84.4635006  42.0745017
  60.9119987  89.5475006  34.4805017  61.8689987  89.5475006  34.4805017
  60.6719987  90.4745006  34.4805017  72.5109987  92.7635006  43.6605017
  73.4679987  92.7635006  43.6605017  72.2709987  93.6905006  43.6605017
  58.2199987  93.4455006  49.8745017  59.1769987  93.4455006  49.8745017
  57.9799987  94.3725006  49.8745017  62.8229987  92.3635006  51.5005017
  63.7799987  92.3635006  51.5005017  62.5829987  93.2905006  51.5005017
  66.9619987  91.9075006  32.9015017  67.9189987  91.9075006  32.9015017
  66.7219987  92.8345006  32.9015017  69.3789987  90.7605006  50.2435017
  70.3359987  90.7605006  50.2435017  69.1389987  91.6875006  50.2435017
  71.5399987  91.6605006  33.0955017  72.4969987  91.6605006  33.0955017
  71.2999987  92.5875006  33.0955017  58.1319987  87.2485006  50.8295017
  59.0889987  87.2485006  50.8295017  57.8919987  88.1755006  50.8295017
  64.7989987  87.2305006  50.2755017  65.7559987  87.2305006  50.2755017
  64.5589987  88.1575006  50.2755017  67.8199987  88.6675006  32.6775017
  68.7769987  88.6675006  32.6775017  67.5799987  89.5945006  32.6775017
  70.5029987  87.0965006  47.6585017  71.4599987  87.0965006  47.6585017
  70.2629987  88.0235006  47.6585017  62.8829987  83.4095006  47.6025017
  63.8399987  83.4095006  47.6025017  62.6429987  84.3365006  47.6025017
  67.9659987  85.9475006  50.9235017  68.9229987  85.9475006  50.9235017
  67.7259987  86.8745006  50.9235017  74.1129987  86.1635006  32.9875017
  75.0699987  86.1635006  32.9875017  73.8729987  87.0905006  32.9875017
  65.2479987  84.6375006  46.4615017  66.2049987  84.6375006  46.4615017
  65.0079987  85.5645006  46.4615017  69.6449987  82.4275006  51.4075017
  70.6019987  82.4275006  51.4075017  69.4049987  83.3545006  51.4075017
  70.9839987  85.2235006  49.5955017  71.9409987  85.2235006  49.5955017
  70.7439987  86.1505006  49.5955017  65.7469987  80.9215006  50.2195017
  66.7039987  80.9215006  50.2195017  65.5069987  81.8485006  50.2195017
  68.4459987  80.0505006  49.2705017  69.4029987  80.0505006  49.2705017
  68.2059987  80.9775006  49.2705017  65.1829987  77.6755006  51.3345017
  66.1399987  77.6755006  51.3345017  64.9429987  78.6025006  51.3345017
  64.5489987  94.5165006  34.5925017  65.5059987  94.5165006  34.5925017
  64.3089987  95.4435006  34.5925017  58.0999987  89.1105006  33.9595017
  59.0569987  89.1105006  33.9595017  57.8599987  90.0375006  33.9595017
  56.8769987  94.4865006  39.0625017  57.8339987  94.4865006  39.0625017
  56.6369987  95.4135006  39.0625017  75.2299987  93.4155006  43.8605017
  76.1869987  93.4155006  43.8605017  74.9899987  94.3425006  43.8605017
  74.8089987  93.0145006  46.8075017  75.7659987  93.0145006  46.8075017
  74.5689987  93.9415006  46.8075017  73.2479987  88.7465006  51.4405017
  74.2049987  88.7465006  51.4405017  73.0079987  89.6735006  51.4405017
  74.5619987  87.0545006  36.9155017  75.5189987  87.0545006  36.9155017
  74.3219987  87.9815006  36.9155017  74.9259987  85.0835006  38.7935017
  75.8829987  85.0835006  38.7935017  74.6859987  86.0105006  38.7935017
  74.6979987  87.8445006  43.7725017  75.6549987  87.8445006  43.7725017
  74.4579987  88.7715006  43.7725017  73.2389987  90.7375006  46.0465017
  74.1959987  90.7375006  46.0465017  72.9989987  91.6645006  46.0465017
  75.2359987  84.9905006  35.1855017  76.1929987  84.9905006  35.1855017
  74.9959987  85.9175006  35.1855017  73.5979987  85.5805006  49.0245017
  74.5549987  85.5805006  49.0245017  73.3579987  86.5075006  49.0245017
  75.1139987  83.4785006  49.6785017  76.0709987  83.4785006  49.6785017
  74.8739987  84.4055006  49.6785017  73.0439987  81.7905006  43.2615017
  74.0009987  81.7905006  43.2615017  72.8039987  82.7175006  43.2615017
  73.1219987  82.4695006  46.0375017  74.0789987  82.4695006  46.0375017
  72.8819987  83.3965006  46.0375017  71.9559987  93.4995006  39.4765017
  72.9129987  93.4995006  39.4765017  71.7159987  94.4265006  39.4765017
  59.3919987  90.3725006  49.9885017  60.3489987  90.3725006  49.9885017
  59.1519987  91.2995006  49.9885017  62.3049987  91.3985006  46.2645017
  63.2619987  91.3985006  46.2645017  62.0649987  92.3255006  46.2645017
  66.6249987  92.8275006  49.1835017  67.5819987  92.8275006  49.1835017
  66.3849987  93.7545006  49.1835017  68.9239987  94.0975006  48.4705017
  69.8809987  94.0975006  48.4705017  68.6839987  95.0245006  48.4705017
  59.7339987  94.7055006  46.2985017  60.6909987  94.7055006  46.2985017
  59.4939987  95.6325006  46.2985017  62.2069987  94.2555006  45.3595017
  63.1639987  94.2555006  45.3595017  61.9669987  95.1825006  45.3595017
  66.9019987  94.1405006  44.5035017  67.8589987  94.1405006  44.5035017
  66.6619987  95.0675006  44.5035017  69.2099987  92.9705006  45.5035017
  70.1669987  92.9705006  45.5035017  68.9699987  93.8975006  45.5035017
  71.7919987  94.5375006  45.7615017  72.7489987  94.5375006  45.7615017
  71.5519987  95.4645006  45.7615017  59.2019987  93.3355006  43.2135017
  60.1589987  93.3355006  43.2135017  58.9619987  94.2625006  43.2135017
  61.2489987  91.9945006  41.8335017  62.2059987  91.9945006  41.8335017
  61.0089987  92.9215006  41.8335017  63.8429987  92.4865006  42.7255017
  64.7999987  92.4865006  42.7255017  63.6029987  93.4135006  42.7255017
  67.2429987  93.7685006  34.8035017  68.1999987  93.7685006  34.8035017
  67.0029987  94.6955006  34.8035017  73.9579987  93.2885006  37.5105017
  74.9149987  93.2885006  37.5105017  73.7179987  94.2155006  37.5105017
  60.1839987  93.4495006  33.4135017  61.1409987  93.4495006  33.4135017
  59.9439987  94.3765006  33.4135017  73.1939987  92.0255006  49.6055017
  74.1509987  92.0255006  49.6055017  72.9539987  92.9525006  49.6055017
  87.6239987  85.9095006  39.5925017  88.5809987  85.9095006  39.5925017
  87.3839987  86.8365006  39.5925017  86.4959987  85.1695006  43.0785017
  87.4529987  85.1695006  43.0785017  86.2559987  86.0965006  43.0785017
  78.8449987  84.8095006  44.6425017  79.8019987  84.8095006  44.6425017
  78.6049987  85.7365006  44.6425017  90.1729987  88.1215006  41.3525017
  91.1299987  88.1215006  41.3525017  89.9329987  89.0485006  41.3525017
  79.7679987  89.2935006  43.0225017  80.7249987  89.2935006  43.0225017
  79.5279987  90.2205006  43.0225017  76.4369987  82.8475006  38.5835017
  77.3939987  82.8475006  38.5835017  76.1969987  83.7745006  38.5835017
  77.0969987  85.0555006  40.7295017  78.0539987  85.0555006  40.7295017
  76.8569987  85.9825006  40.7295017  87.2909987  93.2335006  41.5595017
  88.2479987  93.2335006  41.5595017  87.0509987  94.1605006  41.5595017
  84.8539987  87.5655006  43.5555017  85.8109987  87.5655006  43.5555017
  84.6139987  88.4925006  43.5555017  93.4919987  79.2135006  44.2915017
  94.4489987  79.2135006  44.2915017  93.2519987  80.1405006  44.2915017
  88.0309987  82.0275006  43.8465017  88.9879987  82.0275006  43.8465017
  87.7909987  82.9545006  43.8465017  88.8989987  80.2085006  39.4505017
  89.8559987  80.2085006  39.4505017  88.6589987  81.1355006  39.4505017
  77.7919987  82.5255006  41.8385017  78.7489987  82.5255006  41.8385017
  77.5519987  83.4525006  41.8385017  82.9379987  84.0765006  41.1185017
  83.8949987  84.0765006  41.1185017  82.6979987  85.0035006  41.1185017
  93.9289987  80.6485006  46.5505017  94.8859987  80.6485006  46.5505017
  93.6889987  81.5755006  46.5505017  87.4059987  88.5395006  38.6505017
  88.3629987  88.5395006  38.6505017  87.1659987  89.4665006  38.6505017
  82.6069987  86.6895006  45.3345017  83.5639987  86.6895006  45.3345017
  82.3669987  87.6165006  45.3345017  90.6919987  79.5385006  41.4405017
  91.6489987  79.5385006  41.4405017  90.4519987  80.4655006  41.4405017
  79.6059987  80.8885006  43.1095017  80.5629987  80.8885006  43.1095017
  79.3659987  81.8155006  43.1095017  80.4549987  89.0445006  45.5995017
  81.4119987  89.0445006  45.5995017  80.2149987  89.9715006  45.5995017
  77.1089987  88.2995006  36.9875017  78.0659987  88.2995006  36.9875017
  76.8689987  89.2265006  36.9875017  90.7139987  89.9455006  43.7035017
  91.6709987  89.9455006  43.7035017  90.4739987  90.8725006  43.7035017
  91.0369987  78.2405006  45.1315017  91.9939987  78.2405006  45.1315017
  90.7969987  79.1675006  45.1315017  89.1729987  91.6805006  40.7375017
  90.1299987  91.6805006  40.7375017  88.9329987  92.6075006  40.7375017
  90.1409987  89.6505006  38.8425017  91.0979987  89.6505006  38.8425017
  89.9009987  90.5775006  38.8425017  91.8069987  88.2395006  47.3325017
  92.7639987  88.2395006  47.3325017  91.5669987  89.1665006  47.3325017
  86.2979987  85.1555006  37.1055017  87.2549987  85.1555006  37.1055017
  86.0579987  86.0825006  37.1055017  86.3539987  83.6735006  34.1125017
  87.3109987  83.6735006  34.1125017  86.1139987  84.6005006  34.1125017
  93.6799987  84.5545006  45.3835017  94.6369987  84.5545006  45.3835017
  93.4399987  85.4815006  45.3835017  89.7449987  85.3705006  38.0205017
  90.7019987  85.3705006  38.0205017  89.5049987  86.2975006  38.0205017
  89.6589987  83.5215006  47.1305017  90.6159987  83.5215006  47.1305017
  89.4189987  84.4485006  47.1305017  81.3539987  86.0285006  39.9345017
  82.3109987  86.0285006  39.9345017  81.1139987  86.9555006  39.9345017
  82.6759987  89.3945006  42.6365017  83.6329987  89.3945006  42.6365017
  82.4359987  90.3215006  42.6365017  81.6869987  84.7755006  43.5885017
  82.6439987  84.7755006  43.5885017  81.4469987  85.7025006  43.5885017
  88.0789987  90.3235006  44.2855017  89.0359987  90.3235006  44.2855017
  87.8389987  91.2505006  44.2855017  82.6469987  89.2545006  48.2945017
  83.6039987  89.2545006  48.2945017  82.4069987  90.1815006  48.2945017
  88.5969987  84.5425006  35.6995017  89.5539987  84.5425006  35.6995017
  88.3569987  85.4695006  35.6995017  79.5919987  85.4105006  47.4435017
  80.5489987  85.4105006  47.4435017  79.3519987  86.3375006  47.4435017
  86.3619987  91.3135006  39.1445017  87.3189987  91.3135006  39.1445017
  86.1219987  92.2405006  39.1445017  80.8749987  91.1695006  49.0455017
  81.8319987  91.1695006  49.0455017  80.6349987  92.0965006  49.0455017
  92.3259987  76.2805006  35.5655017  93.2829987  76.2805006  35.5655017
  92.0859987  77.2075006  35.5655017  80.3239987  85.1035006  37.5765017
  81.2809987  85.1035006  37.5765017  80.0839987  86.0305006  37.5765017
  93.4509987  90.6365006  33.9375017  94.4079987  90.6365006  33.9375017
  93.2109987  91.5635006  33.9375017  76.4389987  87.4545006  46.4155017
  77.3959987  87.4545006  46.4155017  76.1989987  88.3815006  46.4155017
  76.1869987  90.2075006  43.2235017  77.1439987  90.2075006  43.2235017
  75.9469987  91.1345006  43.2235017  94.4109987  90.9005006  48.9045017
  95.3679987  90.9005006  48.9045017  94.1709987  91.8275006  48.9045017
  85.3629987  90.4425006  47.7685017  86.3199987  90.4425006  47.7685017
  85.1229987  91.3695006  47.7685017  85.8349987  94.1915006  37.5745017
  86.7919987  94.1915006  37.5745017  85.5949987  95.1185006  37.5745017
  79.4459987  93.0615006  39.3805017  80.4029987  93.0615006  39.3805017
  79.2059987  93.9885006  39.3805017  88.8669987  93.4005006  34.5295017
  89.8239987  93.4005006  34.5295017  88.6269987  94.3275006  34.5295017
  88.4769987  93.5735006  37.1095017  89.4339987  93.5735006  37.1095017
  88.2369987  94.5005006  37.1095017  91.5539987  82.3775006  49.3865017
  92.5109987  82.3775006  49.3865017  91.3139987  83.3045006  49.3865017
  78.7229987  88.7235006  47.4245017  79.6799987  88.7235006  47.4245017
  78.4829987  89.6505006  47.4245017  85.9899987  76.9865006  46.7355017
  86.9469987  76.9865006  46.7355017  85.7499987  77.9135006  46.7355017
  89.3089987  80.7515006  47.5985017  90.2659987  80.7515006  47.5985017
  89.0689987  81.6785006  47.5985017  90.0549987  85.5845006  33.4445017
  91.0119987  85.5845006  33.4445017  89.8149987  86.5115006  33.4445017
  85.6359987  79.4895006  33.9865017  86.5929987  79.4895006  33.9865017
  85.3959987  80.4165006  33.9865017  81.4719987  82.2235006  44.5565017
  82.4289987  82.2235006  44.5565017  81.2319987  83.1505006  44.5565017
  81.4249987  82.4685006  39.3895017  82.3819987  82.4685006  39.3895017
  81.1849987  83.3955006  39.3895017  86.9759987  82.8655006  38.2475017
  87.9329987  82.8655006  38.2475017  86.7359987  83.7925006  38.2475017
  86.0209987  83.0495006  49.6675017  86.9779987  83.0495006  49.6675017
  85.7809987  83.9765006  49.6675017  87.9809987  82.3235006  41.0505017
  88.9379987  82.3235006  41.0505017  87.7409987  83.2505006  41.0505017
  79.1389987  82.5175006  46.3085017  80.0959987  82.5175006  46.3085017
  78.8989987  83.4445006  46.3085017  87.1939987  83.9265006  45.6415017
  88.1509987  83.9265006  45.6415017  86.9539987  84.8535006  45.6415017
  78.7359987  81.5495006  39.2905017  79.6929987  81.5495006  39.2905017
  78.4959987  82.4765006  39.2905017  88.3879987  79.1235006  43.6945017
  89.3449987  79.1235006  43.6945017  88.1479987  80.0505006  43.6945017
  81.1209987  82.7315006  34.4925017  82.0779987  82.7315006  34.4925017
  80.8809987  83.6585006  34.4925017  91.6109987  94.7705006  50.0215017
  92.5679987  94.7705006  50.0215017  91.3709987  95.6975006  50.0215017
  79.3149987  87.2385006  49.5795017  80.2719987  87.2385006  49.5795017
  79.0749987  88.1655006  49.5795017  85.2959987  82.6625006  42.3805017
  86.2529987  82.6625006  42.3805017  85.0559987  83.5895006  42.3805017
  83.9319987  80.9985006  44.7875017  84.8889987  80.9985006  44.7875017
  83.6919987  81.9255006  44.7875017  84.4989987  87.2375006  36.4555017
  85.4559987  87.2375006  36.4555017  84.2589987  88.1645006  36.4555017
  91.6669987  86.3905006  45.2635017  92.6239987  86.3905006  45.2635017
  91.4269987  87.3175006  45.2635017  88.3419987  80.0265006  34.6275017
  89.2989987  80.0265006  34.6275017  88.1019987  80.9535006  34.6275017
  85.8999987  87.4525006  47.6725017  86.8569987  87.4525006  47.6725017
  85.6599987  88.3795006  47.6725017  89.0819987  81.9225006  36.2715017
  90.0389987  81.9225006  36.2715017  88.8419987  82.8495006  36.2715017
  79.6179987  86.5795006  42.2655017  80.5749987  86.5795006  42.2655017
  79.3779987  87.5065006  42.2655017  86.6179987  88.6865006  35.5095017
  87.5749987  88.6865006  35.5095017  86.3779987  89.6135006  35.5095017
  76.6239987  84.9805006  47.5175017  77.5809987  84.9805006  47.5175017
  76.3839987  85.9075006  47.5175017  83.6219987  84.5925006  49.7025017
  84.5789987  84.5925006  49.7025017  83.3819987  85.5195006  49.7025017
  88.2819987  89.8865006  47.6415017  89.2389987  89.8865006  47.6415017
  88.0419987  90.8135006  47.6415017  93.9789987  82.0795006  36.0355017
  94.9359987  82.0795006  36.0355017  93.7389987  83.0065006  36.0355017
  93.9529987  87.9405006  48.8585017  94.9099987  87.9405006  48.8585017
  93.7129987  88.8675006  48.8585017  92.1909987  90.9195006  36.4425017
  93.1479987  90.9195006  36.4425017  91.9509987  91.8465006  36.4425017
  89.4589987  85.7265006  43.5365017  90.4159987  85.7265006  43.5365017
  89.2189987  86.6535006  43.5365017  81.9829987  90.0495006  39.6415017
  82.9399987  90.0495006  39.6415017  81.7429987  90.9765006  39.6415017
  77.7629987  84.9105006  34.1935017  78.7199987  84.9105006  34.1935017
  77.5229987  85.8375006  34.1935017  83.4079987  87.7145006  39.1685017
  84.3649987  87.7145006  39.1685017  83.1679987  88.6415006  39.1685017
  83.8559987  91.8755006  45.5635017  84.8129987  91.8755006  45.5635017
  83.6159987  92.8025006  45.5635017  82.0809987  92.7225006  38.6955017
  83.0379987  92.7225006  38.6955017  81.8409987  93.6495006  38.6955017
  87.4059987  87.9225006  45.1985017  88.3629987  87.9225006  45.1985017
  87.1659987  88.8495006  45.1985017  89.6959987  88.9655006  34.2905017
  90.6529987  88.9655006  34.2905017  89.4559987  89.8925006  34.2905017
  90.1629987  92.4865006  47.6945017  91.1199987  92.4865006  47.6945017
  89.9229987  93.4135006  47.6945017  94.1719987  93.3285006  34.5265017
  95.1289987  93.3285006  34.5265017  93.9319987  94.2555006  34.5265017
  90.4839987  87.6295006  36.5455017  91.4409987  87.6295006  36.5455017
  90.2439987  88.5565006  36.5455017  77.8719987  91.5325006  45.5115017
  78.8289987  91.5325006  45.5115017  77.6319987  92.4595006  45.5115017
  83.8159987  90.0415006  32.7615017  84.7729987  90.0415006  32.7615017
  83.5759987  90.9685006  32.7615017  82.6369987  89.5725006  35.2165017
  83.5939987  89.5725006  35.2165017  82.3969987  90.4995006  35.2165017
  79.1579987  86.8385006  35.7215017  80.1149987  86.8385006  35.7215017
  78.9179987  87.7655006  35.7215017  86.9739987  79.4995006  46.0195017
  87.9309987  79.4995006  46.0195017  86.7339987  80.4265006  46.0195017
  87.7409987  79.0905006  37.1145017  88.6979987  79.0905006  37.1145017
  87.5009987  80.0175006  37.1145017  85.4609987  91.2765006  35.9885017
  86.4179987  91.2765006  35.9885017  85.2209987  92.2035006  35.9885017
  85.5009987  81.8435006  47.1205017  86.4579987  81.8435006  47.1205017
  85.2609987  82.7705006  47.1205017  85.8529987  77.9115006  38.8145017
  86.8099987  77.9115006  38.8145017  85.6129987  78.8385006  38.8145017
  82.7819987  92.2755006  35.9405017  83.7389987  92.2755006  35.9405017
  82.5419987  93.2025006  35.9405017  91.6999987  79.7325006  47.9685017
  92.6569987  79.7325006  47.9685017  91.4599987  80.6595006  47.9685017
  90.2979987  83.5155006  41.9975017  91.2549987  83.5155006  41.9975017
  90.0579987  84.4425006  41.9975017  79.7119987  89.4395006  34.5885017
  80.6689987  89.4395006  34.5885017  79.4719987  90.3665006  34.5885017
  91.3649987  92.7605006  43.6525017  92.3219987  92.7605006  43.6525017
  91.1249987  93.6875006  43.6525017  77.8179987  90.8135006  38.5905017
  78.7749987  90.8135006  38.5905017  77.5779987  91.7405006  38.5905017
  77.0469987  93.4555006  49.8905017  78.0039987  93.4555006  49.8905017
  76.8069987  94.3825006  49.8905017  81.6919987  92.3855006  51.5125017
  82.6489987  92.3855006  51.5125017  81.4519987  93.3125006  51.5125017
  85.8199987  91.8965006  32.8945017  86.7769987  91.8965006  32.8945017
  85.5799987  92.8235006  32.8945017  88.2249987  90.7625006  50.2375017
  89.1819987  90.7625006  50.2375017  87.9849987  91.6895006  50.2375017
  90.3929987  91.6585006  33.1165017  91.3499987  91.6585006  33.1165017
  90.1529987  92.5855006  33.1165017  76.9869987  87.2525006  50.8505017
  77.9439987  87.2525006  50.8505017  76.7469987  88.1795006  50.8505017
  81.2969987  87.5795006  32.9215017  82.2539987  87.5795006  32.9215017
  81.0569987  88.5065006  32.9215017  83.6249987  87.2245006  50.2725017
  84.5819987  87.2245006  50.2725017  83.3849987  88.1515006  50.2725017
  86.7069987  88.6805006  32.6875017  87.6639987  88.6805006  32.6875017
  86.4669987  89.6075006  32.6875017  89.3579987  87.0965006  47.6605017
  90.3149987  87.0965006  47.6605017  89.1179987  88.0235006  47.6605017
  77.8709987  84.4675006  50.2575017  78.8279987  84.4675006  50.2575017
  77.6309987  85.3945006  50.2575017  82.4959987  85.5905006  35.3265017
  83.4529987  85.5905006  35.3265017  82.2559987  86.5175006  35.3265017
  81.7639987  83.4575006  47.6335017  82.7209987  83.4575006  47.6335017
  81.5239987  84.3845006  47.6335017  83.5649987  83.8085006  33.5485017
  84.5219987  83.8085006  33.5485017  83.3249987  84.7355006  33.5485017
  86.8179987  85.9645006  50.9495017  87.7749987  85.9645006  50.9495017
  86.5779987  86.8915006  50.9495017  92.9139987  86.1485006  32.9645017
  93.8709987  86.1485006  32.9645017  92.6739987  87.0755006  32.9645017
  82.1139987  80.8115006  48.6955017  83.0709987  80.8115006  48.6955017
  81.8739987  81.7385006  48.6955017  82.4909987  79.2285006  46.2345017
  83.4479987  79.2285006  46.2345017  82.2509987  80.1555006  46.2345017
  84.0919987  84.6625006  46.4765017  85.0489987  84.6625006  46.4765017
  83.8519987  85.5895006  46.4765017  88.5049987  82.4195006  51.4555017
  89.4619987  82.4195006  51.4555017  88.2649987  83.3465006  51.4555017
  89.8299987  85.2015006  49.5865017  90.7869987  85.2015006  49.5865017
  89.5899987  86.1285006  49.5865017  80.6089987  82.0185006  50.6255017
  81.5659987  82.0185006  50.6255017  80.3689987  82.9455006  50.6255017
  84.6159987  80.9345006  50.2175017  85.5729987  80.9345006  50.2175017
  84.3759987  81.8615006  50.2175017  87.3399987  80.0985006  49.3265017
  88.2969987  80.0985006  49.3265017  87.0999987  81.0255006  49.3265017
  88.9359987  78.7115006  51.2685017  89.8929987  78.7115006  51.2685017
  88.6959987  79.6385006  51.2685017  83.9109987  77.5965006  51.4005017
  84.8679987  77.5965006  51.4005017  83.6709987  78.5235006  51.4005017
  83.4059987  94.5135006  34.5965017  84.3629987  94.5135006  34.5965017
  83.1659987  95.4405006  34.5965017  76.9779987  89.1175006  34.0575017
  77.9349987  89.1175006  34.0575017  76.7379987  90.0445006  34.0575017
  75.7229987  94.4985006  39.0575017  76.6799987  94.4985006  39.0575017
  75.4829987  95.4255006  39.0575017  76.5509987  92.6175006  40.9095017
  77.5079987  92.6175006  40.9095017  76.3109987  93.5445006  40.9095017
  94.0849987  93.4155006  43.8605017  95.0419987  93.4155006  43.8605017
  93.8449987  94.3425006  43.8605017  93.6619987  93.0125006  46.8035017
  94.6189987  93.0125006  46.8035017  93.4219987  93.9395006  46.8035017
  92.1049987  88.7435006  51.4625017  93.0619987  88.7435006  51.4625017
  91.8649987  89.6705006  51.4625017  93.4129987  87.0555006  36.9145017
  94.3699987  87.0555006  36.9145017  93.1729987  87.9825006  36.9145017
  93.7879987  85.1265006  38.7825017  94.7449987  85.1265006  38.7825017
  93.5479987  86.0535006  38.7825017  93.5439987  87.8415006  43.7655017
  94.5009987  87.8415006  43.7655017  93.3039987  88.7685006  43.7655017
  92.0889987  90.7405006  46.0445017  93.0459987  90.7405006  46.0445017
  91.8489987  91.6675006  46.0445017  94.0849987  84.9635006  35.1795017
  95.0419987  84.9635006  35.1795017  93.8449987  85.8905006  35.1795017
  92.4519987  82.2015006  33.7025017  93.4089987  82.2015006  33.7025017
  92.2119987  83.1285006  33.7025017  91.6009987  83.6105006  39.3465017
  92.5579987  83.6105006  39.3465017  91.3609987  84.5375006  39.3465017
  76.5949987  85.6765006  43.3925017  77.5519987  85.6765006  43.3925017
  76.3549987  86.6035006  43.3925017  92.4529987  85.5795006  49.0265017
  93.4099987  85.5795006  49.0265017  92.2129987  86.5065006  49.0265017
  93.9609987  83.4725006  49.6915017  94.9179987  83.4725006  49.6915017
  93.7209987  84.3995006  49.6915017  91.6939987  79.6575006  32.8335017
  92.6509987  79.6575006  32.8335017  91.4539987  80.5845006  32.8335017
  91.2669987  81.1975006  37.7825017  92.2239987  81.1975006  37.7825017
  91.0269987  82.1245006  37.7825017  91.9049987  81.7415006  43.2505017
  92.8619987  81.7415006  43.2505017  91.6649987  82.6685006  43.2505017
  91.9739987  82.4675006  46.0395017  92.9309987  82.4675006  46.0395017
  91.7339987  83.3945006  46.0395017  76.2319987  80.9625006  49.5095017
  77.1889987  80.9625006  49.5095017  75.9919987  81.8895006  49.5095017
  94.2379987  76.5075006  51.3875017  95.1949987  76.5075006  51.3875017
  93.9979987  77.4345006  51.3875017  91.9199987  78.4825006  37.8585017
  92.8769987  78.4825006  37.8585017  91.6799987  79.4095006  37.8585017
  77.5309987  79.3005006  42.3875017  78.4879987  79.3005006  42.3875017
  77.2909987  80.2275006  42.3875017  75.7209987  82.2805006  43.4625017
  76.6779987  82.2805006  43.4625017  75.4809987  83.2075006  43.4625017
  93.7669987  78.6145006  49.7385017  94.7239987  78.6145006  49.7385017
  93.5269987  79.5415006  49.7385017  93.7609987  78.5155006  34.4115017
  94.7179987  78.5155006  34.4115017  93.5209987  79.4425006  34.4115017
  90.7939987  93.4615006  39.4575017  91.7509987  93.4615006  39.4575017
  90.5539987  94.3885006  39.4575017  78.2529987  90.3845006  49.9865017
  79.2099987  90.3845006  49.9865017  78.0129987  91.3115006  49.9865017
  81.2309987  91.4815006  46.3755017  82.1879987  91.4815006  46.3755017
  80.9909987  92.4085006  46.3755017  85.4749987  92.8245006  49.1785017
  86.4319987  92.8245006  49.1785017  85.2349987  93.7515006  49.1785017
  87.7789987  94.0965006  48.4705017  88.7359987  94.0965006  48.4705017
  87.5389987  95.0235006  48.4705017  92.7799987  76.7105006  47.5745017
  93.7369987  76.7105006  47.5745017  92.5399987  77.6375006  47.5745017
  78.5859987  94.6495006  46.2775017  79.5429987  94.6495006  46.2775017
  78.3459987  95.5765006  46.2775017  81.0589987  94.2325006  45.3415017
  82.0159987  94.2325006  45.3415017  80.8189987  95.1595006  45.3415017
  85.7669987  94.1415006  44.4975017  86.7239987  94.1415006  44.4975017
  85.5269987  95.0685006  44.4975017  88.0669987  92.9675006  45.4965017
  89.0239987  92.9675006  45.4965017  87.8269987  93.8945006  45.4965017
  90.6499987  94.5415006  45.7705017  91.6069987  94.5415006  45.7705017
  90.4099987  95.4685006  45.7705017  78.0189987  93.3045006  43.2025017
  78.9759987  93.3045006  43.2025017  77.7789987  94.2315006  43.2025017
  80.1179987  92.0095006  41.8545017  81.0749987  92.0095006  41.8545017
  79.8779987  92.9365006  41.8545017  82.6969987  92.4835006  42.7395017
  83.6539987  92.4835006  42.7395017  82.4569987  93.4105006  42.7395017
  86.2179987  78.1395006  41.8915017  87.1749987  78.1395006  41.8915017
  85.9779987  79.0665006  41.8915017  91.3139987  76.2025006  41.9555017
  92.2709987  76.2025006  41.9555017  91.0739987  77.1295006  41.9555017
  92.9919987  77.4215006  40.2415017  93.9489987  77.4215006  40.2415017
  92.7519987  78.3485006  40.2415017  88.7119987  76.7165006  41.1365017
  89.6689987  76.7165006  41.1365017  88.4719987  77.6435006  41.1365017
  90.0019987  76.7465006  36.8225017  90.9589987  76.7465006  36.8225017
  89.7619987  77.6735006  36.8225017  77.2399987  92.4795006  36.4425017
  78.1969987  92.4795006  36.4425017  76.9999987  93.4065006  36.4425017
  84.2879987  78.7445006  36.3465017  85.2449987  78.7445006  36.3465017
  84.0479987  79.6715006  36.3465017  86.1099987  93.7445006  34.8195017
  87.0669987  93.7445006  34.8195017  85.8699987  94.6715006  34.8195017
  92.7649987  93.2875006  37.5215017  93.7219987  93.2875006  37.5215017
  92.5249987  94.2145006  37.5215017  79.0349987  93.4505006  33.4075017
  79.9919987  93.4505006  33.4075017  78.7949987  94.3775006  33.4075017
  88.8469987  75.9825006  50.9445017  89.8039987  75.9825006  50.9445017
  88.6069987  76.9095006  50.9445017  92.0499987  92.0245006  49.6045017
  93.0069987  92.0245006  49.6045017  91.8099987  92.9515006  49.6045017
 106.4669987  85.8755006  39.5795017 107.4239987  85.8755006  39.5795017
 106.2269987  86.8025006  39.5795017 105.2709987  85.1965006  43.0785017
 106.2279987  85.1965006  43.0785017 105.0309987  86.1235006  43.0785017
  97.7079987  84.8265006  44.6345017  98.6649987  84.8265006  44.6345017
  97.4679987  85.7535006  44.6345017  98.6359987  89.2765006  43.1575017
  99.5929987  89.2765006  43.1575017  98.3959987  90.2035006  43.1575017
  95.2789987  82.8555006  38.6145017  96.2359987  82.8555006  38.6145017
  95.0389987  83.7825006  38.6145017  95.9749987  85.0705006  40.7485017
  96.9319987  85.0705006  40.7485017  95.7349987  85.9975006  40.7485017
 106.1809987  93.2275006  41.5725017 107.1379987  93.2275006  41.5725017
 105.9409987  94.1545006  41.5725017 103.7009987  87.5705006  43.5135017
 104.6579987  87.5705006  43.5135017 103.4609987  88.4975006  43.5135017
 106.2129987  81.5485006  43.3285017 107.1699987  81.5485006  43.3285017
 105.9729987  82.4755006  43.3285017 100.0199987  80.1295006  41.0855017
 100.9769987  80.1295006  41.0855017  99.7799987  81.0565006  41.0855017
 107.7209987  80.6945006  39.0465017 108.6779987  80.6945006  39.0465017
 107.4809987  81.6215006  39.0465017  96.6379987  82.5265006  41.8205017
  97.5949987  82.5265006  41.8205017  96.3979987  83.4535006  41.8205017
 101.7909987  84.0885006  41.1035017 102.7479987  84.0885006  41.1035017
 101.5509987  85.0155006  41.1035017  98.9019987  79.0165006  45.1255017
  99.8589987  79.0165006  45.1255017  98.6619987  79.9435006  45.1255017
 106.2329987  88.5135006  38.6685017 107.1899987  88.5135006  38.6685017
 105.9929987  89.4405006  38.6685017 101.4449987  86.6625006  45.3805017
 102.4019987  86.6625006  45.3805017 101.2049987  87.5895006  45.3805017
  98.4609987  80.8825006  43.1325017  99.4179987  80.8825006  43.1325017
  98.2209987  81.8095006  43.1325017  99.8719987  88.6555006  46.1915017
 100.8289987  88.6555006  46.1915017  99.6319987  89.5825006  46.1915017
  95.9579987  88.2915006  36.9845017  96.9149987  88.2915006  36.9845017
  95.7179987  89.2185006  36.9845017 102.8829987  76.3495006  42.5995017
 103.8399987  76.3495006  42.5995017 102.6429987  77.2765006  42.5995017
 107.5019987  91.5545006  39.9265017 108.4589987  91.5545006  39.9265017
 107.2619987  92.4815006  39.9265017 105.1269987  85.1445006  37.0795017
 106.0839987  85.1445006  37.0795017 104.8869987  86.0715006  37.0795017
 105.1949987  83.6745006  34.1075017 106.1519987  83.6745006  34.1075017
 104.9549987  84.6015006  34.1075017 100.2079987  86.0205006  39.9325017
 101.1649987  86.0205006  39.9325017  99.9679987  86.9475006  39.9325017
 101.5379987  89.4155006  42.6155017 102.4949987  89.4155006  42.6155017
 101.2979987  90.3425006  42.6155017 100.5449987  84.7625006  43.5825017
 101.5019987  84.7625006  43.5825017 100.3049987  85.6895006  43.5825017
 106.5349987  90.3485006  44.3345017 107.4919987  90.3485006  44.3345017
 106.2949987  91.2755006  44.3345017 101.4859987  89.1845006  48.2865017
 102.4429987  89.1845006  48.2865017 101.2459987  90.1115006  48.2865017
 107.4589987  84.5325006  35.7115017 108.4159987  84.5325006  35.7115017
 107.2189987  85.4595006  35.7115017  98.4209987  85.3525006  47.4635017
  99.3779987  85.3525006  47.4635017  98.1809987  86.2795006  47.4635017
 105.0829987  91.2695006  39.1485017 106.0399987  91.2695006  39.1485017
 104.8429987  92.1965006  39.1485017  99.7269987  91.2355006  49.0415017
 100.6839987  91.2355006  49.0415017  99.4869987  92.1625006  49.0415017
  99.1849987  85.0465006  37.5475017 100.1419987  85.0465006  37.5475017
  98.9449987  85.9735006  37.5475017  95.2739987  87.4635006  46.4145017
  96.2309987  87.4635006  46.4145017  95.0339987  88.3905006  46.4145017
  95.0329987  90.2035006  43.2185017  95.9899987  90.2035006  43.2185017
  94.7929987  91.1305006  43.2185017 104.2419987  90.4465006  47.7905017
 105.1989987  90.4465006  47.7905017 104.0019987  91.3735006  47.7905017
 104.6659987  94.1975006  37.5775017 105.6229987  94.1975006  37.5775017
 104.4259987  95.1245006  37.5775017  98.3009987  93.0615006  39.3805017
  99.2579987  93.0615006  39.3805017  98.0609987  93.9885006  39.3805017
 107.7399987  93.3835006  34.5375017 108.6969987  93.3835006  34.5375017
 107.4999987  94.3105006  34.5375017 107.2489987  93.1605006  37.1765017
 108.2059987  93.1605006  37.1765017 107.0089987  94.0875006  37.1765017
  97.5489987  88.7825006  47.3805017  98.5059987  88.7825006  47.3805017
  97.3089987  89.7095006  47.3805017 100.2159987  77.2355006  43.3405017
 101.1729987  77.2355006  43.3405017  99.9759987  78.1625006  43.3405017
 104.8899987  76.8895006  46.7205017 105.8469987  76.8895006  46.7205017
 104.6499987  77.8165006  46.7205017 104.5029987  79.5025006  34.0215017
 105.4599987  79.5025006  34.0215017 104.2629987  80.4295006  34.0215017
 100.2969987  82.2065006  44.5465017 101.2539987  82.2065006  44.5465017
 100.0569987  83.1335006  44.5465017 100.2819987  82.3735006  39.4335017
 101.2389987  82.3735006  39.4335017 100.0419987  83.3005006  39.4335017
 105.7869987  82.8495006  38.2325017 106.7439987  82.8495006  38.2325017
 105.5469987  83.7765006  38.2325017 104.8819987  83.0955006  49.7375017
 105.8389987  83.0955006  49.7375017 104.6419987  84.0225006  49.7375017
 106.8499987  82.3575006  40.9725017 107.8069987  82.3575006  40.9725017
 106.6099987  83.2845006  40.9725017  97.9659987  82.4975006  46.2875017
  98.9229987  82.4975006  46.2875017  97.7259987  83.4245006  46.2875017
 101.3479987  79.8825006  33.1245017 102.3049987  79.8825006  33.1245017
 101.1079987  80.8095006  33.1245017  94.6079987  79.6085006  40.2315017
  95.5649987  79.6085006  40.2315017  94.3679987  80.5355006  40.2315017
  95.8839987  80.3205006  35.6065017  96.8409987  80.3205006  35.6065017
  95.6439987  81.2475006  35.6065017 105.7019987  84.2035006  45.6195017
 106.6589987  84.2035006  45.6195017 105.4619987  85.1305006  45.6195017
 102.8459987  79.8725006  40.4535017 103.8029987  79.8725006  40.4535017
 102.6059987  80.7995006  40.4535017  97.6619987  81.4585006  39.3205017
  98.6189987  81.4585006  39.3205017  97.4219987  82.3855006  39.3205017
 101.3069987  81.4845006  36.9455017 102.2639987  81.4845006  36.9455017
 101.0669987  82.4115006  36.9455017 107.2579987  78.9875006  43.7645017
 108.2149987  78.9875006  43.7645017 107.0179987  79.9145006  43.7645017
 100.0029987  82.6735006  34.5395017 100.9599987  82.6735006  34.5395017
  99.7629987  83.6005006  34.5395017  98.1379987  87.2385006  49.5945017
  99.0949987  87.2385006  49.5945017  97.8979987  88.1655006  49.5945017
 104.0459987  82.6385006  42.2815017 105.0029987  82.6385006  42.2815017
 103.8059987  83.5655006  42.2815017  99.1459987  78.7915006  38.7825017
 100.1029987  78.7915006  38.7825017  98.9059987  79.7185006  38.7825017
 102.7439987  80.9795006  44.7695017 103.7009987  80.9795006  44.7695017
 102.5039987  81.9065006  44.7695017 103.3659987  87.2175006  36.4535017
 104.3229987  87.2175006  36.4535017 103.1259987  88.1445006  36.4535017
 107.1549987  80.0505006  34.6455017 108.1119987  80.0505006  34.6455017
 106.9149987  80.9775006  34.6455017 104.8429987  87.4385006  47.6955017
 105.7999987  87.4385006  47.6955017 104.6029987  88.3655006  47.6955017
   0.1129987  82.0395006  36.3475017   1.0699987  82.0395006  36.3475017
  -0.1270013  82.9665006  36.3475017  98.4619987  86.5825006  42.2575017
  99.4189987  86.5825006  42.2575017  98.2219987  87.5095006  42.2575017
 105.4569987  88.6685006  35.4765017 106.4139987  88.6685006  35.4765017
 105.2169987  89.5955006  35.4765017  95.4559987  85.0045006  47.5295017
  96.4129987  85.0045006  47.5295017  95.2159987  85.9315006  47.5295017
 102.4769987  84.5545006  49.7165017 103.4339987  84.5545006  49.7165017
 102.2369987  85.4815006  49.7165017 107.1539987  89.9305006  47.6275017
 108.1109987  89.9305006  47.6275017 106.9139987  90.8575006  47.6275017
 100.8369987  90.0485006  39.6425017 101.7939987  90.0485006  39.6425017
 100.5969987  90.9755006  39.6425017  96.5989987  84.8955006  34.2125017
  97.5559987  84.8955006  34.2125017  96.3589987  85.8225006  34.2125017
 102.2539987  87.7175006  39.1675017 103.2109987  87.7175006  39.1675017
 102.0139987  88.6445006  39.1675017 102.7059987  91.8885006  45.5585017
 103.6629987  91.8885006  45.5585017 102.4659987  92.8155006  45.5585017
 100.9349987  92.7175006  38.7085017 101.8919987  92.7175006  38.7085017
 100.6949987  93.6445006  38.7085017 106.2849987  87.8985006  45.2205017
 107.2419987  87.8985006  45.2205017 106.0449987  88.8255006  45.2205017
  97.1119987  79.7385006  47.0745017  98.0689987  79.7385006  47.0745017
  96.8719987  80.6655006  47.0745017  96.7279987  91.5355006  45.5075017
  97.6849987  91.5355006  45.5075017  96.4879987  92.4625006  45.5075017
 102.6639987  90.0445006  32.7535017 103.6209987  90.0445006  32.7535017
 102.4239987  90.9715006  32.7535017 101.4919987  89.5715006  35.2165017
 102.4489987  89.5715006  35.2165017 101.2519987  90.4985006  35.2165017
  98.0039987  86.8185006  35.7075017  98.9609987  86.8185006  35.7075017
  97.7639987  87.7455006  35.7075017 105.8069987  79.4345006  46.0165017
 106.7639987  79.4345006  46.0165017 105.5669987  80.3615006  46.0165017
 106.3229987  79.3165006  37.0865017 107.2799987  79.3165006  37.0865017
 106.0829987  80.2435006  37.0865017 104.2859987  91.2385006  35.9415017
 105.2429987  91.2385006  35.9415017 104.0459987  92.1655006  35.9415017
 103.7919987  80.8695006  37.9255017 104.7489987  80.8695006  37.9255017
 103.5519987  81.7965006  37.9255017 104.2849987  81.7855006  47.1645017
 105.2419987  81.7855006  47.1645017 104.0449987  82.7125006  47.1645017
 104.6739987  77.9055006  38.8325017 105.6309987  77.9055006  38.8325017
 104.4339987  78.8325006  38.8325017 101.6349987  92.2775006  35.9395017
 102.5919987  92.2775006  35.9395017 101.3949987  93.2045006  35.9395017
 100.3269987  78.9945006  35.5365017 101.2839987  78.9945006  35.5365017
 100.0869987  79.9215006  35.5365017  98.5649987  89.4355006  34.5895017
  99.5219987  89.4355006  34.5895017  98.3249987  90.3625006  34.5895017
  96.9079987  82.1055006  33.7185017  97.8649987  82.1055006  33.7185017
  96.6679987  83.0325006  33.7185017  97.7319987  76.8915006  42.4385017
  98.6889987  76.8915006  42.4385017  97.4919987  77.8185006  42.4385017
  96.6739987  90.8135006  38.5905017  97.6309987  90.8135006  38.5905017
  96.4339987  91.7405006  38.5905017  95.9009987  93.4615006  49.8855017
  96.8579987  93.4615006  49.8855017  95.6609987  94.3885006  49.8855017
 100.5529987  92.3855006  51.5015017 101.5099987  92.3855006  51.5015017
 100.3129987  93.3125006  51.5015017 104.7059987  91.8825006  32.8895017
 105.6629987  91.8825006  32.8895017 104.4659987  92.8095006  32.8895017
 107.1379987  90.7665006  50.2385017 108.0949987  90.7665006  50.2385017
 106.8979987  91.6935006  50.2385017  95.8149987  87.2475006  50.8765017
  96.7719987  87.2475006  50.8765017  95.5749987  88.1745006  50.8765017
 100.1419987  87.5875006  32.9255017 101.0989987  87.5875006  32.9255017
  99.9019987  88.5145006  32.9255017 102.4999987  87.2235006  50.2775017
 103.4569987  87.2235006  50.2775017 102.2599987  88.1505006  50.2775017
 105.5969987  88.6645006  32.6955017 106.5539987  88.6645006  32.6955017
 105.3569987  89.5915006  32.6955017  96.7059987  84.4655006  50.2645017
  97.6629987  84.4655006  50.2645017  96.4659987  85.3925006  50.2645017
 101.3409987  85.5965006  35.3125017 102.2979987  85.5965006  35.3125017
 101.1009987  86.5235006  35.3125017 100.6159987  83.4215006  47.6285017
 101.5729987  83.4215006  47.6285017 100.3759987  84.3485006  47.6285017
 102.4129987  83.8155006  33.5355017 103.3699987  83.8155006  33.5355017
 102.1729987  84.7425006  33.5355017 105.6759987  85.9655006  50.9775017
 106.6329987  85.9655006  50.9775017 105.4359987  86.8925006  50.9775017
 101.0099987  80.7975006  48.6965017 101.9669987  80.7975006  48.6965017
 100.7699987  81.7245006  48.6965017 101.4089987  79.1665006  46.2275017
 102.3659987  79.1665006  46.2275017 101.1689987  80.0935006  46.2275017
 102.9559987  84.6425006  46.4745017 103.9129987  84.6425006  46.4745017
 102.7159987  85.5695006  46.4745017 107.3969987  82.4375006  51.5935017
 108.3539987  82.4375006  51.5935017 107.1569987  83.3645006  51.5935017
  99.4609987  82.0375006  50.6185017 100.4179987  82.0375006  50.6185017
  99.2209987  82.9645006  50.6185017 102.2149987  76.6195006  46.6345017
 103.1719987  76.6195006  46.6345017 101.9749987  77.5465006  46.6345017
 103.4679987  80.9485006  50.2415017 104.4249987  80.9485006  50.2415017
 103.2279987  81.8755006  50.2415017 106.1339987  80.0465006  49.2965017
 107.0909987  80.0465006  49.2965017 105.8939987  80.9735006  49.2965017
 107.7729987  78.7495006  51.2285017 108.7299987  78.7495006  51.2285017
 107.5329987  79.6765006  51.2285017  97.5659987  79.9645006  50.3435017
  98.5229987  79.9645006  50.3435017  97.3259987  80.8915006  50.3435017
 102.4129987  75.9805006  49.3275017 103.3699987  75.9805006  49.3275017
 102.1729987  76.9075006  49.3275017 102.7809987  77.6105006  51.4125017
 103.7379987  77.6105006  51.4125017 102.5409987  78.5375006  51.4125017
 102.2629987  94.5185006  34.5975017 103.2199987  94.5185006  34.5975017
 102.0229987  95.4455006  34.5975017  95.8229987  89.1175006  34.0655017
  96.7799987  89.1175006  34.0655017  95.5829987  90.0445006  34.0655017
  94.5839987  94.5035006  39.0545017  95.5409987  94.5035006  39.0545017
  94.3439987  95.4305006  39.0545017  95.4069987  92.6175006  40.9095017
  96.3639987  92.6175006  40.9095017  95.1669987  93.5445006  40.9095017
  95.4619987  85.6945006  43.4015017  96.4189987  85.6945006  43.4015017
  95.2219987  86.6215006  43.4015017  95.0719987  80.9935006  49.5475017
  96.0289987  80.9935006  49.5475017  94.8319987  81.9205006  49.5475017
  96.2799987  79.2905006  42.4115017  97.2369987  79.2905006  42.4115017
  96.0399987  80.2175006  42.4115017  94.5679987  82.2765006  43.4585017
  95.5249987  82.2765006  43.4585017  94.3279987  83.2035006  43.4585017
  94.9339987  78.5475006  37.5275017  95.8909987  78.5475006  37.5275017
  94.6939987  79.4745006  37.5275017  94.8859987  77.2205006  45.8355017
  95.8429987  77.2205006  45.8355017  94.6459987  78.1475006  45.8355017
  97.1059987  90.4075006  49.9915017  98.0629987  90.4075006  49.9915017
  96.8659987  91.3345006  49.9915017 100.0169987  91.4015006  46.2645017
 100.9739987  91.4015006  46.2645017  99.7769987  92.3285006  46.2645017
 104.3349987  92.8335006  49.2055017 105.2919987  92.8335006  49.2055017
 104.0949987  93.7605006  49.2055017 106.6879987  94.1375006  48.4325017
 107.6449987  94.1375006  48.4325017 106.4479987  95.0645006  48.4325017
  97.4419987  94.6505006  46.2755017  98.3989987  94.6505006  46.2755017
  97.2019987  95.5775006  46.2755017  99.9129987  94.2315006  45.3385017
 100.8699987  94.2315006  45.3385017  99.6729987  95.1585006  45.3385017
 104.5949987  94.1435006  44.5115017 105.5519987  94.1435006  44.5115017
 104.3549987  95.0705006  44.5115017 106.9369987  93.0075006  45.5225017
 107.8939987  93.0075006  45.5225017 106.6969987  93.9345006  45.5225017
  96.8759987  93.2965006  43.2045017  97.8329987  93.2965006  43.2045017
  96.6359987  94.2235006  43.2045017  98.9709987  92.0095006  41.8575017
  99.9279987  92.0095006  41.8575017  98.7309987  92.9365006  41.8575017
 101.5379987  92.4915006  42.7255017 102.4949987  92.4915006  42.7255017
 101.2979987  93.4185006  42.7255017 105.0069987  78.1255006  41.8525017
 105.9639987  78.1255006  41.8525017 104.7669987  79.0525006  41.8525017
  97.3709987  76.8445006  39.6795017  98.3279987  76.8445006  39.6795017
  97.1309987  77.7715006  39.6795017  96.1949987  76.5315006  35.4795017
  97.1519987  76.5315006  35.4795017  95.9549987  77.4585006  35.4795017
 101.8919987  76.6595006  39.4965017 102.8489987  76.6595006  39.4965017
 101.6519987  77.5865006  39.4965017 107.4629987  76.6395006  41.3125017
 108.4199987  76.6395006  41.3125017 107.2229987  77.5665006  41.3125017
  96.0949987  92.4795006  36.4445017  97.0519987  92.4795006  36.4445017
  95.8549987  93.4065006  36.4445017  98.0149987  78.4715006  33.9425017
  98.9719987  78.4715006  33.9425017  97.7749987  79.3985006  33.9425017
 103.0469987  78.7205006  36.3595017 104.0039987  78.7205006  36.3595017
 102.8069987  79.6475006  36.3595017 104.9369987  93.7625006  34.7945017
 105.8939987  93.7625006  34.7945017 104.6969987  94.6895006  34.7945017
  97.2919987  77.3055006  49.1745017  98.2489987  77.3055006  49.1745017
  97.0519987  78.2325006  49.1745017  99.2949987  76.6785006  50.7885017
 100.2519987  76.6785006  50.7885017  99.0549987  77.6055006  50.7885017
  97.8909987  93.4505006  33.4075017  98.8479987  93.4505006  33.4075017
  97.6509987  94.3775006  33.4075017  -0.0840013  76.0365006  50.9765017
   0.8729987  76.0365006  50.9765017  -0.3240013  76.9635006  50.9765017
  12.1689987 104.7815006  39.6235017  13.1259987 104.7815006  39.6235017
  11.9289987 105.7085006  39.6235017  11.0609987 104.0335006  43.0835017
  12.0179987 104.0335006  43.0835017  10.8209987 104.9605006  43.0835017
   3.4579987 103.6745006  44.6085017   4.4149987 103.6745006  44.6085017
   3.2179987 104.6015006  44.6085017  14.6339987 106.7955006  41.2845017
  15.5909987 106.7955006  41.2845017  14.3939987 107.7225006  41.2845017
   4.4589987 107.5835006  43.5605017   5.4159987 107.5835006  43.5605017
   4.2189987 108.5105006  43.5605017   1.0659987 101.8015006  38.5615017
   2.0229987 101.8015006  38.5615017   0.8259987 102.7285006  38.5615017
   1.6889987 103.9025006  40.7495017   2.6459987 103.9025006  40.7495017
   1.4489987 104.8295006  40.7495017   9.4309987 106.4085006  43.5565017
  10.3879987 106.4085006  43.5565017   9.1909987 107.3355006  43.5565017
  18.0679987  98.0685006  44.2915017  19.0249987  98.0685006  44.2915017
  17.8279987  98.9955006  44.2915017  12.6159987 100.8885006  43.8485017
  13.5729987 100.8885006  43.8485017  12.3759987 101.8155006  43.8485017
   5.7429987  98.9615006  41.0575017   6.6999987  98.9615006  41.0575017
   5.5029987  99.8885006  41.0575017  13.4679987  99.0645006  39.4525017
  14.4249987  99.0645006  39.4525017  13.2279987  99.9915006  39.4525017
   2.5389987 101.4275006  41.7225017   3.4959987 101.4275006  41.7225017
   2.2989987 102.3545006  41.7225017   7.5229987 102.9485006  41.1055017
   8.4799987 102.9485006  41.1055017   7.2829987 103.8755006  41.1055017
  18.5029987  99.5015006  46.5515017  19.4599987  99.5015006  46.5515017
  18.2629987 100.4285006  46.5515017   4.5649987  97.8295006  45.1065017
   5.5219987  97.8295006  45.1065017   4.3249987  98.7565006  45.1065017
  11.9669987 107.3815006  38.6745017  12.9239987 107.3815006  38.6745017
  11.7269987 108.3085006  38.6745017   7.1529987 105.5495006  45.3745017
   8.1099987 105.5495006  45.3745017   6.9129987 106.4765006  45.3745017
  15.2619987  98.3995006  41.4445017  16.2189987  98.3995006  41.4445017
  15.0219987  99.3265006  41.4445017   4.1619987  99.7055006  43.0965017
   5.1189987  99.7055006  43.0965017   3.9219987 100.6325006  43.0965017
   5.5849987 107.5415006  46.1075017   6.5419987 107.5415006  46.1075017
   5.3449987 108.4685006  46.1075017   1.6539987 107.0615006  37.0185017
   2.6109987 107.0615006  37.0185017   1.4139987 107.9885006  37.0185017
  15.6079987  97.0945006  45.1245017  16.5649987  97.0945006  45.1245017
  15.3679987  98.0215006  45.1245017   8.5879987  95.2045006  42.5815017
   9.5449987  95.2045006  42.5815017   8.3479987  96.1315006  42.5815017
  16.2839987 106.9585006  47.3185017  17.2409987 106.9585006  47.3185017
  16.0439987 107.8855006  47.3185017  10.8759987 103.9985006  37.1055017
  11.8329987 103.9985006  37.1055017  10.6359987 104.9255006  37.1055017
  10.9359987 102.5395006  34.1155017  11.8929987 102.5395006  34.1155017
  10.6959987 103.4665006  34.1155017  18.2559987 103.4185006  45.3895017
  19.2129987 103.4185006  45.3895017  18.0159987 104.3455006  45.3895017
  14.2839987 104.1865006  38.0155017  15.2409987 104.1865006  38.0155017
  14.0439987 105.1135006  38.0155017  14.2389987 102.3785006  47.1195017
  15.1959987 102.3785006  47.1195017  13.9989987 103.3055006  47.1195017
   5.9309987 104.8705006  39.9295017   6.8879987 104.8705006  39.9295017
   5.6909987 105.7975006  39.9295017   6.2599987 103.6855006  43.5715017
   7.2169987 103.6855006  43.5715017   6.0199987 104.6125006  43.5715017
   6.5949987   0.0165006  48.3845017   7.5519987   0.0165006  48.3845017
   6.3549987   0.9435006  48.3845017  13.1799987 103.3985006  35.6885017
  14.1369987 103.3985006  35.6885017  12.9399987 104.3255006  35.6885017
   4.1289987 104.2345006  47.4965017   5.0859987 104.2345006  47.4965017
   3.8889987 105.1615006  47.4965017  16.8919987  95.1265006  35.5405017
  17.8489987  95.1265006  35.5405017  16.6519987  96.0535006  35.5405017
   4.9349987 103.9245006  37.5425017   5.8919987 103.9245006  37.5425017
   4.6949987 104.8515006  37.5425017   1.0509987 106.3045006  46.3975017
   2.0079987 106.3045006  46.3975017   0.8109987 107.2315006  46.3975017
  16.1309987 101.2335006  49.3865017  17.0879987 101.2335006  49.3865017
  15.8909987 102.1605006  49.3865017   3.2579987 107.6125006  47.3805017
   4.2149987 107.6125006  47.3805017   3.0179987 108.5395006  47.3805017
   5.9369987  96.0975006  43.3195017   6.8939987  96.0975006  43.3195017
   5.6969987  97.0245006  43.3195017  10.5929987  95.7785006  46.7085017
  11.5499987  95.7785006  46.7085017  10.3529987  96.7055006  46.7085017
  13.8849987  99.6085006  47.5955017  14.8419987  99.6085006  47.5955017
  13.6449987 100.5355006  47.5955017  14.6329987 104.4125006  33.4395017
  15.5899987 104.4125006  33.4395017  14.3929987 105.3395006  33.4395017
  10.2349987  98.3495006  34.0085017  11.1919987  98.3495006  34.0085017
   9.9949987  99.2765006  34.0085017   5.8389987 101.1645006  44.2295017
   6.7959987 101.1645006  44.2295017   5.5989987 102.0915006  44.2295017
   5.9799987 101.2375006  39.4235017   6.9369987 101.2375006  39.4235017
   5.7399987 102.1645006  39.4235017  11.5159987 101.6975006  38.2225017
  12.4729987 101.6975006  38.2225017  11.2759987 102.6245006  38.2225017
  10.6049987 101.9225006  49.6855017  11.5619987 101.9225006  49.6855017
  10.3649987 102.8495006  49.6855017  12.5549987 101.1765006  41.0575017
  13.5119987 101.1765006  41.0575017  12.3149987 102.1035006  41.0575017
   3.6369987 101.3855006  46.2935017   4.5939987 101.3855006  46.2935017
   3.3969987 102.3125006  46.2935017   7.0789987  98.7355006  33.1175017
   8.0359987  98.7355006  33.1175017   6.8389987  99.6625006  33.1175017
   0.4289987  97.7695006  40.5685017   1.3859987  97.7695006  40.5685017
   0.1889987  98.6965006  40.5685017   1.8009987  99.1795006  35.7065017
   2.7579987  99.1795006  35.7065017   1.5609987 100.1065006  35.7065017
  11.8019987 102.7875006  45.6485017  12.7589987 102.7875006  45.6485017
  11.5619987 103.7145006  45.6485017   8.5639987  98.7395006  40.4625017
   9.5209987  98.7395006  40.4625017   8.3239987  99.6665006  40.4625017
   3.3889987 100.2945006  39.3045017   4.3459987 100.2945006  39.3045017
   3.1489987 101.2215006  39.3045017   7.0239987 100.3415006  36.9435017
   7.9809987 100.3415006  36.9435017   6.7839987 101.2685006  36.9435017
  12.9729987  97.9765006  43.7045017  13.9299987  97.9765006  43.7045017
  12.7329987  98.9035006  43.7045017   5.7079987 101.5355006  34.5325017
   6.6649987 101.5355006  34.5325017   5.4679987 102.4625006  34.5325017
   3.8499987 106.1665006  49.5965017   4.8069987 106.1665006  49.5965017
   3.6099987 107.0935006  49.5965017   9.8549987 101.5065006  42.3465017
  10.8119987 101.5065006  42.3465017   9.6149987 102.4335006  42.3465017
   4.8549987  97.6585006  38.7675017   5.8119987  97.6585006  38.7675017
   4.6149987  98.5855006  38.7675017   8.6869987  99.9345006  44.5515017
   9.6439987  99.9345006  44.5515017   8.4469987 100.8615006  44.5515017
   9.0989987 106.0915006  36.4565017  10.0559987 106.0915006  36.4565017
   8.8589987 107.0185006  36.4565017  16.2409987 105.2615006  45.2415017
  17.1979987 105.2615006  45.2415017  16.0009987 106.1885006  45.2415017
  12.9159987  98.8845006  34.6405017  13.8729987  98.8845006  34.6405017
  12.6759987  99.8115006  34.6405017  10.5519987 106.2775006  47.6925017
  11.5089987 106.2775006  47.6925017  10.3119987 107.2045006  47.6925017
  13.6479987 100.7845006  36.2815017  14.6049987 100.7845006  36.2815017
  13.4079987 101.7115006  36.2815017   4.1589987 105.4165006  42.1965017
   5.1159987 105.4165006  42.1965017   3.9189987 106.3435006  42.1965017
  11.1929987 107.5275006  35.5235017  12.1499987 107.5275006  35.5235017
  10.9529987 108.4545006  35.5235017   1.1889987 103.8575006  47.5395017
   2.1459987 103.8575006  47.5395017   0.9489987 104.7845006  47.5395017
   8.1979987 103.4315006  49.7355017   9.1549987 103.4315006  49.7355017
   7.9579987 104.3585006  49.7355017  18.5539987 100.9375006  36.0355017
  19.5109987 100.9375006  36.0355017  18.3139987 101.8645006  36.0355017
  18.5489987 106.7695006  48.8615017  19.5059987 106.7695006  48.8615017
  18.3089987 107.6965006  48.8615017  14.0339987 104.5755006  43.5475017
  14.9909987 104.5755006  43.5475017  13.7939987 105.5025006  43.5475017
   2.2849987 103.7355006  34.2405017   3.2419987 103.7355006  34.2405017
   2.0449987 104.6625006  34.2405017   8.0129987 106.5085006  39.1675017
   8.9699987 106.5085006  39.1675017   7.7729987 107.4355006  39.1675017
  11.9769987 106.8065006  45.2225017  12.9339987 106.8065006  45.2225017
  11.7369987 107.7335006  45.2225017  14.2449987 107.7465006  34.3105017
  15.2019987 107.7465006  34.3105017  14.0049987 108.6735006  34.3105017
   2.7979987  98.5915006  47.0855017   3.7549987  98.5915006  47.0855017
   2.5579987  99.5185006  47.0855017  15.0729987 106.3975006  36.5095017
  16.0299987 106.3975006  36.5095017  14.8329987 107.3245006  36.5095017
   3.6749987 105.6765006  35.6785017   4.6319987 105.6765006  35.6785017
   3.4349987 106.6035006  35.6785017  11.5779987  98.3555006  45.9985017
  12.5349987  98.3555006  45.9985017  11.3379987  99.2825006  45.9985017
  12.3179987  97.9445006  37.1055017  13.2749987  97.9445006  37.1055017
  12.0779987  98.8715006  37.1055017   9.5309987  99.7015006  37.9315017
  10.4879987  99.7015006  37.9315017   9.2909987 100.6285006  37.9315017
  10.1309987 100.7315006  47.0945017  11.0879987 100.7315006  47.0945017
   9.8909987 101.6585006  47.0945017  10.3919987  96.7625006  38.8445017
  11.3489987  96.7625006  38.8445017  10.1519987  97.6895006  38.8445017
   6.0499987  97.8525006  35.5345017   7.0069987  97.8525006  35.5345017
   5.8099987  98.7795006  35.5345017  16.2769987  98.5905006  47.9685017
  17.2339987  98.5905006  47.9685017  16.0369987  99.5175006  47.9685017
  14.8759987 102.3715006  41.9995017  15.8329987 102.3715006  41.9995017
  14.6359987 103.2985006  41.9995017   2.5799987 100.9715006  33.7655017
   3.5369987 100.9715006  33.7655017   2.3399987 101.8985006  33.7655017
   3.4589987  95.7545006  42.4265017   4.4159987  95.7545006  42.4265017
   3.2189987  96.6815006  42.4265017   1.5449987 106.0755006  50.8265017
   2.5019987 106.0755006  50.8265017   1.3049987 107.0025006  50.8265017
   5.8469987 106.4225006  32.9165017   6.8039987 106.4225006  32.9165017
   5.6069987 107.3495006  32.9165017   8.2259987 106.0425006  50.2735017
   9.1829987 106.0425006  50.2735017   7.9859987 106.9695006  50.2735017
  11.1589987 107.4905006  32.7055017  12.1159987 107.4905006  32.7055017
  10.9189987 108.4175006  32.7055017  13.8939987 105.9675006  47.6875017
  14.8509987 105.9675006  47.6875017  13.6539987 106.8945006  47.6875017
   2.3709987 103.3045006  50.2465017   3.3279987 103.3045006  50.2465017
   2.1309987 104.2315006  50.2465017   7.0589987 104.4585006  35.2975017
   8.0159987 104.4585006  35.2975017   6.8189987 105.3855006  35.2975017
   6.4179987 102.5805006  47.8225017   7.3749987 102.5805006  47.8225017
   6.1779987 103.5075006  47.8225017   8.1339987 102.6445006  33.5335017
   9.0909987 102.6445006  33.5335017   7.8939987 103.5715006  33.5335017
  11.3839987 104.8055006  50.8995017  12.3409987 104.8055006  50.8995017
  11.1439987 105.7325006  50.8995017  17.5039987 104.9925006  32.9645017
  18.4609987 104.9925006  32.9645017  17.2639987 105.9195006  32.9645017
   6.7319987  99.5435006  49.1565017   7.6889987  99.5435006  49.1565017
   6.4919987 100.4705006  49.1565017   7.1689987  97.5245006  45.8095017
   8.1259987  97.5245006  45.8095017   6.9289987  98.4515006  45.8095017
   8.7149987 103.5255006  46.4825017   9.6719987 103.5255006  46.4825017
   8.4749987 104.4525006  46.4825017  13.0759987 101.2805006  51.4365017
  14.0329987 101.2805006  51.4365017  12.8359987 102.2075006  51.4365017
  14.4269987 104.0715006  49.5925017  15.3839987 104.0715006  49.5925017
  14.1869987 104.9985006  49.5925017   5.1379987 100.9135006  50.6345017
   6.0949987 100.9135006  50.6345017   4.8979987 101.8405006  50.6345017
   7.9499987  95.3525006  46.6835017   8.9069987  95.3525006  46.6835017
   7.7099987  96.2795006  46.6835017   9.2169987  99.7905006  50.2435017
  10.1739987  99.7905006  50.2435017   8.9769987 100.7175006  50.2435017
  11.9149987  98.9285006  49.3135017  12.8719987  98.9285006  49.3135017
  11.6749987  99.8555006  49.3135017  13.5099987  97.5625006  51.2545017
  14.4669987  97.5625006  51.2545017  13.2699987  98.4895006  51.2545017
   3.3109987  98.8205006  50.3585017   4.2679987  98.8205006  50.3585017
   3.0709987  99.7475006  50.3585017   8.1359987  94.8405006  49.3305017
   9.0929987  94.8405006  49.3305017   7.8959987  95.7675006  49.3305017
   8.4979987  96.4755006  51.4115017   9.4549987  96.4755006  51.4115017
   8.2579987  97.4025006  51.4115017   1.5649987 107.8675006  33.8575017
   2.5219987 107.8675006  33.8575017   1.3249987 108.7945006  33.8575017
  16.5939987 107.5675006  51.4365017  17.5509987 107.5675006  51.4365017
  16.3539987 108.4945006  51.4365017  17.9839987 105.8665006  36.9295017
  18.9409987 105.8665006  36.9295017  17.7439987 106.7935006  36.9295017
  18.3699987 103.9635006  38.7905017  19.3269987 103.9635006  38.7905017
  18.1299987 104.8905006  38.7905017  18.1079987 106.7145006  43.7435017
  19.0649987 106.7145006  43.7435017  17.8679987 107.6415006  43.7435017
  18.6629987 103.7905006  35.1805017  19.6199987 103.7905006  35.1805017
  18.4229987 104.7175006  35.1805017  17.0299987 101.0555006  33.6975017
  17.9869987 101.0555006  33.6975017  16.7899987 101.9825006  33.6975017
  16.1859987 102.4595006  39.3525017  17.1429987 102.4595006  39.3525017
  15.9459987 103.3865006  39.3525017   1.1649987 104.5315006  43.3855017
   2.1219987 104.5315006  43.3855017   0.9249987 105.4585006  43.3855017
  17.0289987 104.4525006  49.0065017  17.9859987 104.4525006  49.0065017
  16.7889987 105.3795006  49.0065017  18.5369987 102.3355006  49.6925017
  19.4939987 102.3355006  49.6925017  18.2969987 103.2625006  49.6925017
  16.2679987  98.5155006  32.8315017  17.2249987  98.5155006  32.8315017
  16.0279987  99.4425006  32.8315017  15.8369987 100.0505006  37.7835017
  16.7939987 100.0505006  37.7835017  15.5969987 100.9775006  37.7835017
  16.4809987 100.5965006  43.2505017  17.4379987 100.5965006  43.2505017
  16.2409987 101.5235006  43.2505017  16.5459987 101.3155006  46.0345017
  17.5029987 101.3155006  46.0345017  16.3059987 102.2425006  46.0345017
   0.8919987  99.8105006  49.4655017   1.8489987  99.8105006  49.4655017
   0.6519987 100.7375006  49.4655017  18.8139987  95.3635006  51.3875017
  19.7709987  95.3635006  51.3875017  18.5739987  96.2905006  51.3875017
  16.5119987  97.3325006  37.8575017  17.4689987  97.3325006  37.8575017
  16.2719987  98.2595006  37.8575017   2.0829987  98.1685006  42.4035017
   3.0399987  98.1685006  42.4035017   1.8429987  99.0955006  42.4035017
   0.8899987 101.1005006  43.6105017   1.8469987 101.1005006  43.6105017
   0.6499987 102.0275006  43.6105017  18.3429987  97.4705006  49.7385017
  19.2999987  97.4705006  49.7385017  18.1029987  98.3975006  49.7385017
  18.3399987  97.3675006  34.4105017  19.2969987  97.3675006  34.4105017
  18.0999987  98.2945006  34.4105017   0.8919987  97.3455006  37.5435017
   1.8489987  97.3455006  37.5435017   0.6519987  98.2725006  37.5435017
 108.3279987  96.0575006  45.8605017 109.2849987  96.0575006  45.8605017
 108.0879987  96.9845006  45.8605017  17.3559987  95.5665006  47.5745017
  18.3129987  95.5665006  47.5745017  17.1159987  96.4935006  47.5745017
  10.7539987  96.9985006  41.8755017  11.7109987  96.9985006  41.8755017
  10.5139987  97.9255006  41.8755017  15.8889987  95.0565006  41.9575017
  16.8459987  95.0565006  41.9575017  15.6489987  95.9835006  41.9575017
  17.5689987  96.2775006  40.2415017  18.5259987  96.2775006  40.2415017
  17.3289987  97.2045006  40.2415017   3.1299987  95.6265006  39.6685017
   4.0869987  95.6265006  39.6685017   2.8899987  96.5535006  39.6685017
   1.9419987  95.3815006  35.5115017   2.8989987  95.3815006  35.5115017
   1.7019987  96.3085006  35.5115017   7.6149987  95.5485006  39.5055017
   8.5719987  95.5485006  39.5055017   7.3749987  96.4755006  39.5055017
  13.2829987  95.5735006  41.1405017  14.2399987  95.5735006  41.1405017
  13.0429987  96.5005006  41.1405017  14.5809987  95.6055006  36.8235017
  15.5379987  95.6055006  36.8235017  14.3409987  96.5325006  36.8235017
   3.7349987  97.3365006  33.9455017   4.6919987  97.3365006  33.9455017
   3.4949987  98.2635006  33.9455017   8.7609987  97.5815006  36.3595017
   9.7179987  97.5815006  36.3595017   8.5209987  98.5085006  36.3595017
   2.9979987  96.1675006  49.1675017   3.9549987  96.1675006  49.1675017
   2.7579987  97.0945006  49.1675017   5.0139987  95.5465006  50.7865017
   5.9709987  95.5465006  50.7865017   4.7739987  96.4735006  50.7865017
  13.4159987  94.8365006  50.9475017  14.3729987  94.8365006  50.9475017
  13.1759987  95.7635006  50.9475017  31.0229987 104.7795006  39.6225017
  31.9799987 104.7795006  39.6225017  30.7829987 105.7065006  39.6225017
  29.9179987 104.0335006  43.0835017  30.8749987 104.0335006  43.0835017
  29.6779987 104.9605006  43.0835017  22.2879987 103.6735006  44.6275017
  23.2449987 103.6735006  44.6275017  22.0479987 104.6005006  44.6275017
  33.4899987 106.7955006  41.2845017  34.4469987 106.7955006  41.2845017
  33.2499987 107.7225006  41.2845017  23.3259987 107.5905006  43.5565017
  24.2829987 107.5905006  43.5565017  23.0859987 108.5175006  43.5565017
  19.8489987 101.7025006  38.6155017  20.8059987 101.7025006  38.6155017
  19.6089987 102.6295006  38.6155017  20.5499987 103.9405006  40.7555017
  21.5069987 103.9405006  40.7555017  20.3099987 104.8675006  40.7555017
  28.2879987 106.4085006  43.5545017  29.2449987 106.4085006  43.5545017
  28.0479987 107.3355006  43.5545017  36.9239987  98.0685006  44.2915017
  37.8809987  98.0685006  44.2915017  36.6839987  98.9955006  44.2915017
  31.4689987 100.8885006  43.8485017  32.4259987 100.8885006  43.8485017
  31.2289987 101.8155006  43.8485017  24.5929987  98.9745006  41.0825017
  25.5499987  98.9745006  41.0825017  24.3529987  99.9015006  41.0825017
  32.3239987  99.0635006  39.4525017  33.2809987  99.0635006  39.4525017
  32.0839987  99.9905006  39.4525017  21.2139987 101.3825006  41.8205017
  22.1709987 101.3825006  41.8205017  20.9739987 102.3095006  41.8205017
  26.3759987 102.9515006  41.1065017  27.3329987 102.9515006  41.1065017
  26.1359987 103.8785006  41.1065017  37.3599987  99.5035006  46.5515017
  38.3169987  99.5035006  46.5515017  37.1199987 100.4305006  46.5515017
  23.4779987  97.8735006  45.1265017  24.4349987  97.8735006  45.1265017
  23.2379987  98.8005006  45.1265017  30.8229987 107.3815006  38.6745017
  31.7799987 107.3815006  38.6745017  30.5829987 108.3085006  38.6745017
  26.0049987 105.5355006  45.3835017  26.9619987 105.5355006  45.3835017
  25.7649987 106.4625006  45.3835017  34.1179987  98.3995006  41.4435017
  35.0749987  98.3995006  41.4435017  33.8779987  99.3265006  41.4435017
  23.0409987  99.7435006  43.1355017  23.9979987  99.7435006  43.1355017
  22.8009987 100.6705006  43.1355017  24.4369987 107.5405006  46.1115017
  25.3939987 107.5405006  46.1115017  24.1969987 108.4675006  46.1115017
  20.4999987 107.0685006  37.0545017  21.4569987 107.0685006  37.0545017
  20.2599987 107.9955006  37.0545017  34.4629987  97.0955006  45.1215017
  35.4199987  97.0955006  45.1215017  34.2229987  98.0225006  45.1215017
  27.4469987  95.2035006  42.5835017  28.4039987  95.2035006  42.5835017
  27.2069987  96.1305006  42.5835017  35.1399987 106.9585006  47.3185017
  36.0969987 106.9585006  47.3185017  34.8999987 107.8855006  47.3185017
  29.7309987 103.9995006  37.1055017  30.6879987 103.9995006  37.1055017
  29.4909987 104.9265006  37.1055017  29.7929987 102.5415006  34.1145017
  30.7499987 102.5415006  34.1145017  29.5529987 103.4685006  34.1145017
  37.1119987 103.4185006  45.3895017  38.0689987 103.4185006  45.3895017
  36.8719987 104.3455006  45.3895017  33.1409987 104.1875006  38.0155017
  34.0979987 104.1875006  38.0155017  32.9009987 105.1145006  38.0155017
  33.0959987 102.3785006  47.1215017  34.0529987 102.3785006  47.1215017
  32.8559987 103.3055006  47.1215017  24.7749987 104.8645006  39.9295017
  25.7319987 104.8645006  39.9295017  24.5349987 105.7915006  39.9295017
  25.1129987 103.6445006  43.5845017  26.0699987 103.6445006  43.5845017
  24.8729987 104.5715006  43.5845017  25.4579987   0.0135006  48.3825017
  26.4149987   0.0135006  48.3825017  25.2179987   0.9405006  48.3825017
  32.0359987 103.3985006  35.6885017  32.9929987 103.3985006  35.6885017
  31.7959987 104.3255006  35.6885017  22.9979987 104.2205006  47.4875017
  23.9549987 104.2205006  47.4875017  22.7579987 105.1475006  47.4875017
  35.7569987  95.1395006  35.5735017  36.7139987  95.1395006  35.5735017
  35.5169987  96.0665006  35.5735017  23.7669987 103.9125006  37.5505017
  24.7239987 103.9125006  37.5505017  23.5269987 104.8395006  37.5505017
  19.8079987 106.3095006  46.4155017  20.7649987 106.3095006  46.4155017
  19.5679987 107.2365006  46.4155017  34.9859987 101.2335006  49.3855017
  35.9429987 101.2335006  49.3855017  34.7459987 102.1605006  49.3855017
  22.1249987 107.5705006  47.3565017  23.0819987 107.5705006  47.3565017
  21.8849987 108.4975006  47.3565017  24.7939987  96.0995006  43.3455017
  25.7509987  96.0995006  43.3455017  24.5539987  97.0265006  43.3455017
  29.4389987  95.7905006  46.7105017  30.3959987  95.7905006  46.7105017
  29.1989987  96.7175006  46.7105017  32.7409987  99.6085006  47.5985017
  33.6979987  99.6085006  47.5985017  32.5009987 100.5355006  47.5985017
  33.4889987 104.4125006  33.4395017  34.4459987 104.4125006  33.4395017
  33.2489987 105.3395006  33.4395017  29.0659987  98.3645006  34.0155017
  30.0229987  98.3645006  34.0155017  28.8259987  99.2915006  34.0155017
  24.8949987 101.0745006  44.5535017  25.8519987 101.0745006  44.5535017
  24.6549987 102.0015006  44.5535017  24.8589987 101.2295006  39.4325017
  25.8159987 101.2295006  39.4325017  24.6189987 102.1565006  39.4325017
  30.3729987 101.6995006  38.2225017  31.3299987 101.6995006  38.2225017
  30.1329987 102.6265006  38.2225017  29.4519987 101.9125006  49.6685017
  30.4089987 101.9125006  49.6685017  29.2119987 102.8395006  49.6685017
  31.4089987 101.1785006  41.0565017  32.3659987 101.1785006  41.0565017
  31.1689987 102.1055006  41.0565017  22.5399987 101.3535006  46.2875017
  23.4969987 101.3535006  46.2875017  22.2999987 102.2805006  46.2875017
  25.9279987  98.6925006  33.1345017  26.8849987  98.6925006  33.1345017
  25.6879987  99.6195006  33.1345017  19.1849987  98.4645006  40.2315017
  20.1419987  98.4645006  40.2315017  18.9449987  99.3915006  40.2315017
  20.4579987  99.1775006  35.6065017  21.4149987  99.1775006  35.6065017
  20.2179987 100.1045006  35.6065017  30.6249987 102.7755006  45.6435017
  31.5819987 102.7755006  45.6435017  30.3849987 103.7025006  45.6435017
  27.4199987  98.7405006  40.4575017  28.3769987  98.7405006  40.4575017
  27.1799987  99.6675006  40.4575017  22.2399987 100.3125006  39.3185017
  23.1969987 100.3125006  39.3185017  21.9999987 101.2395006  39.3185017
  25.8939987 100.3145006  36.9235017  26.8509987 100.3145006  36.9235017
  25.6539987 101.2415006  36.9235017  31.8289987  97.9765006  43.7075017
  32.7859987  97.9765006  43.7075017  31.5889987  98.9035006  43.7075017
  24.5899987 101.5045006  34.5435017  25.5469987 101.5045006  34.5435017
  24.3499987 102.4315006  34.5435017  22.7209987 106.1825006  49.5835017
  23.6779987 106.1825006  49.5835017  22.4809987 107.1095006  49.5835017
  28.7099987 101.5055006  42.3515017  29.6669987 101.5055006  42.3515017
  28.4699987 102.4325006  42.3515017  23.7199987  97.6545006  38.7785017
  24.6769987  97.6545006  38.7785017  23.4799987  98.5815006  38.7785017
  27.3489987  99.8455006  44.7645017  28.3059987  99.8455006  44.7645017
  27.1089987 100.7725006  44.7645017  27.9529987 106.0875006  36.4555017
  28.9099987 106.0875006  36.4555017  27.7129987 107.0145006  36.4555017
  35.0969987 105.2615006  45.2415017  36.0539987 105.2615006  45.2415017
  34.8569987 106.1885006  45.2415017  31.7629987  98.8785006  34.6495017
  32.7199987  98.8785006  34.6495017  31.5229987  99.8055006  34.6495017
  29.4059987 106.2765006  47.6925017  30.3629987 106.2765006  47.6925017
  29.1659987 107.2035006  47.6925017  32.5049987 100.7835006  36.2795017
  33.4619987 100.7835006  36.2795017  32.2649987 101.7105006  36.2795017
  23.0109987 105.4115006  42.1965017  23.9679987 105.4115006  42.1965017
  22.7709987 106.3385006  42.1965017  30.0489987 107.5275006  35.5235017
  31.0059987 107.5275006  35.5235017  29.8089987 108.4545006  35.5235017
  20.0389987 103.8525006  47.5325017  20.9959987 103.8525006  47.5325017
  19.7989987 104.7795006  47.5325017  27.0409987 103.4075006  49.7245017
  27.9979987 103.4075006  49.7245017  26.8009987 104.3345006  49.7245017
  37.4089987 100.9375006  36.0355017  38.3659987 100.9375006  36.0355017
  37.1689987 101.8645006  36.0355017  37.4049987 106.7695006  48.8615017
  38.3619987 106.7695006  48.8615017  37.1649987 107.6965006  48.8615017
  32.8899987 104.5745006  43.5485017  33.8469987 104.5745006  43.5485017
  32.6499987 105.5015006  43.5485017  21.1769987 103.7325006  34.2205017
  22.1339987 103.7325006  34.2205017  20.9369987 104.6595006  34.2205017
  26.8679987 106.5085006  39.1675017  27.8249987 106.5085006  39.1675017
  26.6279987 107.4355006  39.1675017  30.8329987 106.8065006  45.2205017
  31.7899987 106.8065006  45.2205017  30.5929987 107.7335006  45.2205017
  33.1009987 107.7465006  34.3105017  34.0579987 107.7465006  34.3105017
  32.8609987 108.6735006  34.3105017  21.6829987  98.5985006  47.0755017
  22.6399987  98.5985006  47.0755017  21.4429987  99.5255006  47.0755017
  33.9319987 106.3935006  36.5095017  34.8889987 106.3935006  36.5095017
  33.6919987 107.3205006  36.5095017  22.5799987 105.6835006  35.7095017
  23.5369987 105.6835006  35.7095017  22.3399987 106.6105006  35.7095017
  30.4099987  98.3635006  46.0145017  31.3669987  98.3635006  46.0145017
  30.1699987  99.2905006  46.0145017  31.1549987  97.9475006  37.0975017
  32.1119987  97.9475006  37.0975017  30.9149987  98.8745006  37.0975017
  28.3929987  99.7185006  37.9405017  29.3499987  99.7185006  37.9405017
  28.1529987 100.6455006  37.9405017  28.9379987 100.7115006  47.1195017
  29.8949987 100.7115006  47.1195017  28.6979987 101.6385006  47.1195017
  29.2359987  96.7585006  38.8065017  30.1929987  96.7585006  38.8065017
  28.9959987  97.6855006  38.8065017  24.9229987  97.8475006  35.5215017
  25.8799987  97.8475006  35.5215017  24.6829987  98.7745006  35.5215017
  35.1329987  98.5895006  47.9685017  36.0899987  98.5895006  47.9685017
  34.8929987  99.5165006  47.9685017  33.7319987 102.3715006  42.0005017
  34.6889987 102.3715006  42.0005017  33.4919987 103.2985006  42.0005017
  21.4839987 100.9615006  33.7235017  22.4409987 100.9615006  33.7235017
  21.2439987 101.8885006  33.7235017  22.2989987  95.7525006  42.4425017
  23.2559987  95.7525006  42.4425017  22.0589987  96.6795006  42.4425017
  20.4299987 106.0745006  50.8105017  21.3869987 106.0745006  50.8105017
  20.1899987 107.0015006  50.8105017  24.7049987 106.4225006  32.9155017
  25.6619987 106.4225006  32.9155017  24.4649987 107.3495006  32.9155017
  27.0819987 106.0405006  50.2725017  28.0389987 106.0405006  50.2725017
  26.8419987 106.9675006  50.2725017  30.0159987 107.4905006  32.7075017
  30.9729987 107.4905006  32.7075017  29.7759987 108.4175006  32.7075017
  32.7469987 105.9655006  47.6875017  33.7039987 105.9655006  47.6875017
  32.5069987 106.8925006  47.6875017  21.2729987 103.3445006  50.2615017
  22.2299987 103.3445006  50.2615017  21.0329987 104.2715006  50.2615017
  25.9169987 104.4565006  35.2985017  26.8739987 104.4565006  35.2985017
  25.6769987 105.3835006  35.2985017  25.1929987 102.2775006  47.6285017
  26.1499987 102.2775006  47.6285017  24.9529987 103.2045006  47.6285017
  26.9899987 102.6455006  33.5325017  27.9469987 102.6455006  33.5325017
  26.7499987 103.5725006  33.5325017  30.2449987 104.8105006  50.9095017
  31.2019987 104.8105006  50.9095017  30.0049987 105.7375006  50.9095017
  36.3599987 104.9925006  32.9635017  37.3169987 104.9925006  32.9635017
  36.1199987 105.9195006  32.9635017  25.5889987  99.6525006  48.6965017
  26.5459987  99.6525006  48.6965017  25.3489987 100.5795006  48.6965017
  25.9869987  98.0295006  46.2295017  26.9439987  98.0295006  46.2295017
  25.7469987  98.9565006  46.2295017  27.5449987 103.5105006  46.4775017
  28.5019987 103.5105006  46.4775017  27.3049987 104.4375006  46.4775017
  31.9389987 101.2755006  51.4615017  32.8959987 101.2755006  51.4615017
  31.6989987 102.2025006  51.4615017  33.2759987 104.0625006  49.5835017
  34.2329987 104.0625006  49.5835017  33.0359987 104.9895006  49.5835017
  24.0409987 100.8845006  50.6155017  24.9979987 100.8845006  50.6155017
  23.8009987 101.8115006  50.6155017  26.7799987  95.4675006  46.6385017
  27.7369987  95.4675006  46.6385017  26.5399987  96.3945006  46.6385017
  28.0539987  99.7965006  50.2325017  29.0109987  99.7965006  50.2325017
  27.8139987 100.7235006  50.2325017  30.7699987  98.9335006  49.3115017
  31.7269987  98.9335006  49.3115017  30.5299987  99.8605006  49.3115017
  32.3659987  97.5635006  51.2515017  33.3229987  97.5635006  51.2515017
  32.1259987  98.4905006  51.2515017  22.1409987  98.8205006  50.3435017
  23.0979987  98.8205006  50.3435017  21.9009987  99.7475006  50.3435017
  26.9919987  94.8365006  49.3275017  27.9489987  94.8365006  49.3275017
  26.7519987  95.7635006  49.3275017  27.3589987  96.4705006  51.4165017
  28.3159987  96.4705006  51.4165017  27.1189987  97.3975006  51.4165017
  20.4749987 107.7905006  33.9165017  21.4319987 107.7905006  33.9165017
  20.2349987 108.7175006  33.9165017  35.4499987 107.5675006  51.4355017
  36.4069987 107.5675006  51.4355017  35.2099987 108.4945006  51.4355017
  36.8399987 105.8665006  36.9295017  37.7969987 105.8665006  36.9295017
  36.5999987 106.7935006  36.9295017  37.2259987 103.9635006  38.7905017
  38.1829987 103.9635006  38.7905017  36.9859987 104.8905006  38.7905017
  36.9639987 106.7145006  43.7435017  37.9209987 106.7145006  43.7435017
  36.7239987 107.6415006  43.7435017  37.5189987 103.7905006  35.1805017
  38.4759987 103.7905006  35.1805017  37.2789987 104.7175006  35.1805017
  35.8859987 101.0555006  33.6975017  36.8429987 101.0555006  33.6975017
  35.6459987 101.9825006  33.6975017  35.0409987 102.4595006  39.3525017
  35.9979987 102.4595006  39.3525017  34.8009987 103.3865006  39.3525017
  20.0309987 104.5355006  43.3915017  20.9879987 104.5355006  43.3915017
  19.7909987 105.4625006  43.3915017  35.8849987 104.4515006  49.0055017
  36.8419987 104.4515006  49.0055017  35.6449987 105.3785006  49.0055017
  37.3929987 102.3355006  49.6925017  38.3499987 102.3355006  49.6925017
  37.1529987 103.2625006  49.6925017  35.1239987  98.5125006  32.8335017
  36.0809987  98.5125006  32.8335017  34.8839987  99.4395006  32.8335017
  34.6929987 100.0505006  37.7835017  35.6499987 100.0505006  37.7835017
  34.4529987 100.9775006  37.7835017  35.3369987 100.5965006  43.2505017
  36.2939987 100.5965006  43.2505017  35.0969987 101.5235006  43.2505017
  35.4019987 101.3165006  46.0355017  36.3589987 101.3165006  46.0355017
  35.1619987 102.2435006  46.0355017  19.6509987  99.8485006  49.5475017
  20.6079987  99.8485006  49.5475017  19.4109987 100.7755006  49.5475017
  37.6699987  95.3625006  51.3845017  38.6269987  95.3625006  51.3845017
  37.4299987  96.2895006  51.3845017  35.3659987  97.3335006  37.8585017
  36.3229987  97.3335006  37.8585017  35.1259987  98.2605006  37.8585017
  20.8559987  98.1395006  42.4085017  21.8129987  98.1395006  42.4085017
  20.6159987  99.0665006  42.4085017  19.1439987 101.1285006  43.4565017
  20.1009987 101.1285006  43.4565017  18.9039987 102.0555006  43.4565017
  37.1999987  97.4715006  49.7385017  38.1569987  97.4715006  49.7385017
  36.9599987  98.3985006  49.7385017  37.1859987  97.3695006  34.4065017
  38.1429987  97.3695006  34.4065017  36.9459987  98.2965006  34.4065017
  19.5089987  97.4065006  37.5315017  20.4659987  97.4065006  37.5315017
  19.2689987  98.3335006  37.5315017  19.4619987  96.0755006  45.8345017
  20.4189987  96.0755006  45.8345017  19.2219987  97.0025006  45.8345017
  36.2039987  95.5715006  47.5815017  37.1609987  95.5715006  47.5815017
  35.9639987  96.4985006  47.5815017  29.6109987  96.9975006  41.8725017
  30.5679987  96.9975006  41.8725017  29.3709987  97.9245006  41.8725017
  34.7449987  95.0585006  41.9565017  35.7019987  95.0585006  41.9565017
  34.5049987  95.9855006  41.9565017  36.4239987  96.2765006  40.2405017
  37.3809987  96.2765006  40.2405017  36.1839987  97.2035006  40.2405017
  21.9709987  95.6295006  39.7105017  22.9279987  95.6295006  39.7105017
  21.7309987  96.5565006  39.7105017  20.7309987  95.3785006  35.4275017
  21.6879987  95.3785006  35.4275017  20.4909987  96.3055006  35.4275017
  26.4779987  95.5485006  39.4925017  27.4349987  95.5485006  39.4925017
  26.2379987  96.4755006  39.4925017  32.1329987  95.5755006  41.1375017
  33.0899987  95.5755006  41.1375017  31.8929987  96.5025006  41.1375017
  33.4419987  95.6015006  36.8245017  34.3989987  95.6015006  36.8245017
  33.2019987  96.5285006  36.8245017  22.5939987  97.3265006  33.9465017
  23.5509987  97.3265006  33.9465017  22.3539987  98.2535006  33.9465017
  27.6219987  97.7015006  36.5675017  28.5789987  97.7015006  36.5675017
  27.3819987  98.6285006  36.5675017  21.8679987  96.1615006  49.1755017
  22.8249987  96.1615006  49.1755017  21.6279987  97.0885006  49.1755017
  23.8719987  95.5355006  50.7885017  24.8289987  95.5355006  50.7885017
  23.6319987  96.4625006  50.7885017  32.2709987  94.8445006  50.9565017
  33.2279987  94.8445006  50.9565017  32.0309987  95.7715006  50.9565017
  49.8809987 104.7815006  39.6235017  50.8379987 104.7815006  39.6235017
  49.6409987 105.7085006  39.6235017  48.7739987 104.0325006  43.0835017
  49.7309987 104.0325006  43.0835017  48.5339987 104.9595006  43.0835017
  41.1439987 103.6735006  44.6275017  42.1009987 103.6735006  44.6275017
  40.9039987 104.6005006  44.6275017  52.3459987 106.7955006  41.2845017
  53.3029987 106.7955006  41.2845017  52.1059987 107.7225006  41.2845017
  42.1819987 107.5905006  43.5565017  43.1389987 107.5905006  43.5565017
  41.9419987 108.5175006  43.5565017  38.7049987 101.7025006  38.6155017
  39.6619987 101.7025006  38.6155017  38.4649987 102.6295006  38.6155017
  39.4059987 103.9405006  40.7555017  40.3629987 103.9405006  40.7555017
  39.1659987 104.8675006  40.7555017  47.1439987 106.4075006  43.5555017
  48.1009987 106.4075006  43.5555017  46.9039987 107.3345006  43.5555017
  55.9039987  98.0515006  44.3065017  56.8609987  98.0515006  44.3065017
  55.6639987  98.9785006  44.3065017  50.3279987 100.8735006  43.8465017
  51.2849987 100.8735006  43.8465017  50.0879987 101.8005006  43.8465017
  43.4479987  98.9745006  41.0825017  44.4049987  98.9745006  41.0825017
  43.2079987  99.9015006  41.0825017  51.1799987  99.0835006  39.4485017
  52.1369987  99.0835006  39.4485017  50.9399987 100.0105006  39.4485017
  40.0699987 101.3825006  41.8205017  41.0269987 101.3825006  41.8205017
  39.8299987 102.3095006  41.8205017  45.2319987 102.9515006  41.1065017
  46.1889987 102.9515006  41.1065017  44.9919987 103.8785006  41.1065017
  56.2559987  99.5205006  46.5435017  57.2129987  99.5205006  46.5435017
  56.0159987 100.4475006  46.5435017  42.3359987  97.8805006  45.1265017
  43.2929987  97.8805006  45.1265017  42.0959987  98.8075006  45.1265017
  49.6779987 107.3815006  38.6755017  50.6349987 107.3815006  38.6755017
  49.4379987 108.3085006  38.6755017  44.8609987 105.5355006  45.3835017
  45.8179987 105.5355006  45.3835017  44.6209987 106.4625006  45.3835017
  52.9779987  98.3975006  41.4455017  53.9349987  98.3975006  41.4455017
  52.7379987  99.3245006  41.4455017  41.8959987  99.7435006  43.1345017
  42.8529987  99.7435006  43.1345017  41.6559987 100.6705006  43.1345017
  43.2929987 107.5405006  46.1115017  44.2499987 107.5405006  46.1115017
  43.0529987 108.4675006  46.1115017  39.3559987 107.0685006  37.0545017
  40.3129987 107.0685006  37.0545017  39.1159987 107.9955006  37.0545017
  53.3839987  97.1435006  45.1905017  54.3409987  97.1435006  45.1905017
  53.1439987  98.0705006  45.1905017  46.2839987  95.2125006  42.5465017
  47.2409987  95.2125006  42.5465017  46.0439987  96.1395006  42.5465017
  53.9959987 106.9585006  47.3185017  54.9529987 106.9585006  47.3185017
  53.7559987 107.8855006  47.3185017  48.5879987 103.9995006  37.1055017
  49.5449987 103.9995006  37.1055017  48.3479987 104.9265006  37.1055017
  48.6419987 102.5235006  34.1205017  49.5989987 102.5235006  34.1205017
  48.4019987 103.4505006  34.1205017  55.9669987 103.4185006  45.3885017
  56.9239987 103.4185006  45.3885017  55.7269987 104.3455006  45.3885017
  51.9969987 104.1875006  38.0155017  52.9539987 104.1875006  38.0155017
  51.7569987 105.1145006  38.0155017  51.9519987 102.3765006  47.1245017
  52.9089987 102.3765006  47.1245017  51.7119987 103.3035006  47.1245017
  43.6309987 104.8655006  39.9295017  44.5879987 104.8655006  39.9295017
  43.3909987 105.7925006  39.9295017  43.9689987 103.6445006  43.5845017
  44.9259987 103.6445006  43.5845017  43.7289987 104.5715006  43.5845017
  44.3139987   0.0135006  48.3825017  45.2709987   0.0135006  48.3825017
  44.0739987   0.9405006  48.3825017  50.8929987 103.3965006  35.6885017
  51.8499987 103.3965006  35.6885017  50.6529987 104.3235006  35.6885017
  41.8539987 104.2205006  47.4865017  42.8109987 104.2205006  47.4865017
  41.6139987 105.1475006  47.4865017  54.6209987  95.1375006  35.5645017
  55.5779987  95.1375006  35.5645017  54.3809987  96.0645006  35.5645017
  42.6219987 103.9125006  37.5515017  43.5789987 103.9125006  37.5515017
  42.3819987 104.8395006  37.5515017  38.6639987 106.3095006  46.4155017
  39.6209987 106.3095006  46.4155017  38.4239987 107.2365006  46.4155017
  53.8409987 101.2345006  49.3865017  54.7979987 101.2345006  49.3865017
  53.6009987 102.1615006  49.3865017  40.9809987 107.5705006  47.3565017
  41.9379987 107.5705006  47.3565017  40.7409987 108.4975006  47.3565017
  43.6539987  96.1235006  43.3085017  44.6109987  96.1235006  43.3085017
  43.4139987  97.0505006  43.3085017  48.2779987  95.8285006  46.7285017
  49.2349987  95.8285006  46.7285017  48.0379987  96.7555006  46.7285017
  51.5949987  99.5855006  47.6005017  52.5519987  99.5855006  47.6005017
  51.3549987 100.5125006  47.6005017  52.3479987 104.4155006  33.4405017
  53.3049987 104.4155006  33.4405017  52.1079987 105.3425006  33.4405017
  47.8079987  98.4955006  34.1035017  48.7649987  98.4955006  34.1035017
  47.5679987  99.4225006  34.1035017  43.7509987 101.0755006  44.5535017
  44.7079987 101.0755006  44.5535017  43.5109987 102.0025006  44.5535017
  43.7149987 101.2295006  39.4345017  44.6719987 101.2295006  39.4345017
  43.4749987 102.1565006  39.4345017  49.2309987 101.7035006  38.2205017
  50.1879987 101.7035006  38.2205017  48.9909987 102.6305006  38.2205017
  48.3069987 101.9135006  49.6685017  49.2639987 101.9135006  49.6685017
  48.0669987 102.8405006  49.6685017  50.2679987 101.1785006  41.0565017
  51.2249987 101.1785006  41.0565017  50.0279987 102.1055006  41.0565017
  41.3949987 101.3545006  46.2875017  42.3519987 101.3545006  46.2875017
  41.1549987 102.2815006  46.2875017  44.7869987  98.7185006  33.1175017
  45.7439987  98.7185006  33.1175017  44.5469987  99.6455006  33.1175017
  38.0409987  98.4645006  40.2315017  38.9979987  98.4645006  40.2315017
  37.8009987  99.3915006  40.2315017  39.3149987  99.1775006  35.6065017
  40.2719987  99.1775006  35.6065017  39.0749987 100.1045006  35.6065017
  49.4789987 102.7785006  45.6425017  50.4359987 102.7785006  45.6425017
  49.2389987 103.7055006  45.6425017  46.2819987  98.7385006  40.4565017
  47.2389987  98.7385006  40.4565017  46.0419987  99.6655006  40.4565017
  41.0949987 100.3145006  39.3205017  42.0519987 100.3145006  39.3205017
  40.8549987 101.2415006  39.3205017  44.7399987 100.3395006  36.9425017
  45.6969987 100.3395006  36.9425017  44.4999987 101.2665006  36.9425017
  50.6829987  98.0635006  43.6825017  51.6399987  98.0635006  43.6825017
  50.4429987  98.9905006  43.6825017  43.4309987 101.5295006  34.5405017
  44.3879987 101.5295006  34.5405017  43.1909987 102.4565006  34.5405017
  41.5769987 106.1835006  49.5835017  42.5339987 106.1835006  49.5835017
  41.3369987 107.1105006  49.5835017  47.5699987 101.5015006  42.3495017
  48.5269987 101.5015006  42.3495017  47.3299987 102.4285006  42.3495017
  42.5769987  97.6525006  38.7855017  43.5339987  97.6525006  38.7855017
  42.3369987  98.5795006  38.7855017  46.2069987  99.8475006  44.7625017
  47.1639987  99.8475006  44.7625017  45.9669987 100.7745006  44.7625017
  46.8119987 106.0905006  36.4565017  47.7689987 106.0905006  36.4565017
  46.5719987 107.0175006  36.4565017  53.9529987 105.2615006  45.2405017
  54.9099987 105.2615006  45.2405017  53.7129987 106.1885006  45.2405017
  50.5979987  98.8645006  34.6175017  51.5549987  98.8645006  34.6175017
  50.3579987  99.7915006  34.6175017  48.2619987 106.2765006  47.6925017
  49.2189987 106.2765006  47.6925017  48.0219987 107.2035006  47.6925017
  51.3569987 100.7615006  36.2525017  52.3139987 100.7615006  36.2525017
  51.1169987 101.6885006  36.2525017  41.8669987 105.4115006  42.1965017
  42.8239987 105.4115006  42.1965017  41.6269987 106.3385006  42.1965017
  48.9069987 107.5285006  35.5225017  49.8639987 107.5285006  35.5225017
  48.6669987 108.4555006  35.5225017  38.8949987 103.8525006  47.5335017
  39.8519987 103.8525006  47.5335017  38.6549987 104.7795006  47.5335017
  45.8979987 103.4075006  49.7245017  46.8549987 103.4075006  49.7245017
  45.6579987 104.3345006  49.7245017  56.2639987 100.9385006  36.0365017
  57.2209987 100.9385006  36.0365017  56.0239987 101.8655006  36.0365017
  56.2609987 106.7715006  48.8615017  57.2179987 106.7715006  48.8615017
  56.0209987 107.6985006  48.8615017  51.7459987 104.5745006  43.5485017
  52.7029987 104.5745006  43.5485017  51.5059987 105.5015006  43.5485017
  40.0319987 103.7325006  34.2205017  40.9889987 103.7325006  34.2205017
  39.7919987 104.6595006  34.2205017  45.7239987 106.5075006  39.1675017
  46.6809987 106.5075006  39.1675017  45.4839987 107.4345006  39.1675017
  49.6889987 106.8065006  45.2205017  50.6459987 106.8065006  45.2205017
  49.4489987 107.7335006  45.2205017  51.9339987 107.7285006  34.3135017
  52.8909987 107.7285006  34.3135017  51.6939987 108.6555006  34.3135017
  40.5379987  98.5975006  47.0755017  41.4949987  98.5975006  47.0755017
  40.2979987  99.5245006  47.0755017  52.7829987 106.3905006  36.5165017
  53.7399987 106.3905006  36.5165017  52.5429987 107.3175006  36.5165017
  41.4369987 105.6835006  35.7085017  42.3939987 105.6835006  35.7085017
  41.1969987 106.6105006  35.7085017  49.2499987  98.3765006  46.0265017
  50.2069987  98.3765006  46.0265017  49.0099987  99.3035006  46.0265017
  50.0279987  97.9475006  37.0855017  50.9849987  97.9475006  37.0855017
  49.7879987  98.8745006  37.0855017  47.2329987  99.7155006  37.9125017
  48.1899987  99.7155006  37.9125017  46.9929987 100.6425006  37.9125017
  47.7939987 100.7125006  47.1195017  48.7509987 100.7125006  47.1195017
  47.5539987 101.6395006  47.1195017  48.0549987  96.7765006  38.7655017
  49.0119987  96.7765006  38.7655017  47.8149987  97.7035006  38.7655017
  43.7689987  97.8565006  35.5225017  44.7259987  97.8565006  35.5225017
  43.5289987  98.7835006  35.5225017  54.0149987  98.6325006  47.9625017
  54.9719987  98.6325006  47.9625017  53.7749987  99.5595006  47.9625017
  52.5879987 102.3725006  41.9995017  53.5449987 102.3725006  41.9995017
  52.3479987 103.2995006  41.9995017  40.3399987 100.9625006  33.7265017
  41.2969987 100.9625006  33.7265017  40.0999987 101.8895006  33.7265017
  41.1549987  95.7595006  42.4355017  42.1119987  95.7595006  42.4355017
  40.9149987  96.6865006  42.4355017  39.2859987 106.0755006  50.8105017
  40.2429987 106.0755006  50.8105017  39.0459987 107.0025006  50.8105017
  43.5609987 106.4225006  32.9165017  44.5179987 106.4225006  32.9165017
  43.3209987 107.3495006  32.9165017  45.9379987 106.0395006  50.2725017
  46.8949987 106.0395006  50.2725017  45.6979987 106.9665006  50.2725017
  48.8689987 107.4925006  32.7065017  49.8259987 107.4925006  32.7065017
  48.6289987 108.4195006  32.7065017  51.6029987 105.9655006  47.6865017
  52.5599987 105.9655006  47.6865017  51.3629987 106.8925006  47.6865017
  40.1279987 103.3435006  50.2605017  41.0849987 103.3435006  50.2605017
  39.8879987 104.2705006  50.2605017  44.7729987 104.4545006  35.2945017
  45.7299987 104.4545006  35.2945017  44.5329987 105.3815006  35.2945017
  44.0489987 102.2775006  47.6285017  45.0059987 102.2775006  47.6285017
  43.8089987 103.2045006  47.6285017  45.8459987 102.6465006  33.5325017
  46.8029987 102.6465006  33.5325017  45.6059987 103.5735006  33.5325017
  49.1009987 104.8095006  50.9095017  50.0579987 104.8095006  50.9095017
  48.8609987 105.7365006  50.9095017  55.2349987 104.9735006  32.9585017
  56.1919987 104.9735006  32.9585017  54.9949987 105.9005006  32.9585017
  44.4439987  99.6525006  48.6995017  45.4009987  99.6525006  48.6995017
  44.2039987 100.5795006  48.6995017  44.8369987  98.0595006  46.2385017
  45.7939987  98.0595006  46.2385017  44.5969987  98.9865006  46.2385017
  46.4009987 103.5105006  46.4775017  47.3579987 103.5105006  46.4775017
  46.1609987 104.4375006  46.4775017  50.7889987 101.2785006  51.4395017
  51.7459987 101.2785006  51.4395017  50.5489987 102.2055006  51.4395017
  52.1289987 104.0775006  49.5915017  53.0859987 104.0775006  49.5915017
  51.8889987 105.0045006  49.5915017  42.8969987 100.8855006  50.6155017
  43.8539987 100.8855006  50.6155017  42.6569987 101.8125006  50.6155017
  45.6369987  95.4705006  46.6395017  46.5939987  95.4705006  46.6395017
  45.3969987  96.3975006  46.6395017  46.9109987  99.7985006  50.2295017
  47.8679987  99.7985006  50.2295017  46.6709987 100.7255006  50.2295017
  49.6199987  98.9495006  49.3225017  50.5769987  98.9495006  49.3225017
  49.3799987  99.8765006  49.3225017  51.1969987  97.5835006  51.2495017
  52.1539987  97.5835006  51.2495017  50.9569987  98.5105006  51.2495017
  40.9979987  98.8225006  50.3445017  41.9549987  98.8225006  50.3445017
  40.7579987  99.7495006  50.3445017  45.8649987  94.8625006  49.3365017
  46.8219987  94.8625006  49.3365017  45.6249987  95.7895006  49.3365017
  46.2249987  96.4685006  51.4115017  47.1819987  96.4685006  51.4115017
  45.9849987  97.3955006  51.4115017  39.3309987 107.7895006  33.9155017
  40.2879987 107.7895006  33.9155017  39.0909987 108.7165006  33.9155017
  54.3059987 107.5675006  51.4365017  55.2629987 107.5675006  51.4365017
  54.0659987 108.4945006  51.4365017  55.6929987 105.8675006  36.9305017
  56.6499987 105.8675006  36.9305017  55.4529987 106.7945006  36.9305017
  56.0829987 103.9645006  38.7905017  57.0399987 103.9645006  38.7905017
  55.8429987 104.8915006  38.7905017  55.8199987 106.7145006  43.7435017
  56.7769987 106.7145006  43.7435017  55.5799987 107.6415006  43.7435017
  56.3749987 103.7915006  35.1835017  57.3319987 103.7915006  35.1835017
  56.1349987 104.7185006  35.1835017  54.7419987 101.0555006  33.6975017
  55.6989987 101.0555006  33.6975017  54.5019987 101.9825006  33.6975017
  53.8979987 102.4595006  39.3525017  54.8549987 102.4595006  39.3525017
  53.6579987 103.3865006  39.3525017  38.8869987 104.5355006  43.3915017
  39.8439987 104.5355006  43.3915017  38.6469987 105.4625006  43.3915017
  54.7409987 104.4525006  49.0055017  55.6979987 104.4525006  49.0055017
  54.5009987 105.3795006  49.0055017  56.2489987 102.3365006  49.6905017
  57.2059987 102.3365006  49.6905017  56.0089987 103.2635006  49.6905017
  53.9739987  98.5115006  32.8355017  54.9309987  98.5115006  32.8355017
  53.7339987  99.4385006  32.8355017  53.5499987 100.0525006  37.7865017
  54.5069987 100.0525006  37.7865017  53.3099987 100.9795006  37.7865017
  54.1919987 100.6015006  43.2485017  55.1489987 100.6015006  43.2485017
  53.9519987 101.5285006  43.2485017  54.2539987 101.3255006  46.0305017
  55.2109987 101.3255006  46.0305017  54.0139987 102.2525006  46.0305017
  38.5069987  99.8485006  49.5475017  39.4639987  99.8485006  49.5475017
  38.2669987 100.7755006  49.5475017  56.5999987  95.3965006  51.4075017
  57.5569987  95.3965006  51.4075017  56.3599987  96.3235006  51.4075017
  54.2139987  97.3405006  37.8595017  55.1709987  97.3405006  37.8595017
  53.9739987  98.2675006  37.8595017  39.7109987  98.1395006  42.4085017
  40.6679987  98.1395006  42.4085017  39.4709987  99.0665006  42.4085017
  37.9999987 101.1285006  43.4565017  38.9569987 101.1285006  43.4565017
  37.7599987 102.0555006  43.4565017  56.0659987  97.4875006  49.7185017
  57.0229987  97.4875006  49.7185017  55.8259987  98.4145006  49.7185017
  56.0499987  97.3775006  34.4015017  57.0069987  97.3775006  34.4015017
  55.8099987  98.3045006  34.4015017  38.3639987  97.4075006  37.5315017
  39.3209987  97.4075006  37.5315017  38.1239987  98.3345006  37.5315017
  38.3169987  96.0755006  45.8345017  39.2739987  96.0755006  45.8345017
  38.0769987  97.0025006  45.8345017  55.1149987  95.6045006  47.5215017
  56.0719987  95.6045006  47.5215017  54.8749987  96.5315006  47.5215017
  48.4009987  97.0465006  41.8495017  49.3579987  97.0465006  41.8495017
  48.1609987  97.9735006  41.8495017  53.9099987  95.0195006  41.8025017
  54.8669987  95.0195006  41.8025017  53.6699987  95.9465006  41.8025017
  55.2889987  96.3505006  40.1565017  56.2459987  96.3505006  40.1565017
  55.0489987  97.2775006  40.1565017  40.8229987  95.6355006  39.7105017
  41.7799987  95.6355006  39.7105017  40.5829987  96.5625006  39.7105017
  39.6139987  95.3855006  35.4585017  40.5709987  95.3855006  35.4585017
  39.3739987  96.3125006  35.4585017  45.3209987  95.5485006  39.5095017
  46.2779987  95.5485006  39.5095017  45.0809987  96.4755006  39.5095017
  50.4239987  95.7465006  40.6115017  51.3809987  95.7465006  40.6115017
  50.1839987  96.6735006  40.6115017  52.2869987  95.6045006  36.8015017
  53.2439987  95.6045006  36.8015017  52.0469987  96.5315006  36.8015017
  41.4479987  97.3265006  33.9445017  42.4049987  97.3265006  33.9445017
  41.2079987  98.2535006  33.9445017  46.5119987  97.5695006  36.3535017
  47.4689987  97.5695006  36.3535017  46.2719987  98.4965006  36.3535017
  40.7119987  96.1865006  49.2055017  41.6689987  96.1865006  49.2055017
  40.4719987  97.1135006  49.2055017  42.7299987  95.5415006  50.8075017
  43.6869987  95.5415006  50.8075017  42.4899987  96.4685006  50.8075017
  51.1229987  94.8575006  50.9655017  52.0799987  94.8575006  50.9655017
  50.8829987  95.7845006  50.9655017  68.7239987 104.7675006  39.6185017
  69.6809987 104.7675006  39.6185017  68.4839987 105.6945006  39.6185017
  67.6299987 104.0315006  43.0845017  68.5869987 104.0315006  43.0845017
  67.3899987 104.9585006  43.0845017  60.0009987 103.6765006  44.6265017
  60.9579987 103.6765006  44.6265017  59.7609987 104.6035006  44.6265017
  70.8879987 106.6265006  41.3255017  71.8449987 106.6265006  41.3255017
  70.6479987 107.5535006  41.3255017  61.0379987 107.5905006  43.5565017
  61.9949987 107.5905006  43.5565017  60.7979987 108.5175006  43.5565017
  57.5569987 101.7045006  38.6155017  58.5139987 101.7045006  38.6155017
  57.3169987 102.6315006  38.6155017  58.2629987 103.9395006  40.7555017
  59.2199987 103.9395006  40.7555017  58.0229987 104.8665006  40.7555017
  65.9989987 106.4065006  43.5565017  66.9559987 106.4065006  43.5565017
  65.7589987 107.3335006  43.5565017  74.6359987  98.0685006  44.2915017
  75.5929987  98.0685006  44.2915017  74.3959987  98.9955006  44.2915017
  69.1809987 100.8885006  43.8485017  70.1379987 100.8885006  43.8485017
  68.9409987 101.8155006  43.8485017  62.2809987  98.9725006  41.0995017
  63.2379987  98.9725006  41.0995017  62.0409987  99.8995006  41.0995017
  70.0359987  99.0635006  39.4525017  70.9929987  99.0635006  39.4525017
  69.7959987  99.9905006  39.4525017  58.9159987 101.3595006  41.8275017
  59.8729987 101.3595006  41.8275017  58.6759987 102.2865006  41.8275017
  64.0879987 102.9515006  41.1065017  65.0449987 102.9515006  41.1065017
  63.8479987 103.8785006  41.1065017  75.0669987  99.5005006  46.5485017
  76.0239987  99.5005006  46.5485017  74.8269987 100.4275006  46.5485017
  61.2709987  97.9125006  45.1305017  62.2279987  97.9125006  45.1305017
  61.0309987  98.8395006  45.1305017  68.5329987 107.3815006  38.6775017
  69.4899987 107.3815006  38.6775017  68.2929987 108.3085006  38.6775017
  63.7179987 105.5355006  45.3845017  64.6749987 105.5355006  45.3845017
  63.4779987 106.4625006  45.3845017  71.8299987  98.4005006  41.4435017
  72.7869987  98.4005006  41.4435017  71.5899987  99.3275006  41.4435017
  60.7559987  99.7055006  43.1625017  61.7129987  99.7055006  43.1625017
  60.5159987 100.6325006  43.1625017  62.1489987 107.5415006  46.1115017
  63.1059987 107.5415006  46.1115017  61.9089987 108.4685006  46.1115017
  58.2079987 107.0735006  37.0485017  59.1649987 107.0735006  37.0485017
  57.9679987 108.0005006  37.0485017  72.1779987  97.0925006  45.1245017
  73.1349987  97.0925006  45.1245017  71.9379987  98.0195006  45.1245017
  65.1639987  95.2015006  42.5795017  66.1209987  95.2015006  42.5795017
  64.9239987  96.1285006  42.5795017  72.8429987 106.9455006  47.3235017
  73.7999987 106.9455006  47.3235017  72.6029987 107.8725006  47.3235017
  67.4429987 103.9975006  37.1055017  68.3999987 103.9975006  37.1055017
  67.2029987 104.9245006  37.1055017  67.5029987 102.5465006  34.1185017
  68.4599987 102.5465006  34.1185017  67.2629987 103.4735006  34.1185017
  74.8269987 103.4195006  45.3875017  75.7839987 103.4195006  45.3875017
  74.5869987 104.3465006  45.3875017  70.8369987 104.1645006  38.0055017
  71.7939987 104.1645006  38.0055017  70.5969987 105.0915006  38.0055017
  70.7939987 102.3615006  47.1245017  71.7509987 102.3615006  47.1245017
  70.5539987 103.2885006  47.1245017  62.4869987 104.8645006  39.9295017
  63.4439987 104.8645006  39.9295017  62.2469987 105.7915006  39.9295017
  62.8259987 103.6435006  43.5855017  63.7829987 103.6435006  43.5855017
  62.5859987 104.5705006  43.5855017  63.1709987   0.0125006  48.3825017
  64.1279987   0.0125006  48.3825017  62.9309987   0.9395006  48.3825017
  69.7479987 103.3975006  35.6845017  70.7049987 103.3975006  35.6845017
  69.5079987 104.3245006  35.6845017  60.7089987 104.2195006  47.4865017
  61.6659987 104.2195006  47.4865017  60.4689987 105.1465006  47.4865017
  73.4709987  95.1375006  35.5655017  74.4279987  95.1375006  35.5655017
  73.2309987  96.0645006  35.5655017  61.4779987 103.9125006  37.5515017
  62.4349987 103.9125006  37.5515017  61.2379987 104.8395006  37.5515017
  57.5199987 106.3025006  46.4135017  58.4769987 106.3025006  46.4135017
  57.2799987 107.2295006  46.4135017  72.6359987 101.2455006  49.4115017
  73.5929987 101.2455006  49.4115017  72.3959987 102.1725006  49.4115017
  59.8369987 107.5705006  47.3565017  60.7939987 107.5705006  47.3565017
  59.5969987 108.4975006  47.3565017  62.4929987  96.0945006  43.3585017
  63.4499987  96.0945006  43.3585017  62.2529987  97.0215006  43.3585017
  67.1519987  95.7915006  46.7105017  68.1089987  95.7915006  46.7105017
  66.9119987  96.7185006  46.7105017  70.4579987  99.6105006  47.5965017
  71.4149987  99.6105006  47.5965017  70.2179987 100.5375006  47.5965017
  71.1869987 104.4295006  33.4195017  72.1439987 104.4295006  33.4195017
  70.9469987 105.3565006  33.4195017  66.8039987  98.3475006  33.9965017
  67.7609987  98.3475006  33.9965017  66.5639987  99.2745006  33.9965017
  62.5869987 101.0635006  44.5465017  63.5439987 101.0635006  44.5465017
  62.3469987 101.9905006  44.5465017  62.5709987 101.2275006  39.4355017
  63.5279987 101.2275006  39.4355017  62.3309987 102.1545006  39.4355017
  68.0829987 101.6965006  38.2215017  69.0399987 101.6965006  38.2215017
  67.8429987 102.6235006  38.2215017  67.1749987 101.9295006  49.6925017
  68.1319987 101.9295006  49.6925017  66.9349987 102.8565006  49.6925017
  69.1109987 101.1655006  41.0575017  70.0679987 101.1655006  41.0575017
  68.8709987 102.0925006  41.0575017  60.2559987 101.3405006  46.2855017
  61.2129987 101.3405006  46.2855017  60.0159987 102.2675006  46.2855017
  63.6349987  98.7385006  33.1225017  64.5919987  98.7385006  33.1225017
  63.3949987  99.6655006  33.1225017  56.8999987  98.4545006  40.2425017
  57.8569987  98.4545006  40.2425017  56.6599987  99.3815006  40.2425017
  58.1709987  99.1845006  35.6075017  59.1279987  99.1845006  35.6075017
  57.9309987 100.1115006  35.6075017  68.3569987 102.7765006  45.6645017
  69.3139987 102.7765006  45.6645017  68.1169987 103.7035006  45.6645017
  65.1299987  98.7395006  40.4575017  66.0869987  98.7395006  40.4575017
  64.8899987  99.6665006  40.4575017  59.9489987 100.3145006  39.3205017
  60.9059987 100.3145006  39.3205017  59.7089987 101.2415006  39.3205017
  63.5979987 100.3385006  36.9415017  64.5549987 100.3385006  36.9415017
  63.3579987 101.2655006  36.9415017  69.5409987  97.9765006  43.7065017
  70.4979987  97.9765006  43.7065017  69.3009987  98.9035006  43.7065017
  62.2869987 101.5295006  34.5405017  63.2439987 101.5295006  34.5405017
  62.0469987 102.4565006  34.5405017  60.4329987 106.1825006  49.5835017
  61.3899987 106.1825006  49.5835017  60.1929987 107.1095006  49.5835017
  66.4169987 101.5035006  42.3505017  67.3739987 101.5035006  42.3505017
  66.1769987 102.4305006  42.3505017  61.4429987  97.6585006  38.7925017
  62.3999987  97.6585006  38.7925017  61.2029987  98.5855006  38.7925017
  65.0619987  99.8435006  44.7645017  66.0189987  99.8435006  44.7645017
  64.8219987 100.7705006  44.7645017  65.6669987 106.0915006  36.4565017
  66.6239987 106.0915006  36.4565017  65.4269987 107.0185006  36.4565017
  72.8049987 105.2395006  45.2415017  73.7619987 105.2395006  45.2415017
  72.5649987 106.1665006  45.2415017  69.4899987  98.8865006  34.6175017
  70.4469987  98.8865006  34.6175017  69.2499987  99.8135006  34.6175017
  67.1429987 106.2745006  47.7105017  68.0999987 106.2745006  47.7105017
  66.9029987 107.2015006  47.7105017  70.2159987 100.7885006  36.2975017
  71.1729987 100.7885006  36.2975017  69.9759987 101.7155006  36.2975017
  60.7229987 105.4115006  42.1965017  61.6799987 105.4115006  42.1965017
  60.4829987 106.3385006  42.1965017  67.7609987 107.5275006  35.5225017
  68.7179987 107.5275006  35.5225017  67.5209987 108.4545006  35.5225017
  57.7509987 103.8525006  47.5325017  58.7079987 103.8525006  47.5325017
  57.5109987 104.7795006  47.5325017  64.7639987 103.4105006  49.7245017
  65.7209987 103.4105006  49.7245017  64.5239987 104.3375006  49.7245017
  75.1219987 100.9385006  36.0355017  76.0789987 100.9385006  36.0355017
  74.8819987 101.8655006  36.0355017  75.1159987 106.7735006  48.8525017
  76.0729987 106.7735006  48.8525017  74.8759987 107.7005006  48.8525017
  70.5969987 104.5625006  43.5405017  71.5539987 104.5625006  43.5405017
  70.3569987 105.4895006  43.5405017  58.8899987 103.7305006  34.2215017
  59.8469987 103.7305006  34.2215017  58.6499987 104.6575006  34.2215017
  64.5789987 106.5075006  39.1675017  65.5359987 106.5075006  39.1675017
  64.3389987 107.4345006  39.1675017  68.5249987 106.7975006  45.2175017
  69.4819987 106.7975006  45.2175017  68.2849987 107.7245006  45.2175017
  70.8119987 107.7525006  34.3135017  71.7689987 107.7525006  34.3135017
  70.5719987 108.6795006  34.3135017  59.3779987  98.5665006  47.0455017
  60.3349987  98.5665006  47.0455017  59.1379987  99.4935006  47.0455017
  71.6429987 106.3765006  36.4855017  72.5999987 106.3765006  36.4855017
  71.4029987 107.3035006  36.4855017  60.2979987 105.6805006  35.7155017
  61.2549987 105.6805006  35.7155017  60.0579987 106.6075006  35.7155017
  68.1209987  98.3645006  46.0165017  69.0779987  98.3645006  46.0165017
  67.8809987  99.2915006  46.0165017  68.8879987  97.9455006  37.0985017
  69.8449987  97.9455006  37.0985017  68.6479987  98.8725006  37.0985017
  66.1009987  99.7015006  37.9315017  67.0579987  99.7015006  37.9315017
  65.8609987 100.6285006  37.9315017  66.6439987 100.7055006  47.1185017
  67.6009987 100.7055006  47.1185017  66.4039987 101.6325006  47.1185017
  66.9599987  96.7595006  38.8375017  67.9169987  96.7595006  38.8375017
  66.7199987  97.6865006  38.8375017  62.6139987  97.8505006  35.5355017
  63.5709987  97.8505006  35.5355017  62.3739987  98.7775006  35.5355017
  72.8519987  98.5805006  47.9635017  73.8089987  98.5805006  47.9635017
  72.6119987  99.5075006  47.9635017  71.4449987 102.3705006  41.9995017
  72.4019987 102.3705006  41.9995017  71.2049987 103.2975006  41.9995017
  59.1959987 100.9635006  33.7235017  60.1529987 100.9635006  33.7235017
  58.9559987 101.8905006  33.7235017  59.9579987  95.7845006  42.4675017
  60.9149987  95.7845006  42.4675017  59.7179987  96.7115006  42.4675017
  58.1419987 106.0755006  50.8115017  59.0989987 106.0755006  50.8115017
  57.9019987 107.0025006  50.8115017  62.4189987 106.4235006  32.9145017
  63.3759987 106.4235006  32.9145017  62.1789987 107.3505006  32.9145017
  64.8059987 106.0385006  50.2715017  65.7629987 106.0385006  50.2715017
  64.5659987 106.9655006  50.2715017  67.7309987 107.4835006  32.7015017
  68.6879987 107.4835006  32.7015017  67.4909987 108.4105006  32.7015017
  70.4449987 106.0115006  47.6725017  71.4019987 106.0115006  47.6725017
  70.2049987 106.9385006  47.6725017  58.9909987 103.3485006  50.2655017
  59.9479987 103.3485006  50.2655017  58.7509987 104.2755006  50.2655017
  63.6269987 104.4595006  35.2975017  64.5839987 104.4595006  35.2975017
  63.3869987 105.3865006  35.2975017  62.9049987 102.2775006  47.6285017
  63.8619987 102.2775006  47.6285017  62.6649987 103.2045006  47.6285017
  64.6939987 102.6605006  33.5445017  65.6509987 102.6605006  33.5445017
  64.4539987 103.5875006  33.5445017  67.9429987 104.7735006  50.8735017
  68.8999987 104.7735006  50.8735017  67.7029987 105.7005006  50.8735017
  74.0549987 104.9955006  32.9775017  75.0119987 104.9955006  32.9775017
  73.8149987 105.9225006  32.9775017  63.3019987  99.6565006  48.6995017
  64.2589987  99.6565006  48.6995017  63.0619987 100.5835006  48.6995017
  63.7029987  98.0295006  46.2325017  64.6599987  98.0295006  46.2325017
  63.4629987  98.9565006  46.2325017  65.2559987 103.5095006  46.4755017
  66.2129987 103.5095006  46.4755017  65.0159987 104.4365006  46.4755017
  69.6199987 101.0605006  51.5225017  70.5769987 101.0605006  51.5225017
  69.3799987 101.9875006  51.5225017  71.0979987 104.0645006  49.1695017
  72.0549987 104.0645006  49.1695017  70.8579987 104.9915006  49.1695017
  61.7529987 100.8845006  50.6155017  62.7099987 100.8845006  50.6155017
  61.5129987 101.8115006  50.6155017  64.4979987  95.4655006  46.6455017
  65.4549987  95.4655006  46.6455017  64.2579987  96.3925006  46.6455017
  65.7689987  99.8025006  50.2345017  66.7259987  99.8025006  50.2345017
  65.5289987 100.7295006  50.2345017  68.4879987  98.9735006  49.3415017
  69.4449987  98.9735006  49.3415017  68.2479987  99.9005006  49.3415017
  70.0729987  97.5745006  51.2595017  71.0299987  97.5745006  51.2595017
  69.8329987  98.5015006  51.2595017  59.8469987  98.8165006  50.3295017
  60.8039987  98.8165006  50.3295017  59.6069987  99.7435006  50.3295017
  64.7049987  94.8365006  49.3275017  65.6619987  94.8365006  49.3275017
  64.4649987  95.7635006  49.3275017  65.0729987  96.4705006  51.4175017
  66.0299987  96.4705006  51.4175017  64.8329987  97.3975006  51.4175017
  58.2509987 107.5915006  34.0925017  59.2079987 107.5915006  34.0925017
  58.0109987 108.5185006  34.0925017  73.1559987 107.5535006  51.4395017
  74.1129987 107.5535006  51.4395017  72.9159987 108.4805006  51.4395017
  74.5649987 105.8515006  36.9095017  75.5219987 105.8515006  36.9095017
  74.3249987 106.7785006  36.9095017  74.9439987 103.9595006  38.7885017
  75.9009987 103.9595006  38.7885017  74.7039987 104.8865006  38.7885017
  74.6999987 106.6775006  43.7585017  75.6569987 106.6775006  43.7585017
  74.4599987 107.6045006  43.7585017  75.2319987 103.7895006  35.1795017
  76.1889987 103.7895006  35.1795017  74.9919987 104.7165006  35.1795017
  73.6049987 101.0535006  33.6985017  74.5619987 101.0535006  33.6985017
  73.3649987 101.9805006  33.6985017  72.7549987 102.4635006  39.3545017
  73.7119987 102.4635006  39.3545017  72.5149987 103.3905006  39.3545017
  57.7429987 104.5355006  43.3915017  58.6999987 104.5355006  43.3915017
  57.5029987 105.4625006  43.3915017  73.6209987 104.4495006  49.0465017
  74.5779987 104.4495006  49.0465017  73.3809987 105.3765006  49.0465017
  75.0899987 102.3285006  49.7065017  76.0469987 102.3285006  49.7065017
  74.8499987 103.2555006  49.7065017  72.8289987  98.5075006  32.8185017
  73.7859987  98.5075006  32.8185017  72.5889987  99.4345006  32.8185017
  72.4019987 100.0495006  37.7755017  73.3589987 100.0495006  37.7755017
  72.1619987 100.9765006  37.7755017  73.0499987 100.5955006  43.2515017
  74.0069987 100.5955006  43.2515017  72.8099987 101.5225006  43.2515017
  73.1159987 101.3165006  46.0355017  74.0729987 101.3165006  46.0355017
  72.8759987 102.2435006  46.0355017  57.3789987  99.8445006  49.5175017
  58.3359987  99.8445006  49.5175017  57.1389987 100.7715006  49.5175017
  75.3809987  95.3615006  51.3925017  76.3379987  95.3615006  51.3925017
  75.1409987  96.2885006  51.3925017  73.0789987  97.3335006  37.8585017
  74.0359987  97.3335006  37.8585017  72.8389987  98.2605006  37.8585017
  58.5549987  98.1325006  42.4645017  59.5119987  98.1325006  42.4645017
  58.3149987  99.0595006  42.4645017  56.8799987 101.1065006  43.4775017
  57.8369987 101.1065006  43.4775017  56.6399987 102.0335006  43.4775017
  74.9069987  97.4735006  49.7405017  75.8639987  97.4735006  49.7405017
  74.6669987  98.4005006  49.7405017  74.9029987  97.3715006  34.4095017
  75.8599987  97.3715006  34.4095017  74.6629987  98.2985006  34.4095017
  57.2379987  97.3965006  37.5325017  58.1949987  97.3965006  37.5325017
  56.9979987  98.3235006  37.5325017  57.1149987  96.0555006  45.8455017
  58.0719987  96.0555006  45.8455017  56.8749987  96.9825006  45.8455017
  73.9239987  95.5665006  47.5745017  74.8809987  95.5665006  47.5745017
  73.6839987  96.4935006  47.5745017  67.3219987  96.9975006  41.8735017
  68.2789987  96.9975006  41.8735017  67.0819987  97.9245006  41.8735017
  72.4569987  95.0575006  41.9575017  73.4139987  95.0575006  41.9575017
  72.2169987  95.9845006  41.9575017  74.1359987  96.2765006  40.2405017
  75.0929987  96.2765006  40.2405017  73.8959987  97.2035006  40.2405017
  59.6699987  95.6035006  39.7455017  60.6269987  95.6035006  39.7455017
  59.4299987  96.5305006  39.7455017  58.4789987  95.3935006  35.4615017
  59.4359987  95.3935006  35.4615017  58.2389987  96.3205006  35.4615017
  64.1829987  95.5465006  39.5015017  65.1399987  95.5465006  39.5015017
  63.9429987  96.4735006  39.5015017  69.8499987  95.5735006  41.1415017
  70.8069987  95.5735006  41.1415017  69.6099987  96.5005006  41.1415017
  71.1479987  95.6045006  36.8225017  72.1049987  95.6045006  36.8225017
  70.9079987  96.5315006  36.8225017  60.3039987  97.3295006  33.9415017
  61.2609987  97.3295006  33.9415017  60.0639987  98.2565006  33.9415017
  65.3309987  97.5805006  36.3585017  66.2879987  97.5805006  36.3585017
  65.0909987  98.5075006  36.3585017  59.5879987  96.1555006  49.1455017
  60.5449987  96.1555006  49.1455017  59.3479987  97.0825006  49.1455017
  61.5819987  95.5445006  50.7855017  62.5389987  95.5445006  50.7855017
  61.3419987  96.4715006  50.7855017  69.9919987  94.8455006  50.9545017
  70.9489987  94.8455006  50.9545017  69.7519987  95.7725006  50.9545017
  87.5929987 104.7815006  39.6225017  88.5499987 104.7815006  39.6225017
  87.3529987 105.7085006  39.6225017  86.4879987 104.0325006  43.0825017
  87.4449987 104.0325006  43.0825017  86.2479987 104.9595006  43.0825017
  78.8559987 103.6735006  44.6275017  79.8129987 103.6735006  44.6275017
  78.6159987 104.6005006  44.6275017  90.0589987 106.7955006  41.2855017
  91.0159987 106.7955006  41.2855017  89.8189987 107.7225006  41.2855017
  79.8939987 107.5855006  43.5605017  80.8509987 107.5855006  43.5605017
  79.6539987 108.5125006  43.5605017  76.4169987 101.7025006  38.6155017
  77.3739987 101.7025006  38.6155017  76.1769987 102.6295006  38.6155017
  77.1189987 103.9405006  40.7555017  78.0759987 103.9405006  40.7555017
  76.8789987 104.8675006  40.7555017  84.8559987 106.4075006  43.5565017
  85.8129987 106.4075006  43.5565017  84.6159987 107.3345006  43.5565017
  93.4919987  98.0685006  44.2915017  94.4489987  98.0685006  44.2915017
  93.2519987  98.9955006  44.2915017  88.0379987 100.8855006  43.8475017
  88.9949987 100.8855006  43.8475017  87.7979987 101.8125006  43.8475017
  81.1609987  98.9745006  41.0825017  82.1179987  98.9745006  41.0825017
  80.9209987  99.9015006  41.0825017  88.8789987  99.0705006  39.4675017
  89.8359987  99.0705006  39.4675017  88.6389987  99.9975006  39.4675017
  77.7819987 101.3825006  41.8205017  78.7389987 101.3825006  41.8205017
  77.5419987 102.3095006  41.8205017  82.9439987 102.9515006  41.1065017
  83.9009987 102.9515006  41.1065017  82.7039987 103.8785006  41.1065017
  93.9269987  99.5035006  46.5525017  94.8839987  99.5035006  46.5525017
  93.6869987 100.4305006  46.5525017  80.0459987  97.8735006  45.1265017
  81.0029987  97.8735006  45.1265017  79.8059987  98.8005006  45.1265017
  87.3909987 107.3815006  38.6745017  88.3479987 107.3815006  38.6745017
  87.1509987 108.3085006  38.6745017  82.5729987 105.5355006  45.3835017
  83.5299987 105.5355006  45.3835017  82.3329987 106.4625006  45.3835017
  90.6869987  98.3995006  41.4435017  91.6439987  98.3995006  41.4435017
  90.4469987  99.3265006  41.4435017  79.6089987  99.7425006  43.1355017
  80.5659987  99.7425006  43.1355017  79.3689987 100.6695006  43.1355017
  81.0049987 107.5405006  46.1115017  81.9619987 107.5405006  46.1115017
  80.7649987 108.4675006  46.1115017  77.0669987 107.0685006  37.0555017
  78.0239987 107.0685006  37.0555017  76.8269987 107.9955006  37.0555017
  91.0319987  97.0915006  45.1245017  91.9889987  97.0915006  45.1245017
  90.7919987  98.0185006  45.1245017  84.0149987  95.2055006  42.5825017
  84.9719987  95.2055006  42.5825017  83.7749987  96.1325006  42.5825017
  91.7069987 106.9585006  47.3185017  92.6639987 106.9585006  47.3185017
  91.4669987 107.8855006  47.3185017  86.2999987 103.9985006  37.1055017
  87.2569987 103.9985006  37.1055017  86.0599987 104.9255006  37.1055017
  86.3599987 102.5405006  34.1145017  87.3169987 102.5405006  34.1145017
  86.1199987 103.4675006  34.1145017  93.6789987 103.4165006  45.3865017
  94.6359987 103.4165006  45.3865017  93.4389987 104.3435006  45.3865017
  89.7089987 104.1795006  38.0095017  90.6659987 104.1795006  38.0095017
  89.4689987 105.1065006  38.0095017  89.6599987 102.3765006  47.1235017
  90.6169987 102.3765006  47.1235017  89.4199987 103.3035006  47.1235017
  81.3429987 104.8655006  39.9295017  82.2999987 104.8655006  39.9295017
  81.1029987 105.7925006  39.9295017  81.6809987 103.6445006  43.5845017
  82.6379987 103.6445006  43.5845017  81.4409987 104.5715006  43.5845017
  82.0239987   0.0145006  48.3835017  82.9809987   0.0145006  48.3835017
  81.7839987   0.9415006  48.3835017  88.6029987 103.3995006  35.6875017
  89.5599987 103.3995006  35.6875017  88.3629987 104.3265006  35.6875017
  79.5649987 104.2235006  47.4825017  80.5219987 104.2235006  47.4825017
  79.3249987 105.1505006  47.4825017  92.3219987  95.1275006  35.5655017
  93.2789987  95.1275006  35.5655017  92.0819987  96.0545006  35.5655017
  80.3339987 103.9125006  37.5515017  81.2909987 103.9125006  37.5515017
  80.0939987 104.8395006  37.5515017  76.3899987 106.3005006  46.4215017
  77.3469987 106.3005006  46.4215017  76.1499987 107.2275006  46.4215017
  91.5539987 101.2335006  49.3865017  92.5109987 101.2335006  49.3865017
  91.3139987 102.1605006  49.3865017  78.6959987 107.5685006  47.3595017
  79.6529987 107.5685006  47.3595017  78.4559987 108.4955006  47.3595017
  81.3619987  96.0995006  43.3455017  82.3189987  96.0995006  43.3455017
  81.1219987  97.0265006  43.3455017  86.0069987  95.7905006  46.7095017
  86.9639987  95.7905006  46.7095017  85.7669987  96.7175006  46.7095017
  89.3089987  99.6085006  47.5985017  90.2659987  99.6085006  47.5985017
  89.0689987 100.5355006  47.5985017  90.0539987 104.4115006  33.4375017
  91.0109987 104.4115006  33.4375017  89.8139987 105.3385006  33.4375017
  85.6579987  98.3495006  34.0085017  86.6149987  98.3495006  34.0085017
  85.4179987  99.2765006  34.0085017  81.4629987 101.0745006  44.5535017
  82.4199987 101.0745006  44.5535017  81.2229987 102.0015006  44.5535017
  81.4269987 101.2295006  39.4345017  82.3839987 101.2295006  39.4345017
  81.1869987 102.1565006  39.4345017  86.9399987 101.6995006  38.2215017
  87.8969987 101.6995006  38.2215017  86.6999987 102.6265006  38.2215017
  86.0209987 101.9105006  49.6665017  86.9779987 101.9105006  49.6665017
  85.7809987 102.8375006  49.6665017  87.9769987 101.1785006  41.0565017
  88.9339987 101.1785006  41.0565017  87.7369987 102.1055006  41.0565017
  79.1099987 101.3535006  46.2875017  80.0669987 101.3535006  46.2875017
  78.8699987 102.2805006  46.2875017  82.4909987  98.7385006  33.1245017
  83.4479987  98.7385006  33.1245017  82.2509987  99.6655006  33.1245017
  75.7529987  98.4645006  40.2315017  76.7099987  98.4645006  40.2315017
  75.5129987  99.3915006  40.2315017  77.0269987  99.1785006  35.6075017
  77.9839987  99.1785006  35.6075017  76.7869987 100.1055006  35.6075017
  87.1929987 102.7755006  45.6425017  88.1499987 102.7755006  45.6425017
  86.9529987 103.7025006  45.6425017  83.9909987  98.7395006  40.4555017
  84.9479987  98.7395006  40.4555017  83.7509987  99.6665006  40.4555017
  78.8059987 100.3145006  39.3195017  79.7629987 100.3145006  39.3195017
  78.5659987 101.2415006  39.3195017  82.4519987 100.3405006  36.9465017
  83.4089987 100.3405006  36.9465017  82.2119987 101.2675006  36.9465017
  88.3979987  97.9745006  43.7065017  89.3549987  97.9745006  43.7065017
  88.1579987  98.9015006  43.7065017  81.1429987 101.5295006  34.5395017
  82.0999987 101.5295006  34.5395017  80.9029987 102.4565006  34.5395017
  79.2969987 106.1865006  49.5855017  80.2539987 106.1865006  49.5855017
  79.0569987 107.1135006  49.5855017  85.2779987 101.5055006  42.3515017
  86.2349987 101.5055006  42.3515017  85.0379987 102.4325006  42.3515017
  80.2889987  97.6525006  38.7865017  81.2459987  97.6525006  38.7865017
  80.0489987  98.5795006  38.7865017  83.9169987  99.8455006  44.7645017
  84.8739987  99.8455006  44.7645017  83.6769987 100.7725006  44.7645017
  84.5229987 106.0905006  36.4565017  85.4799987 106.0905006  36.4565017
  84.2829987 107.0175006  36.4565017  91.6649987 105.2615006  45.2405017
  92.6219987 105.2615006  45.2405017  91.4249987 106.1885006  45.2405017
  88.3319987  98.8935006  34.6235017  89.2889987  98.8935006  34.6235017
  88.0919987  99.8205006  34.6235017  85.9739987 106.2765006  47.6925017
  86.9309987 106.2765006  47.6925017  85.7339987 107.2035006  47.6925017
  89.0659987 100.7835006  36.2795017  90.0229987 100.7835006  36.2795017
  88.8259987 101.7105006  36.2795017  79.5789987 105.4115006  42.1965017
  80.5359987 105.4115006  42.1965017  79.3389987 106.3385006  42.1965017
  86.6169987 107.5275006  35.5235017  87.5739987 107.5275006  35.5235017
  86.3769987 108.4545006  35.5235017  76.5979987 103.8535006  47.5335017
  77.5549987 103.8535006  47.5335017  76.3579987 104.7805006  47.5335017
  83.6169987 103.4155006  49.7115017  84.5739987 103.4155006  49.7115017
  83.3769987 104.3425006  49.7115017  93.4979987 100.9695006  36.2525017
  94.4549987 100.9695006  36.2525017  93.2579987 101.8965006  36.2525017
  93.9759987 106.7715006  48.8635017  94.9329987 106.7715006  48.8635017
  93.7359987 107.6985006  48.8635017  89.4559987 104.5745006  43.5485017
  90.4129987 104.5745006  43.5485017  89.2159987 105.5015006  43.5485017
  77.7459987 103.7395006  34.2115017  78.7029987 103.7395006  34.2115017
  77.5059987 104.6665006  34.2115017  83.4359987 106.5075006  39.1675017
  84.3929987 106.5075006  39.1675017  83.1959987 107.4345006  39.1675017
  87.4019987 106.8075006  45.2235017  88.3589987 106.8075006  45.2235017
  87.1619987 107.7345006  45.2235017  89.6729987 107.7405006  34.3095017
  90.6299987 107.7405006  34.3095017  89.4329987 108.6675006  34.3095017
  78.2529987  98.5975006  47.0755017  79.2099987  98.5975006  47.0755017
  78.0129987  99.5245006  47.0755017  90.5009987 106.3905006  36.5125017
  91.4579987 106.3905006  36.5125017  90.2609987 107.3175006  36.5125017
  79.1489987 105.6825006  35.7125017  80.1059987 105.6825006  35.7125017
  78.9089987 106.6095006  35.7125017  86.9779987  98.3635006  46.0145017
  87.9349987  98.3635006  46.0145017  86.7379987  99.2905006  46.0145017
  87.7359987  97.9535006  37.1085017  88.6929987  97.9535006  37.1085017
  87.4959987  98.8805006  37.1085017  84.9569987  99.7005006  37.9315017
  85.9139987  99.7005006  37.9315017  84.7169987 100.6275006  37.9315017
  85.5059987 100.7115006  47.1195017  86.4629987 100.7115006  47.1195017
  85.2659987 101.6385006  47.1195017  85.8259987  96.7475006  38.8395017
  86.7829987  96.7475006  38.8395017  85.5859987  97.6745006  38.8395017
  81.4699987  97.8495006  35.5365017  82.4269987  97.8495006  35.5365017
  81.2299987  98.7765006  35.5365017  91.7009987  98.5915006  47.9685017
  92.6579987  98.5915006  47.9685017  91.4609987  99.5185006  47.9685017
  90.3039987 102.3695006  41.9945017  91.2609987 102.3695006  41.9945017
  90.0639987 103.2965006  41.9945017  78.0509987 100.9585006  33.7255017
  79.0079987 100.9585006  33.7255017  77.8109987 101.8855006  33.7255017
  78.8669987  95.7535006  42.4425017  79.8239987  95.7535006  42.4425017
  78.6269987  96.6805006  42.4425017  76.9839987 106.0785006  50.8055017
  77.9409987 106.0785006  50.8055017  76.7439987 107.0055006  50.8055017
  81.2749987 106.4285006  32.9155017  82.2319987 106.4285006  32.9155017
  81.0349987 107.3555006  32.9155017  83.6759987 106.0415006  50.2555017
  84.6329987 106.0415006  50.2555017  83.4359987 106.9685006  50.2555017
  86.5829987 107.4905006  32.7045017  87.5399987 107.4905006  32.7045017
  86.3429987 108.4175006  32.7045017  89.3149987 105.9655006  47.6875017
  90.2719987 105.9655006  47.6875017  89.0749987 106.8925006  47.6875017
  77.7919987 103.3275006  50.2405017  78.7489987 103.3275006  50.2405017
  77.5519987 104.2545006  50.2405017  82.4849987 104.4585006  35.2985017
  83.4419987 104.4585006  35.2985017  82.2449987 105.3855006  35.2985017
  81.7589987 102.2785006  47.6315017  82.7159987 102.2785006  47.6315017
  81.5189987 103.2055006  47.6315017  83.5579987 102.6445006  33.5335017
  84.5149987 102.6445006  33.5335017  83.3179987 103.5715006  33.5335017
  86.8069987 104.8085006  50.9075017  87.7639987 104.8085006  50.9075017
  86.5669987 105.7355006  50.9075017  92.9459987 104.9875006  32.9665017
  93.9029987 104.9875006  32.9665017  92.7059987 105.9145006  32.9665017
  82.1559987  99.6565006  48.6965017  83.1129987  99.6565006  48.6965017
  81.9159987 100.5835006  48.6965017  82.5549987  98.0285006  46.2295017
  83.5119987  98.0285006  46.2295017  82.3149987  98.9555006  46.2295017
  84.1109987 103.5095006  46.4655017  85.0679987 103.5095006  46.4655017
  83.8709987 104.4365006  46.4655017  88.5009987 101.2795006  51.4385017
  89.4579987 101.2795006  51.4385017  88.2609987 102.2065006  51.4385017
  89.8429987 104.0615006  49.5825017  90.7999987 104.0615006  49.5825017
  89.6029987 104.9885006  49.5825017  80.6099987 100.8905006  50.5985017
  81.5669987 100.8905006  50.5985017  80.3699987 101.8175006  50.5985017
  83.3479987  95.4635006  46.6395017  84.3049987  95.4635006  46.6395017
  83.1079987  96.3905006  46.6395017  84.6239987  99.7945006  50.2305017
  85.5809987  99.7945006  50.2305017  84.3839987 100.7215006  50.2305017
  87.3379987  98.9325006  49.3115017  88.2949987  98.9325006  49.3115017
  87.0979987  99.8595006  49.3115017  88.9329987  97.5645006  51.2545017
  89.8899987  97.5645006  51.2545017  88.6929987  98.4915006  51.2545017
  78.7059987  98.8215006  50.3435017  79.6629987  98.8215006  50.3435017
  78.4659987  99.7485006  50.3435017  83.5589987  94.8375006  49.3265017
  84.5159987  94.8375006  49.3265017  83.3189987  95.7645006  49.3265017
  83.9329987  96.4615006  51.4085017  84.8899987  96.4615006  51.4085017
  83.6929987  97.3885006  51.4085017  77.0419987 107.7925006  33.9165017
  77.9989987 107.7925006  33.9165017  76.8019987 108.7195006  33.9165017
  92.0179987 107.5665006  51.4355017  92.9749987 107.5665006  51.4355017
  91.7779987 108.4935006  51.4355017  93.4259987 105.8365006  36.9065017
  94.3829987 105.8365006  36.9065017  93.1859987 106.7635006  36.9065017
  93.8109987 103.9485006  38.7885017  94.7679987 103.9485006  38.7885017
  93.5709987 104.8755006  38.7885017  93.5319987 106.7135006  43.7435017
  94.4889987 106.7135006  43.7435017  93.2919987 107.6405006  43.7435017
  94.0899987 103.7755006  35.1825017  95.0469987 103.7755006  35.1825017
  93.8499987 104.7025006  35.1825017  92.5299987 101.0505006  33.6945017
  93.4869987 101.0505006  33.6945017  92.2899987 101.9775006  33.6945017
  91.6269987 102.4565006  39.3485017  92.5839987 102.4565006  39.3485017
  91.3869987 103.3835006  39.3485017  76.6029987 104.5215006  43.3905017
  77.5599987 104.5215006  43.3905017  76.3629987 105.4485006  43.3905017
  92.4409987 104.4525006  49.0135017  93.3979987 104.4525006  49.0135017
  92.2009987 105.3795006  49.0135017  93.9619987 102.3355006  49.6945017
  94.9189987 102.3355006  49.6945017  93.7219987 103.2625006  49.6945017
  91.6999987  98.5295006  32.8525017  92.6569987  98.5295006  32.8525017
  91.4599987  99.4565006  32.8525017  91.2589987 100.0505006  37.7855017
  92.2159987 100.0505006  37.7855017  91.0189987 100.9775006  37.7855017
  91.9059987 100.5955006  43.2515017  92.8629987 100.5955006  43.2515017
  91.6659987 101.5225006  43.2515017  91.9649987 101.3165006  46.0345017
  92.9219987 101.3165006  46.0345017  91.7249987 102.2435006  46.0345017
  76.2189987  99.8515006  49.5455017  77.1759987  99.8515006  49.5455017
  75.9789987 100.7785006  49.5455017  94.2379987  95.3645006  51.3875017
  95.1949987  95.3645006  51.3875017  93.9979987  96.2915006  51.3875017
  91.9439987  97.3355006  37.8575017  92.9009987  97.3355006  37.8575017
  91.7039987  98.2625006  37.8575017  77.4229987  98.1395006  42.4085017
  78.3799987  98.1395006  42.4085017  77.1829987  99.0665006  42.4085017
  75.7119987 101.1255006  43.4555017  76.6689987 101.1255006  43.4555017
  75.4719987 102.0525006  43.4555017  93.7679987  97.4705006  49.7385017
  94.7249987  97.4705006  49.7385017  93.5279987  98.3975006  49.7385017
  93.7649987  97.3815006  34.4095017  94.7219987  97.3815006  34.4095017
  93.5249987  98.3085006  34.4095017  76.0759987  97.4075006  37.5315017
  77.0329987  97.4075006  37.5315017  75.8359987  98.3345006  37.5315017
  76.0289987  96.0755006  45.8325017  76.9859987  96.0755006  45.8325017
  75.7889987  97.0025006  45.8325017  92.7799987  95.5665006  47.5745017
  93.7369987  95.5665006  47.5745017  92.5399987  96.4935006  47.5745017
  86.1799987  97.0035006  41.8785017  87.1369987  97.0035006  41.8785017
  85.9399987  97.9305006  41.8785017  91.3069987  95.0385006  41.9295017
  92.2639987  95.0385006  41.9295017  91.0669987  95.9655006  41.9295017
  92.9939987  96.2815006  40.2395017  93.9509987  96.2815006  40.2395017
  92.7539987  97.2085006  40.2395017  78.5379987  95.6295006  39.7115017
  79.4949987  95.6295006  39.7115017  78.2979987  96.5565006  39.7115017
  77.3259987  95.3855006  35.4585017  78.2829987  95.3855006  35.4585017
  77.0859987  96.3125006  35.4585017  83.0399987  95.5485006  39.5005017
  83.9969987  95.5485006  39.5005017  82.7999987  96.4755006  39.5005017
  88.7129987  95.5645006  41.1345017  89.6699987  95.5645006  41.1345017
  88.4729987  96.4915006  41.1345017  90.0209987  95.6315006  36.8345017
  90.9779987  95.6315006  36.8345017  89.7809987  96.5585006  36.8345017
  79.1589987  97.3275006  33.9445017  80.1159987  97.3275006  33.9445017
  78.9189987  98.2545006  33.9445017  84.1709987  97.5895006  36.3595017
  85.1279987  97.5895006  36.3595017  83.9309987  98.5165006  36.3595017
  78.4369987  96.1605006  49.1755017  79.3939987  96.1605006  49.1755017
  78.1969987  97.0875006  49.1755017  80.4409987  95.5335006  50.7875017
  81.3979987  95.5335006  50.7875017  80.2009987  96.4605006  50.7875017
  88.8429987  94.8465006  50.9565017  89.7999987  94.8465006  50.9565017
  88.6029987  95.7735006  50.9565017 106.4479987 104.7735006  39.5945017
 107.4049987 104.7735006  39.5945017 106.2079987 105.7005006  39.5945017
 105.3059987 104.0435006  43.0835017 106.2629987 104.0435006  43.0835017
 105.0659987 104.9705006  43.0835017  97.6589987 103.6865006  44.6235017
  98.6159987 103.6865006  44.6235017  97.4189987 104.6135006  44.6235017
  98.7329987 107.6165006  43.5445017  99.6899987 107.6165006  43.5445017
  98.4929987 108.5435006  43.5445017  95.3089987 101.7175006  38.5045017
  96.2659987 101.7175006  38.5045017  95.0689987 102.6445006  38.5045017
  95.9729987 103.9335006  40.7505017  96.9299987 103.9335006  40.7505017
  95.7329987 104.8605006  40.7505017 103.7759987 106.4835006  43.4815017
 104.7329987 106.4835006  43.4815017 103.5359987 107.4105006  43.4815017
 106.2219987 100.6495006  43.8075017 107.1789987 100.6495006  43.8075017
 105.9819987 101.5765006  43.8075017 100.0169987  98.9735006  41.0815017
 100.9739987  98.9735006  41.0815017  99.7769987  99.9005006  41.0815017
 107.7189987  99.5555006  39.0515017 108.6759987  99.5555006  39.0515017
 107.4789987 100.4825006  39.0515017  96.6389987 101.3825006  41.8285017
  97.5959987 101.3825006  41.8285017  96.3989987 102.3095006  41.8285017
 101.8299987 102.9555006  41.0605017 102.7869987 102.9555006  41.0605017
 101.5899987 103.8825006  41.0605017  98.9029987  97.8755006  45.1265017
  99.8599987  97.8755006  45.1265017  98.6629987  98.8025006  45.1265017
 106.2689987 107.3765006  38.6845017 107.2259987 107.3765006  38.6845017
 106.0289987 108.3035006  38.6845017 101.6119987 105.9805006  44.9265017
 102.5689987 105.9805006  44.9265017 101.3719987 106.9075006  44.9265017
  98.4559987  99.7285006  43.1255017  99.4129987  99.7285006  43.1255017
  98.2159987 100.6555006  43.1255017  99.8529987 107.5615006  46.1335017
 100.8099987 107.5615006  46.1335017  99.6129987 108.4885006  46.1335017
  95.9229987 107.0595006  37.0495017  96.8799987 107.0595006  37.0495017
  95.6829987 107.9865006  37.0495017 102.8779987  95.2045006  42.5925017
 103.8349987  95.2045006  42.5925017 102.6379987  96.1315006  42.5925017
 105.1289987 103.9945006  37.0865017 106.0859987 103.9945006  37.0865017
 104.8889987 104.9215006  37.0865017 105.1969987 102.5325006  34.1085017
 106.1539987 102.5325006  34.1085017 104.9569987 103.4595006  34.1085017
 100.1999987 104.8645006  39.9295017 101.1569987 104.8645006  39.9295017
  99.9599987 105.7915006  39.9295017 100.5429987 103.6455006  43.3505017
 101.4999987 103.6455006  43.3505017 100.3029987 104.5725006  43.3505017
 100.8829987   0.0265006  48.3915017 101.8399987   0.0265006  48.3915017
 100.6429987   0.9535006  48.3915017 107.4619987 103.3965006  35.7095017
 108.4189987 103.3965006  35.7095017 107.2219987 104.3235006  35.7095017
  98.1099987 104.1235006  47.8105017  99.0669987 104.1235006  47.8105017
  97.8699987 105.0505006  47.8105017  99.1979987 103.9155006  37.5325017
 100.1549987 103.9155006  37.5325017  98.9579987 104.8425006  37.5325017
  95.2009987 106.3155006  46.4205017  96.1579987 106.3155006  46.4205017
  94.9609987 107.2425006  46.4205017  97.5309987 107.6015006  47.3695017
  98.4879987 107.6015006  47.3695017  97.2909987 108.5285006  47.3695017
 100.2179987  96.1035006  43.3405017 101.1749987  96.1035006  43.3405017
  99.9779987  97.0305006  43.3405017 104.8999987  95.7755006  46.7225017
 105.8569987  95.7755006  46.7225017 104.6599987  96.7025006  46.7225017
 104.5249987  98.3455006  34.0295017 105.4819987  98.3455006  34.0295017
 104.2849987  99.2725006  34.0295017 100.2969987 101.0535006  44.5195017
 101.2539987 101.0535006  44.5195017 100.0569987 101.9805006  44.5195017
 100.2869987 101.2285006  39.4375017 101.2439987 101.2285006  39.4375017
 100.0469987 102.1555006  39.4375017 105.7789987 101.7045006  38.2235017
 106.7359987 101.7045006  38.2235017 105.5389987 102.6315006  38.2235017
 104.8969987 101.9385006  49.7005017 105.8539987 101.9385006  49.7005017
 104.6569987 102.8655006  49.7005017 106.7859987 101.1615006  41.0495017
 107.7429987 101.1615006  41.0495017 106.5459987 102.0885006  41.0495017
  97.9569987 101.3445006  46.2815017  98.9139987 101.3445006  46.2815017
  97.7169987 102.2715006  46.2815017 101.3479987  98.7385006  33.1245017
 102.3049987  98.7385006  33.1245017 101.1079987  99.6655006  33.1245017
  94.6179987  98.4875006  40.2155017  95.5749987  98.4875006  40.2155017
  94.3779987  99.4145006  40.2155017  95.8879987  99.1005006  35.6045017
  96.8449987  99.1005006  35.6045017  95.6479987 100.0275006  35.6045017
 106.0539987 102.7705006  45.6595017 107.0109987 102.7705006  45.6595017
 105.8139987 103.6975006  45.6595017 102.8459987  98.7315006  40.4525017
 103.8029987  98.7315006  40.4525017 102.6059987  99.6585006  40.4525017
  97.6619987 100.3205006  39.2815017  98.6189987 100.3205006  39.2815017
  97.4219987 101.2475006  39.2815017 101.3119987 100.3385006  36.9445017
 102.2689987 100.3385006  36.9445017 101.0719987 101.2655006  36.9445017
 107.2429987  97.9245006  43.7575017 108.1999987  97.9245006  43.7575017
 107.0029987  98.8515006  43.7575017  99.9769987 101.5375006  34.5355017
 100.9339987 101.5375006  34.5355017  99.7369987 102.4645006  34.5355017
  98.1439987 106.2175006  49.5955017  99.1009987 106.2175006  49.5955017
  97.9039987 107.1445006  49.5955017 104.1019987 101.4935006  42.3005017
 105.0589987 101.4935006  42.3005017 103.8619987 102.4205006  42.3005017
  99.1459987  97.6525006  38.7875017 100.1029987  97.6525006  38.7875017
  98.9059987  98.5795006  38.7875017 102.7569987  99.8475006  44.7655017
 103.7139987  99.8475006  44.7655017 102.5169987 100.7745006  44.7655017
 103.3879987 106.0825006  36.4535017 104.3449987 106.0825006  36.4535017
 103.1479987 107.0095006  36.4535017 107.1559987  98.9025006  34.6435017
 108.1129987  98.9025006  34.6435017 106.9159987  99.8295006  34.6435017
 104.8759987 106.2805006  47.6985017 105.8329987 106.2805006  47.6985017
 104.6359987 107.2075006  47.6985017   0.1199987 100.8935006  36.3445017
   1.0769987 100.8935006  36.3445017  -0.1200013 101.8205006  36.3445017
  98.4099987 105.4155006  42.1655017  99.3669987 105.4155006  42.1655017
  98.1699987 106.3425006  42.1655017 105.4749987 107.5175006  35.5265017
 106.4319987 107.5175006  35.5265017 105.2349987 108.4445006  35.5265017
  95.4109987 103.8685006  47.5515017  96.3679987 103.8685006  47.5515017
  95.1709987 104.7955006  47.5515017 102.4729987 103.4035006  49.7315017
 103.4299987 103.4035006  49.7315017 102.2329987 104.3305006  49.7315017
  96.5879987 103.7015006  34.2815017  97.5449987 103.7015006  34.2815017
  96.3479987 104.6285006  34.2815017 102.2849987 106.5105006  39.1505017
 103.2419987 106.5105006  39.1505017 102.0449987 107.4375006  39.1505017
 106.2619987 106.8015006  45.2145017 107.2189987 106.8015006  45.2145017
 106.0219987 107.7285006  45.2145017  97.1109987  98.5935006  47.0735017
  98.0679987  98.5935006  47.0735017  96.8709987  99.5205006  47.0735017
  97.9909987 105.6765006  35.6995017  98.9479987 105.6765006  35.6995017
  97.7509987 106.6035006  35.6995017 105.8509987  98.3495006  46.0245017
 106.8079987  98.3495006  46.0245017 105.6109987  99.2765006  46.0245017
 106.3259987  98.1705006  37.0855017 107.2829987  98.1705006  37.0855017
 106.0859987  99.0975006  37.0855017 103.7919987  99.7235006  37.9285017
 104.7489987  99.7235006  37.9285017 103.5519987 100.6505006  37.9285017
 104.3299987 100.6785006  47.1275017 105.2869987 100.6785006  47.1275017
 104.0899987 101.6055006  47.1275017 104.6989987  96.7585006  38.8415017
 105.6559987  96.7585006  38.8415017 104.4589987  97.6855006  38.8415017
 100.3279987  97.8505006  35.5335017 101.2849987  97.8505006  35.5335017
 100.0879987  98.7775006  35.5335017  97.0159987 100.9515006  33.5375017
  97.9729987 100.9515006  33.5375017  96.7759987 101.8785006  33.5375017
  97.7239987  95.7525006  42.4425017  98.6809987  95.7525006  42.4425017
  97.4839987  96.6795006  42.4425017  95.8469987 106.0765006  50.8175017
  96.8039987 106.0765006  50.8175017  95.6069987 107.0035006  50.8175017
 100.1259987 106.4215006  32.9185017 101.0829987 106.4215006  32.9185017
  99.8859987 107.3485006  32.9185017 102.4949987 106.0345006  50.2935017
 103.4519987 106.0345006  50.2935017 102.2549987 106.9615006  50.2935017
 105.4549987 107.4755006  32.6965017 106.4119987 107.4755006  32.6965017
 105.2149987 108.4025006  32.6965017  96.6719987 103.3395006  50.2775017
  97.6289987 103.3395006  50.2775017  96.4319987 104.2665006  50.2775017
 101.3339987 104.4625006  35.2815017 102.2909987 104.4625006  35.2815017
 101.0939987 105.3895006  35.2815017 100.6829987 102.0445006  47.9125017
 101.6399987 102.0445006  47.9125017 100.4429987 102.9715006  47.9125017
 102.4139987 102.6345006  33.5455017 103.3709987 102.6345006  33.5455017
 102.1739987 103.5615006  33.5455017 105.6709987 104.8145006  50.9465017
 106.6279987 104.8145006  50.9465017 105.4309987 105.7415006  50.9465017
 101.0179987  99.6045006  48.7135017 101.9749987  99.6045006  48.7135017
 100.7779987 100.5315006  48.7135017 101.4099987  98.0215006  46.2265017
 102.3669987  98.0215006  46.2265017 101.1699987  98.9485006  46.2265017
 103.1799987 103.5625006  46.5545017 104.1369987 103.5625006  46.5545017
 102.9399987 104.4895006  46.5545017 107.3899987 101.2965006  51.5555017
 108.3469987 101.2965006  51.5555017 107.1499987 102.2235006  51.5555017
  99.4729987 100.8645006  50.6415017 100.4299987 100.8645006  50.6415017
  99.2329987 101.7915006  50.6415017 102.2159987  95.4775006  46.6355017
 103.1729987  95.4775006  46.6355017 101.9759987  96.4045006  46.6355017
 103.4769987  99.8025006  50.2345017 104.4339987  99.8025006  50.2345017
 103.2369987 100.7295006  50.2345017 106.1379987  98.9055006  49.2925017
 107.0949987  98.9055006  49.2925017 105.8979987  99.8325006  49.2925017
 107.7729987  97.6025006  51.2295017 108.7299987  97.6025006  51.2295017
 107.5329987  98.5295006  51.2295017  97.5619987  98.8165006  50.3415017
  98.5189987  98.8165006  50.3415017  97.3219987  99.7435006  50.3415017
 102.4129987  94.8365006  49.3275017 103.3699987  94.8365006  49.3275017
 102.1729987  95.7635006  49.3275017 102.7799987  96.4665006  51.4125017
 103.7369987  96.4665006  51.4125017 102.5399987  97.3935006  51.4125017
  95.8989987 107.7955006  33.9155017  96.8559987 107.7955006  33.9155017
  95.6589987 108.7225006  33.9155017  95.4499987 104.5435006  43.3875017
  96.4069987 104.5435006  43.3875017  95.2099987 105.4705006  43.3875017
  95.0789987  99.8475006  49.5465017  96.0359987  99.8475006  49.5465017
  94.8389987 100.7745006  49.5465017  96.2799987  98.1395006  42.4075017
  97.2369987  98.1395006  42.4075017  96.0399987  99.0665006  42.4075017
  94.5679987 101.1325006  43.4585017  95.5249987 101.1325006  43.4585017
  94.3279987 102.0595006  43.4585017  94.9249987  97.4225006  37.5445017
  95.8819987  97.4225006  37.5445017  94.6849987  98.3495006  37.5445017
  94.8859987  96.0755006  45.8345017  95.8429987  96.0755006  45.8345017
  94.6459987  97.0025006  45.8345017 105.0109987  96.9885006  41.8525017
 105.9679987  96.9885006  41.8525017 104.7709987  97.9155006  41.8525017
  97.3949987  95.6335006  39.7055017  98.3519987  95.6335006  39.7055017
  97.1549987  96.5605006  39.7055017  96.1819987  95.3775006  35.4595017
  97.1389987  95.3775006  35.4595017  95.9419987  96.3045006  35.4595017
 101.8999987  95.5385006  39.5005017 102.8569987  95.5385006  39.5005017
 101.6599987  96.4655006  39.5005017 107.4669987  95.4945006  41.3025017
 108.4239987  95.4945006  41.3025017 107.2269987  96.4215006  41.3025017
  98.0059987  97.3565006  33.9525017  98.9629987  97.3565006  33.9525017
  97.7659987  98.2835006  33.9525017 103.0449987  97.5775006  36.3595017
 104.0019987  97.5775006  36.3595017 102.8049987  98.5045006  36.3595017
  97.2919987  96.1585006  49.1765017  98.2489987  96.1585006  49.1765017
  97.0519987  97.0855006  49.1765017  99.2969987  95.5355006  50.7885017
 100.2539987  95.5355006  50.7885017  99.0569987  96.4625006  50.7885017
  -0.0910013  94.8965006  50.9755017   0.8659987  94.8965006  50.9755017
  -0.3310013  95.8235006  50.9755017  12.1639987  10.4115006  58.4165017
  13.1209987  10.4115006  58.4165017  11.9239987  11.3385006  58.4165017
   1.0829987   7.5315006  57.4095017   2.0399987   7.5315006  57.4095017
   0.8429987   8.4585006  57.4095017   1.8889987   9.7555006  59.4815017
   2.8459987   9.7555006  59.4815017   1.6489987  10.6825006  59.4815017
   1.7589987  12.8995006  55.8045017   2.7159987  12.8995006  55.8045017
   1.5189987  13.8265006  55.8045017  13.5699987  16.3095006  59.2095017
  14.5269987  16.3095006  59.2095017  13.3299987  17.2365006  59.2095017
  10.8349987   9.6985006  55.9575017  11.7919987   9.6985006  55.9575017
  10.5949987  10.6255006  55.9575017  10.9159987   8.2335006  52.9845017
  11.8729987   8.2335006  52.9845017  10.6759987   9.1605006  52.9845017
  14.3019987   9.9585006  56.8765017  15.2589987   9.9585006  56.8765017
  14.0619987  10.8855006  56.8765017  13.1679987   9.1125006  54.5475017
  14.1249987   9.1125006  54.5475017  12.9279987  10.0395006  54.5475017
  10.8839987  15.8655006  58.0345017  11.8409987  15.8655006  58.0345017
  10.6439987  16.7925006  58.0345017  16.9219987   0.8815006  54.3885017
  17.8789987   0.8815006  54.3885017  16.6819987   1.8085006  54.3885017
   4.9369987   9.6325006  56.3625017   5.8939987   9.6325006  56.3625017
   4.6969987  10.5595006  56.3625017  18.0209987  15.1945006  52.8555017
  18.9779987  15.1945006  52.8555017  17.7809987  16.1215006  52.8555017
  10.3819987  18.8085006  56.4635017  11.3389987  18.8085006  56.4635017
  10.1419987  19.7355006  56.4635017  13.4519987  17.9715006  53.4245017
  14.4089987  17.9715006  53.4245017  13.2119987  18.8985006  53.4245017
  13.1459987  17.9105006  56.2165017  14.1029987  17.9105006  56.2165017
  12.9059987  18.8375006  56.2165017  14.6449987  10.1395006  52.2995017
  15.6019987  10.1395006  52.2995017  14.4049987  11.0665006  52.2995017
  10.2349987   4.0635006  52.8675017  11.1919987   4.0635006  52.8675017
   9.9949987   4.9905006  52.8675017  11.5119987   7.4125006  57.1025017
  12.4689987   7.4125006  57.1025017  11.2719987   8.3395006  57.1025017
  12.4619987   6.9265006  59.8565017  13.4189987   6.9265006  59.8565017
  12.2219987   7.8535006  59.8565017   7.0779987   4.5195006  52.0025017
   8.0349987   4.5195006  52.0025017   6.8379987   5.4465006  52.0025017
   0.5579987   3.5235006  59.4685017   1.5149987   3.5235006  59.4685017
   0.3179987   4.4505006  59.4685017   1.7929987   4.8915006  54.5485017
   2.7499987   4.8915006  54.5485017   1.5529987   5.8185006  54.5485017
   3.4129987   6.0365006  58.1635017   4.3699987   6.0365006  58.1635017
   3.1729987   6.9635006  58.1635017   7.0399987   5.9225006  55.7765017
   7.9969987   5.9225006  55.7765017   6.7999987   6.8495006  55.7765017
   5.7369987   7.2635006  53.4225017   6.6939987   7.2635006  53.4225017
   5.4969987   8.1905006  53.4225017   4.8229987   3.4045006  57.5755017
   5.7799987   3.4045006  57.5755017   4.5829987   4.3315006  57.5755017
   9.0869987  11.7475006  55.3275017  10.0439987  11.7475006  55.3275017
   8.8469987  12.6745006  55.3275017  12.9279987   4.5985006  53.4895017
  13.8849987   4.5985006  53.4895017  12.6879987   5.5255006  53.4895017
  13.6359987   6.4935006  55.1375017  14.5929987   6.4935006  55.1375017
  13.3959987   7.4205006  55.1375017  11.1899987  13.2635006  54.3195017
  12.1469987  13.2635006  54.3195017  10.9499987  14.1905006  54.3195017
  18.5569987   6.6695006  54.8805017  19.5139987   6.6695006  54.8805017
  18.3169987   7.5965006  54.8805017  16.8249987  15.4845006  55.3665017
  17.7819987  15.4845006  55.3665017  16.5849987  16.4115006  55.3665017
   2.2879987   9.4605006  53.1125017   3.2449987   9.4605006  53.1125017
   2.0479987  10.3875006  53.1125017   7.9559987  12.2405006  57.9885017
   8.9129987  12.2405006  57.9885017   7.7159987  13.1675006  57.9885017
   6.6479987  17.3275006  57.5825017   7.6049987  17.3275006  57.5825017
   6.4079987  18.2545006  57.5825017  14.2589987  13.5255006  53.1315017
  15.2159987  13.5255006  53.1315017  14.0189987  14.4525006  53.1315017
  18.7579987  17.9075006  53.4175017  19.7149987  17.9075006  53.4175017
  18.5179987  18.8345006  53.4175017  15.0749987  12.1665006  55.3695017
  16.0319987  12.1665006  55.3695017  14.8349987  13.0935006  55.3695017
   8.3909987  14.6175006  51.6165017   9.3479987  14.6175006  51.6165017
   8.1509987  15.5445006  51.6165017   7.2399987  14.1525006  54.0535017
   8.1969987  14.1525006  54.0535017   6.9999987  15.0795006  54.0535017
   3.7319987  11.3705006  54.6065017   4.6889987  11.3705006  54.6065017
   3.4919987  12.2975006  54.6065017  12.3199987   3.6925006  55.9535017
  13.2769987   3.6925006  55.9535017  12.0799987   4.6195006  55.9535017
  10.0039987  15.8205006  54.7995017  10.9609987  15.8205006  54.7995017
   9.7639987  16.7475006  54.7995017   9.5099987   5.4715006  56.7835017
  10.4669987   5.4715006  56.7835017   9.2699987   6.3985006  56.7835017
  10.4079987   2.5225006  57.6715017  11.3649987   2.5225006  57.6715017
  10.1679987   3.4495006  57.6715017   7.3829987  16.8475006  54.7775017
   8.3399987  16.8475006  54.7775017   7.1429987  17.7745006  54.7775017
   6.0519987   3.5935006  54.3865017   7.0089987   3.5935006  54.3865017
   5.8119987   4.5205006  54.3865017   4.2929987  14.0095006  53.4415017
   5.2499987  14.0095006  53.4415017   4.0529987  14.9365006  53.4415017
   2.5879987   6.7035006  52.6345017   3.5449987   6.7035006  52.6345017
   2.3479987   7.6305006  52.6345017  10.3969987  16.4715006  51.7535017
  11.3539987  16.4715006  51.7535017  10.1569987  17.3985006  51.7535017
  14.9549987  16.2345006  51.9555017  15.9119987  16.2345006  51.9555017
  14.7149987  17.1615006  51.9555017   5.8649987  12.1575006  51.7945017
   6.8219987  12.1575006  51.7945017   5.6249987  13.0845006  51.7945017
  11.2779987  13.2595006  51.5365017  12.2349987  13.2595006  51.5365017
  11.0379987  14.1865006  51.5365017   7.0949987  10.1785006  54.1635017
   8.0519987  10.1785006  54.1635017   6.8549987  11.1055006  54.1635017
   8.1299987   8.3965006  52.4025017   9.0869987   8.3965006  52.4025017
   7.8899987   9.3235006  52.4025017  17.4889987  10.7195006  51.8355017
  18.4459987  10.7195006  51.8355017  17.2489987  11.6465006  51.8355017
   7.9819987  19.1015006  53.4645017   8.9389987  19.1015006  53.4645017
   7.7419987  20.0285006  53.4645017   1.5919987  13.7105006  52.9025017
   2.5489987  13.7105006  52.9025017   1.3519987  14.6375006  52.9025017
  17.9829987  11.6265006  55.8205017  18.9399987  11.6265006  55.8205017
  17.7429987  12.5535006  55.8205017  18.6609987   9.5405006  54.0355017
  19.6179987   9.5405006  54.0355017  18.4209987  10.4675006  54.0355017
  17.0269987   6.7905006  52.5655017  17.9839987   6.7905006  52.5655017
  16.7869987   7.7175006  52.5655017  16.1799987   8.1715006  58.2185017
  17.1369987   8.1715006  58.2185017  15.9399987   9.0985006  58.2185017
  16.2559987   4.2605006  51.7155017  17.2129987   4.2605006  51.7155017
  16.0159987   5.1875006  51.7155017  15.8539987   5.7975006  56.6435017
  16.8109987   5.7975006  56.6435017  15.6139987   6.7245006  56.6435017
  16.4939987   3.0665006  56.7215017  17.4509987   3.0665006  56.7215017
  16.2539987   3.9935006  56.7215017  18.3449987   3.1175006  53.2645017
  19.3019987   3.1175006  53.2645017  18.1049987   4.0445006  53.2645017
   0.8689987   3.0155006  56.4365017   1.8259987   3.0155006  56.4365017
   0.6289987   3.9425006  56.4365017  17.6089987   2.0005006  59.1045017
  18.5659987   2.0005006  59.1045017  17.3689987   2.9275006  59.1045017
   3.1799987   1.3435006  58.2595017   4.1369987   1.3435006  58.2595017
   2.9399987   2.2705006  58.2595017   2.1909987   1.4835006  54.6795017
   3.1479987   1.4835006  54.6795017   1.9509987   2.4105006  54.6795017
   7.4599987   1.5305006  58.3305017   8.4169987   1.5305006  58.3305017
   7.2199987   2.4575006  58.3305017  14.5839987   1.3455006  55.6845017
  15.5409987   1.3455006  55.6845017  14.3439987   2.2725006  55.6845017
   1.9489987  17.0695006  55.2045017   2.9059987  17.0695006  55.2045017
   1.7089987  17.9965006  55.2045017   3.7489987   3.0585006  52.7595017
   4.7059987   3.0585006  52.7595017   3.5089987   3.9855006  52.7595017
   8.7589987   3.3275006  55.2335017   9.7159987   3.3275006  55.2335017
   8.5189987   4.2545006  55.2335017  10.6749987  18.3475006  53.6595017
  11.6319987  18.3475006  53.6595017  10.4349987  19.2745006  53.6595017
   3.5909987  18.0065006  52.2445017   4.5479987  18.0065006  52.2445017
   3.3509987  18.9335006  52.2445017  33.6599987  12.7175006  60.2055017
  34.6169987  12.7175006  60.2055017  33.4199987  13.6445006  60.2055017
  32.3589987   4.8005006  58.2895017  33.3159987   4.8005006  58.2895017
  32.1189987   5.7275006  58.2895017  26.3819987   8.6455006  59.9575017
  27.3389987   8.6455006  59.9575017  26.1419987   9.5725006  59.9575017
  30.7929987  13.0845006  57.5425017  31.7499987  13.0845006  57.5425017
  30.5529987  14.0115006  57.5425017  20.5009987  12.8785006  55.8175017
  21.4579987  12.8785006  55.8175017  20.2609987  13.8055006  55.8175017
  33.6119987  14.2055006  57.7065017  34.5689987  14.2055006  57.7065017
  33.3719987  15.1325006  57.7065017  29.7139987   9.7165006  55.9555017
  30.6709987   9.7165006  55.9555017  29.4739987  10.6435006  55.9555017
  29.7899987   8.2555006  52.9655017  30.7469987   8.2555006  52.9655017
  29.5499987   9.1825006  52.9655017  33.1589987   9.9765006  56.8825017
  34.1159987   9.9765006  56.8825017  32.9189987  10.9035006  56.8825017
  24.9019987  10.6205006  58.7255017  25.8589987  10.6205006  58.7255017
  24.6619987  11.5475006  58.7255017  32.0219987   9.1265006  54.5535017
  32.9789987   9.1265006  54.5535017  31.7819987  10.0535006  54.5535017
  35.7699987   0.8885006  54.3765017  36.7269987   0.8885006  54.3765017
  35.5299987   1.8155006  54.3765017  23.7989987   9.6205006  56.3425017
  24.7559987   9.6205006  56.3425017  23.5589987  10.5475006  56.3425017
  36.8859987  15.2065006  52.7865017  37.8429987  15.2065006  52.7865017
  36.6459987  16.1335006  52.7865017  22.8849987  17.6185006  58.2085017
  23.8419987  17.6185006  58.2085017  22.6449987  18.5455006  58.2085017
  32.2959987  17.9755006  53.4315017  33.2529987  17.9755006  53.4315017
  32.0559987  18.9025006  53.4315017  31.9929987  17.9045006  56.2085017
  32.9499987  17.9045006  56.2085017  31.7529987  18.8315006  56.2085017
  33.4929987  10.1495006  52.3105017  34.4499987  10.1495006  52.3105017
  33.2529987  11.0765006  52.3105017  29.0889987   4.0655006  52.8775017
  30.0459987   4.0655006  52.8775017  28.8489987   4.9925006  52.8775017
  24.8539987   6.9395006  58.2805017  25.8109987   6.9395006  58.2805017
  24.6139987   7.8665006  58.2805017  30.3719987   7.4195006  57.0805017
  31.3289987   7.4195006  57.0805017  30.1319987   8.3465006  57.0805017
  25.9239987   4.4925006  51.9875017  26.8809987   4.4925006  51.9875017
  25.6839987   5.4195006  51.9875017  19.1729987   4.2555006  59.0875017
  20.1299987   4.2555006  59.0875017  18.9329987   5.1825006  59.0875017
  20.4689987   4.9165006  54.4845017  21.4259987   4.9165006  54.4845017
  20.2289987   5.8435006  54.4845017  27.4679987   4.4505006  59.3035017
  28.4249987   4.4505006  59.3035017  27.2279987   5.3775006  59.3035017
  22.2399987   5.9765006  58.2015017  23.1969987   5.9765006  58.2015017
  21.9999987   6.9035006  58.2015017  25.8889987   6.0605006  55.8225017
  26.8459987   6.0605006  55.8225017  25.6489987   6.9875006  55.8225017
  24.5729987   7.2415006  53.4045017  25.5299987   7.2415006  53.4045017
  24.3329987   8.1685006  53.4045017  27.9369987  11.7945006  55.3155017
  28.8939987  11.7945006  55.3155017  27.6969987  12.7215006  55.3155017
  31.7859987   4.6025006  53.4905017  32.7429987   4.6025006  53.4905017
  31.5459987   5.5295006  53.4905017  32.4919987   6.4995006  55.1285017
  33.4489987   6.4995006  55.1285017  32.2519987   7.4265006  55.1285017
  30.0379987  13.2635006  54.3415017  30.9949987  13.2635006  54.3415017
  29.7979987  14.1905006  54.3415017  37.4009987   6.6775006  54.8775017
  38.3579987   6.6775006  54.8775017  37.1609987   7.6045006  54.8775017
  35.7089987  15.5025006  55.3515017  36.6659987  15.5025006  55.3515017
  35.4689987  16.4295006  55.3515017  25.4499987  14.6205006  58.4765017
  26.4069987  14.6205006  58.4765017  25.2099987  15.5475006  58.4765017
  21.1689987   9.4855006  53.0335017  22.1259987   9.4855006  53.0335017
  20.9289987  10.4125006  53.0335017  26.8569987  12.2835006  58.0475017
  27.8139987  12.2835006  58.0475017  26.6169987  13.2105006  58.0475017
  25.5439987  17.3095006  57.5855017  26.5009987  17.3095006  57.5855017
  25.3039987  18.2365006  57.5855017  33.1249987  13.5205006  53.1195017
  34.0819987  13.5205006  53.1195017  32.8849987  14.4475006  53.1195017
  37.5989987  17.9045006  53.3845017  38.5559987  17.9045006  53.3845017
  37.3589987  18.8315006  53.3845017  33.9209987  12.1875006  55.3955017
  34.8779987  12.1875006  55.3955017  33.6809987  13.1145006  55.3955017
  27.2419987  14.6145006  51.6105017  28.1989987  14.6145006  51.6105017
  27.0019987  15.5415006  51.6105017  26.0769987  14.1475006  54.0625017
  27.0339987  14.1475006  54.0625017  25.8369987  15.0745006  54.0625017
  22.5599987  11.3835006  54.5765017  23.5169987  11.3835006  54.5765017
  22.3199987  12.3105006  54.5765017  31.1789987   3.6555006  55.9685017
  32.1359987   3.6555006  55.9685017  30.9389987   4.5825006  55.9685017
  28.8629987  15.8315006  54.8255017  29.8199987  15.8315006  54.8255017
  28.6229987  16.7585006  54.8255017  28.3899987   5.4315006  56.7945017
  29.3469987   5.4315006  56.7945017  28.1499987   6.3585006  56.7945017
  29.2969987   2.4825006  57.7205017  30.2539987   2.4825006  57.7205017
  29.0569987   3.4095006  57.7205017  26.2559987  16.8575006  54.8095017
  27.2129987  16.8575006  54.8095017  26.0159987  17.7845006  54.8095017
  24.8989987   3.5785006  54.3915017  25.8559987   3.5785006  54.3915017
  24.6589987   4.5055006  54.3915017  23.1589987  13.9915006  53.4615017
  24.1159987  13.9915006  53.4615017  22.9189987  14.9185006  53.4615017
  21.4839987   6.6855006  52.5795017  22.4409987   6.6855006  52.5795017
  21.2439987   7.6125006  52.5795017  21.2509987  15.3585006  57.4395017
  22.2079987  15.3585006  57.4395017  21.0109987  16.2855006  57.4395017
  29.2519987  16.4675006  51.7465017  30.2089987  16.4675006  51.7465017
  29.0119987  17.3945006  51.7465017  33.8229987  16.2305006  51.9525017
  34.7799987  16.2305006  51.9525017  33.5829987  17.1575006  51.9525017
  24.7199987  12.1635006  51.7845017  25.6769987  12.1635006  51.7845017
  24.4799987  13.0905006  51.7845017  30.1389987  13.2575006  51.5435017
  31.0959987  13.2575006  51.5435017  29.8989987  14.1845006  51.5435017
  25.9119987  10.1705006  54.1715017  26.8689987  10.1705006  54.1715017
  25.6719987  11.0975006  54.1715017  26.9889987   8.3945006  52.3905017
  27.9459987   8.3945006  52.3905017  26.7489987   9.3215006  52.3905017
  36.3469987  10.7225006  51.8345017  37.3039987  10.7225006  51.8345017
  36.1069987  11.6495006  51.8345017  26.8339987  19.0925006  53.4555017
  27.7909987  19.0925006  53.4555017  26.5939987  20.0195006  53.4555017
  20.4079987  13.6665006  52.9465017  21.3649987  13.6665006  52.9465017
  20.1679987  14.5935006  52.9465017  36.8539987  11.6165006  55.8095017
  37.8109987  11.6165006  55.8095017  36.6139987  12.5435006  55.8095017
  37.5179987   9.5405006  54.0435017  38.4749987   9.5405006  54.0435017
  37.2779987  10.4675006  54.0435017  35.8799987   6.7885006  52.5695017
  36.8369987   6.7885006  52.5695017  35.6399987   7.7155006  52.5695017
  35.0119987   8.2025006  58.2275017  35.9689987   8.2025006  58.2275017
  34.7719987   9.1295006  58.2275017  35.1119987   4.2605006  51.7155017
  36.0689987   4.2605006  51.7155017  34.8719987   5.1875006  51.7155017
  34.7059987   5.7915006  56.6305017  35.6629987   5.7915006  56.6305017
  34.4659987   6.7185006  56.6305017  35.3319987   3.0625006  56.7275017
  36.2889987   3.0625006  56.7275017  35.0919987   3.9895006  56.7275017
  37.2039987   3.1225006  53.2665017  38.1609987   3.1225006  53.2665017
  36.9639987   4.0495006  53.2665017  19.4829987   3.1215006  56.4255017
  20.4399987   3.1215006  56.4255017  19.2429987   4.0485006  56.4255017
  21.0229987   1.5255006  54.6945017  21.9799987   1.5255006  54.6945017
  20.7829987   2.4525006  54.6945017  33.4329987   1.3575006  55.7305017
  34.3899987   1.3575006  55.7305017  33.1929987   2.2845006  55.7305017
  20.6679987  17.0585006  55.3135017  21.6249987  17.0585006  55.3135017
  20.4279987  17.9855006  55.3135017  22.6019987   3.0485006  52.7585017
  23.5589987   3.0485006  52.7585017  22.3619987   3.9755006  52.7585017
  27.5679987   3.3155006  55.2475017  28.5249987   3.3155006  55.2475017
  27.3279987   4.2425006  55.2475017  29.5399987  18.3085006  53.6635017
  30.4969987  18.3085006  53.6635017  29.2999987  19.2355006  53.6635017
  22.4869987  18.0385006  52.2655017  23.4439987  18.0385006  52.2655017
  22.2469987  18.9655006  52.2655017  49.9379987  10.5105006  58.4365017
  50.8949987  10.5105006  58.4365017  49.6979987  11.4375006  58.4365017
  51.2399987   4.6845006  58.2455017  52.1969987   4.6845006  58.2455017
  50.9999987   5.6115006  58.2455017  45.2279987   8.6555006  59.9575017
  46.1849987   8.6555006  59.9575017  44.9879987   9.5825006  59.9575017
  49.7449987  13.1305006  57.4995017  50.7019987  13.1305006  57.4995017
  49.5049987  14.0575006  57.4995017  39.3809987  12.8735006  55.8695017
  40.3379987  12.8735006  55.8695017  39.1409987  13.8005006  55.8695017
  52.4229987  14.1965006  57.7845017  53.3799987  14.1965006  57.7845017
  52.1829987  15.1235006  57.7845017  48.5669987   9.7355006  55.9665017
  49.5239987   9.7355006  55.9665017  48.3269987  10.6625006  55.9665017
  48.6489987   8.2595006  52.9725017  49.6059987   8.2595006  52.9725017
  48.4089987   9.1865006  52.9725017  52.0289987   9.9705006  56.8895017
  52.9859987   9.9705006  56.8895017  51.7889987  10.8975006  56.8895017
  50.8799987   9.1385006  54.5565017  51.8369987   9.1385006  54.5565017
  50.6399987  10.0655006  54.5565017  48.6709987  15.8695006  57.9715017
  49.6279987  15.8695006  57.9715017  48.4309987  16.7965006  57.9715017
  54.6229987   0.8925006  54.3945017  55.5799987   0.8925006  54.3945017
  54.3829987   1.8195006  54.3945017  42.5809987   9.6585006  56.4385017
  43.5379987   9.6585006  56.4385017  42.3409987  10.5855006  56.4385017
  55.7299987  15.1905006  52.8895017  56.6869987  15.1905006  52.8895017
  55.4899987  16.1175006  52.8895017  48.0629987  18.7885006  56.4285017
  49.0199987  18.7885006  56.4285017  47.8229987  19.7155006  56.4285017
  41.7449987  17.6025006  58.2175017  42.7019987  17.6025006  58.2175017
  41.5049987  18.5295006  58.2175017  51.1449987  17.9675006  53.4105017
  52.1019987  17.9675006  53.4105017  50.9049987  18.8945006  53.4105017
  50.8459987  17.8335006  56.1365017  51.8029987  17.8335006  56.1365017
  50.6059987  18.7605006  56.1365017  52.3389987  10.1915006  52.2875017
  53.2959987  10.1915006  52.2875017  52.0989987  11.1185006  52.2875017
  47.9469987   4.0635006  52.8715017  48.9039987   4.0635006  52.8715017
  47.7069987   4.9905006  52.8715017  43.6879987   6.9965006  58.2595017
  44.6449987   6.9965006  58.2595017  43.4479987   7.9235006  58.2595017
  49.2099987   7.3865006  57.0535017  50.1669987   7.3865006  57.0535017
  48.9699987   8.3135006  57.0535017  44.7769987   4.4935006  51.9985017
  45.7339987   4.4935006  51.9985017  44.5369987   5.4205006  51.9985017
  39.3289987   4.9365006  54.4775017  40.2859987   4.9365006  54.4775017
  39.0889987   5.8635006  54.4775017  44.7489987   6.0645006  55.8195017
  45.7059987   6.0645006  55.8195017  44.5089987   6.9915006  55.8195017
  43.4319987   7.2445006  53.3915017  44.3889987   7.2445006  53.3915017
  43.1919987   8.1715006  53.3915017  42.5959987   3.3745006  57.6155017
  43.5529987   3.3745006  57.6155017  42.3559987   4.3015006  57.6155017
  46.7909987  11.7955006  55.2985017  47.7479987  11.7955006  55.2985017
  46.5509987  12.7225006  55.2985017  50.6439987   4.6035006  53.4835017
  51.6009987   4.6035006  53.4835017  50.4039987   5.5305006  53.4835017
  51.3649987   6.4875006  55.1205017  52.3219987   6.4875006  55.1205017
  51.1249987   7.4145006  55.1205017  48.9159987  13.2545006  54.3545017
  49.8729987  13.2545006  54.3545017  48.6759987  14.1815006  54.3545017
  56.2519987   6.6765006  54.8965017  57.2089987   6.6765006  54.8965017
  56.0119987   7.6035006  54.8965017  54.7449987  15.6315006  55.2595017
  55.7019987  15.6315006  55.2595017  54.5049987  16.5585006  55.2595017
  40.0249987   9.4765006  53.0635017  40.9819987   9.4765006  53.0635017
  39.7849987  10.4035006  53.0635017  45.6469987  12.2885006  57.9375017
  46.6039987  12.2885006  57.9375017  45.4069987  13.2155006  57.9375017
  44.3789987  17.3075006  57.5855017  45.3359987  17.3075006  57.5855017
  44.1389987  18.2345006  57.5855017  51.9689987  13.5535006  53.1795017
  52.9259987  13.5535006  53.1795017  51.7289987  14.4805006  53.1795017
  56.4409987  17.9275006  53.3525017  57.3979987  17.9275006  53.3525017
  56.2009987  18.8545006  53.3525017  52.8079987  11.9145006  55.2795017
  53.7649987  11.9145006  55.2795017  52.5679987  12.8415006  55.2795017
  46.0979987  14.6205006  51.6165017  47.0549987  14.6205006  51.6165017
  45.8579987  15.5475006  51.6165017  44.9259987  14.1515006  54.0705017
  45.8829987  14.1515006  54.0705017  44.6859987  15.0785006  54.0705017
  41.4369987  11.3845006  54.6015017  42.3939987  11.3845006  54.6015017
  41.1969987  12.3115006  54.6015017  50.0409987   3.6515006  55.9525017
  50.9979987   3.6515006  55.9525017  49.8009987   4.5785006  55.9525017
  47.7269987  15.8135006  54.7965017  48.6839987  15.8135006  54.7965017
  47.4869987  16.7405006  54.7965017  47.2869987   5.3675006  56.8175017
  48.2439987   5.3675006  56.8175017  47.0469987   6.2945006  56.8175017
  45.0959987  16.8405006  54.7845017  46.0529987  16.8405006  54.7845017
  44.8559987  17.7675006  54.7845017  43.7589987   3.5725006  54.3975017
  44.7159987   3.5725006  54.3975017  43.5189987   4.4995006  54.3975017
  41.9939987  14.0105006  53.4375017  42.9509987  14.0105006  53.4375017
  41.7539987  14.9375006  53.4375017  40.3419987   6.6895006  52.5795017
  41.2989987   6.6895006  52.5795017  40.1019987   7.6165006  52.5795017
  40.1089987  15.3985006  57.4605017  41.0659987  15.3985006  57.4605017
  39.8689987  16.3255006  57.4605017  48.1019987  16.4705006  51.7515017
  49.0589987  16.4705006  51.7515017  47.8619987  17.3975006  51.7515017
  52.6989987  16.2335006  51.9815017  53.6559987  16.2335006  51.9815017
  52.4589987  17.1605006  51.9815017  43.5829987  12.1655006  51.7885017
  44.5399987  12.1655006  51.7885017  43.3429987  13.0925006  51.7885017
  49.0239987  13.2595006  51.5535017  49.9809987  13.2595006  51.5535017
  48.7839987  14.1865006  51.5535017  44.7779987  10.1745006  54.1725017
  45.7349987  10.1745006  54.1725017  44.5379987  11.1015006  54.1725017
  45.8439987   8.3935006  52.3915017  46.8009987   8.3935006  52.3915017
  45.6039987   9.3205006  52.3915017  55.1789987  10.7215006  51.8425017
  56.1359987  10.7215006  51.8425017  54.9389987  11.6485006  51.8425017
  45.7029987  19.0925006  53.4475017  46.6599987  19.0925006  53.4475017
  45.4629987  20.0195006  53.4475017  39.2579987  13.6865006  52.9185017
  40.2149987  13.6865006  52.9185017  39.0179987  14.6135006  52.9185017
  38.0209987  19.0495006  57.8885017  38.9779987  19.0495006  57.8885017
  37.7809987  19.9765006  57.8885017  55.6689987  11.6715006  55.8105017
  56.6259987  11.6715006  55.8105017  55.4289987  12.5985006  55.8105017
  56.0839987   9.7015006  57.6475017  57.0409987   9.7015006  57.6475017
  55.8439987  10.6285006  57.6475017  56.3819987   9.5505006  54.0215017
  57.3389987   9.5505006  54.0215017  56.1419987  10.4775006  54.0215017
  54.7389987   6.7875006  52.5675017  55.6959987   6.7875006  52.5675017
  54.4989987   7.7145006  52.5675017  53.8959987   8.1905006  58.2385017
  54.8529987   8.1905006  58.2385017  53.6559987   9.1175006  58.2385017
  53.9679987   4.2595006  51.7145017  54.9249987   4.2595006  51.7145017
  53.7279987   5.1865006  51.7145017  53.5649987   5.7885006  56.6385017
  54.5219987   5.7885006  56.6385017  53.3249987   6.7155006  56.6385017
  54.2129987   3.0545006  56.7245017  55.1699987   3.0545006  56.7245017
  53.9729987   3.9815006  56.7245017  56.0619987   3.1275006  53.2735017
  57.0189987   3.1275006  53.2735017  55.8219987   4.0545006  53.2735017
  38.3309987   3.0705006  56.3805017  39.2879987   3.0705006  56.3805017
  38.0909987   3.9975006  56.3805017  53.1529987  17.9995006  58.3315017
  54.1099987  17.9995006  58.3315017  52.9129987  18.9265006  58.3315017
  40.7719987   1.4575006  58.4045017  41.7289987   1.4575006  58.4045017
  40.5319987   2.3845006  58.4045017  39.8779987   1.5035006  54.7125017
  40.8349987   1.5035006  54.7125017  39.6379987   2.4305006  54.7125017
  45.3389987   1.3305006  58.3835017  46.2959987   1.3305006  58.3835017
  45.0989987   2.2575006  58.3835017  50.6189987   1.4195006  59.9465017
  51.5759987   1.4195006  59.9465017  50.3789987   2.3465006  59.9465017
  52.2859987   1.3535006  55.7715017  53.2429987   1.3535006  55.7715017
  52.0459987   2.2805006  55.7715017  39.5139987  17.0515006  55.2995017
  40.4709987  17.0515006  55.2995017  39.2739987  17.9785006  55.2995017
  41.4609987   3.0495006  52.7415017  42.4179987   3.0495006  52.7415017
  41.2209987   3.9765006  52.7415017  46.4569987   3.3125006  55.2445017
  47.4139987   3.3125006  55.2445017  46.2169987   4.2395006  55.2445017
  48.3909987  18.3465006  53.6645017  49.3479987  18.3465006  53.6645017
  48.1509987  19.2735006  53.6645017  55.1339987  17.8865006  56.3765017
  56.0909987  17.8865006  56.3765017  54.8939987  18.8135006  56.3765017
  41.3179987  18.0455006  52.2525017  42.2749987  18.0455006  52.2525017
  41.0779987  18.9725006  52.2525017  68.7279987  10.4695006  58.4515017
  69.6849987  10.4695006  58.4515017  68.4879987  11.3965006  58.4515017
  57.5379987   7.4425006  57.4965017  58.4949987   7.4425006  57.4965017
  57.2979987   8.3695006  57.4965017  58.2179987   9.5695006  59.5345017
  59.1749987   9.5695006  59.5345017  57.9779987  10.4965006  59.5345017
  62.2449987   4.6785006  59.9535017  63.2019987   4.6785006  59.9535017
  62.0049987   5.6055006  59.9535017  70.0749987   4.7685006  58.2935017
  71.0319987   4.7685006  58.2935017  69.8349987   5.6955006  58.2935017
  68.4659987  13.0515006  57.5565017  69.4229987  13.0515006  57.5565017
  68.2259987  13.9785006  57.5565017  58.2209987  12.8735006  55.8405017
  59.1779987  12.8735006  55.8405017  57.9809987  13.8005006  55.8405017
  71.2929987  14.2165006  57.6875017  72.2499987  14.2165006  57.6875017
  71.0529987  15.1435006  57.6875017  67.4349987   9.7475006  55.9735017
  68.3919987   9.7475006  55.9735017  67.1949987  10.6745006  55.9735017
  67.5029987   8.2565006  52.9705017  68.4599987   8.2565006  52.9705017
  67.2629987   9.1835006  52.9705017  70.8969987   9.9395006  56.8905017
  71.8539987   9.9395006  56.8905017  70.6569987  10.8665006  56.8905017
  69.7399987   9.1205006  54.5565017  70.6969987   9.1205006  54.5565017
  69.4999987  10.0475006  54.5565017  67.4629987  15.8025006  57.9955017
  68.4199987  15.8025006  57.9955017  67.2229987  16.7295006  57.9955017
  73.4859987   0.9005006  54.4115017  74.4429987   0.9005006  54.4115017
  73.2459987   1.8275006  54.4115017  61.4919987   9.6135006  56.3645017
  62.4489987   9.6135006  56.3645017  61.2519987  10.5405006  56.3645017
  74.5959987  15.2055006  52.7815017  75.5529987  15.2055006  52.7815017
  74.3559987  16.1325006  52.7815017  66.9219987  18.7965006  56.4315017
  67.8789987  18.7965006  56.4315017  66.6819987  19.7235006  56.4315017
  69.9999987  17.9685006  53.4115017  70.9569987  17.9685006  53.4115017
  69.7599987  18.8955006  53.4115017  69.6959987  17.9015006  56.1475017
  70.6529987  17.9015006  56.1475017  69.4559987  18.8285006  56.1475017
  71.2049987  10.1525006  52.3055017  72.1619987  10.1525006  52.3055017
  70.9649987  11.0795006  52.3055017  66.7969987   4.0695006  52.8545017
  67.7539987   4.0695006  52.8545017  66.5569987   4.9965006  52.8545017
  62.5169987   6.9885006  58.2485017  63.4739987   6.9885006  58.2485017
  62.2769987   7.9155006  58.2485017  68.1309987   7.4365006  57.0915017
  69.0879987   7.4365006  57.0915017  67.8909987   8.3635006  57.0915017
  69.0939987   6.8475006  59.8745017  70.0509987   6.8475006  59.8745017
  68.8539987   7.7745006  59.8745017  63.6399987   4.5095006  52.0225017
  64.5969987   4.5095006  52.0225017  63.3999987   5.4365006  52.0225017
  58.1799987   4.9315006  54.4675017  59.1369987   4.9315006  54.4675017
  57.9399987   5.8585006  54.4675017  63.6009987   6.0495006  55.7955017
  64.5579987   6.0495006  55.7955017  63.3609987   6.9765006  55.7955017
  62.2899987   7.2415006  53.3915017  63.2469987   7.2415006  53.3915017
  62.0499987   8.1685006  53.3915017  61.4629987   3.3615006  57.6315017
  62.4199987   3.3615006  57.6315017  61.2229987   4.2885006  57.6315017
  65.6529987  11.7635006  55.3235017  66.6099987  11.7635006  55.3235017
  65.4129987  12.6905006  55.3235017  69.5019987   4.6085006  53.4735017
  70.4589987   4.6085006  53.4735017  69.2619987   5.5355006  53.4735017
  70.2269987   6.5005006  55.1325017  71.1839987   6.5005006  55.1325017
  69.9869987   7.4275006  55.1325017  67.7569987  13.2515006  54.3345017
  68.7139987  13.2515006  54.3345017  67.5169987  14.1785006  54.3345017
  75.0929987   6.6735006  54.9065017  76.0499987   6.6735006  54.9065017
  74.8529987   7.6005006  54.9065017  73.3729987  15.4845006  55.3045017
  74.3299987  15.4845006  55.3045017  73.1329987  16.4115006  55.3045017
  58.8719987   9.4875006  53.0385017  59.8289987   9.4875006  53.0385017
  58.6319987  10.4145006  53.0385017  63.2159987  17.3265006  57.6395017
  64.1729987  17.3265006  57.6395017  62.9759987  18.2535006  57.6395017
  70.8369987  13.5305006  53.1285017  71.7939987  13.5305006  53.1285017
  70.5969987  14.4575006  53.1285017  75.3139987  17.9095006  53.3615017
  76.2709987  17.9095006  53.3615017  75.0739987  18.8365006  53.3615017
  71.6379987  12.1825006  55.3605017  72.5949987  12.1825006  55.3605017
  71.3979987  13.1095006  55.3605017  64.9529987  14.6175006  51.6235017
  65.9099987  14.6175006  51.6235017  64.7129987  15.5445006  51.6235017
  63.8039987  14.1435006  54.0645017  64.7609987  14.1435006  54.0645017
  63.5639987  15.0705006  54.0645017  60.2799987  11.4005006  54.5335017
  61.2369987  11.4005006  54.5335017  60.0399987  12.3275006  54.5335017
  68.9259987   3.6225006  55.9295017  69.8829987   3.6225006  55.9295017
  68.6859987   4.5495006  55.9295017  66.5669987  15.8155006  54.8115017
  67.5239987  15.8155006  54.8115017  66.3269987  16.7425006  54.8115017
  63.9589987  16.8425006  54.8185017  64.9159987  16.8425006  54.8185017
  63.7189987  17.7695006  54.8185017  62.6109987   3.5725006  54.4025017
  63.5679987   3.5725006  54.4025017  62.3709987   4.4995006  54.4025017
  60.8599987  14.0055006  53.4425017  61.8169987  14.0055006  53.4425017
  60.6199987  14.9325006  53.4425017  59.1989987   6.6845006  52.5825017
  60.1559987   6.6845006  52.5825017  58.9589987   7.6115006  52.5825017
  59.0049987  15.4645006  57.4635017  59.9619987  15.4645006  57.4635017
  58.7649987  16.3915006  57.4635017  66.9689987  16.4515006  51.8155017
  67.9259987  16.4515006  51.8155017  66.7289987  17.3785006  51.8155017
  71.5359987  16.2235006  51.9525017  72.4929987  16.2235006  51.9525017
  71.2959987  17.1505006  51.9525017  62.4289987  12.1535006  51.7985017
  63.3859987  12.1535006  51.7985017  62.1889987  13.0805006  51.7985017
  67.8379987  13.2585006  51.5355017  68.7949987  13.2585006  51.5355017
  67.5979987  14.1855006  51.5355017  63.6579987  10.1695006  54.1675017
  64.6149987  10.1695006  54.1675017  63.4179987  11.0965006  54.1675017
  64.7029987   8.3835006  52.3955017  65.6599987   8.3835006  52.3955017
  64.4629987   9.3105006  52.3955017  74.0579987  10.7245006  51.8195017
  75.0149987  10.7245006  51.8195017  73.8179987  11.6515006  51.8195017
  64.5609987  19.0985006  53.4485017  65.5179987  19.0985006  53.4485017
  64.3209987  20.0255006  53.4485017  58.0939987  13.6785006  52.9535017
  59.0509987  13.6785006  52.9535017  57.8539987  14.6055006  52.9535017
  56.8999987  19.0725006  57.9435017  57.8569987  19.0725006  57.9435017
  56.6599987  19.9995006  57.9435017  74.5609987  11.6375006  55.7775017
  75.5179987  11.6375006  55.7775017  74.3209987  12.5645006  55.7775017
  74.9239987   9.6835006  57.6525017  75.8809987   9.6835006  57.6525017
  74.6839987  10.6105006  57.6525017  75.2299987   9.5395006  54.0325017
  76.1869987   9.5395006  54.0325017  74.9899987  10.4665006  54.0325017
  73.5979987   6.7855006  52.5615017  74.5549987   6.7855006  52.5615017
  73.3579987   7.7125006  52.5615017  72.8229987   4.2605006  51.7155017
  73.7799987   4.2605006  51.7155017  72.5829987   5.1875006  51.7155017
  72.4129987   5.7885006  56.6335017  73.3699987   5.7885006  56.6335017
  72.1729987   6.7155006  56.6335017  73.0889987   3.0525006  56.6885017
  74.0459987   3.0525006  56.6885017  72.8489987   3.9795006  56.6885017
  74.9229987   3.1155006  53.2765017  75.8799987   3.1155006  53.2765017
  74.6829987   4.0425006  53.2765017  57.1969987   3.0845006  56.4035017
  58.1539987   3.0845006  56.4035017  56.9569987   4.0115006  56.4035017
  71.9459987  18.1125006  58.2665017  72.9029987  18.1125006  58.2665017
  71.7059987  19.0395006  58.2665017  74.1349987   2.0465006  59.0865017
  75.0919987   2.0465006  59.0865017  73.8949987   2.9735006  59.0865017
  59.6939987   1.3415006  58.4725017  60.6509987   1.3415006  58.4725017
  59.4539987   2.2685006  58.4725017  58.7379987   1.5155006  54.7145017
  59.6949987   1.5155006  54.7145017  58.4979987   2.4425006  54.7145017
  69.7599987   1.3105006  59.9415017  70.7169987   1.3105006  59.9415017
  69.5199987   2.2375006  59.9415017  71.1449987   1.3525006  55.7275017
  72.1019987   1.3525006  55.7275017  70.9049987   2.2795006  55.7275017
  58.4039987  17.0925006  55.2585017  59.3609987  17.0925006  55.2585017
  58.1639987  18.0195006  55.2585017  60.3109987   3.0385006  52.7535017
  61.2679987   3.0385006  52.7535017  60.0709987   3.9655006  52.7535017
  65.3169987   3.3225006  55.2395017  66.2739987   3.3225006  55.2395017
  65.0769987   4.2495006  55.2395017  67.2469987  18.3425006  53.6695017
  68.2039987  18.3425006  53.6695017  67.0069987  19.2695006  53.6695017
  73.9919987  17.8735006  56.3635017  74.9489987  17.8735006  56.3635017
  73.7519987  18.8005006  56.3635017  60.2029987  18.0365006  52.2705017
  61.1599987  18.0365006  52.2705017  59.9629987  18.9635006  52.2705017
  76.3969987   7.4345006  57.5125017  77.3539987   7.4345006  57.5125017
  76.1569987   8.3615006  57.5125017  77.1669987   9.6975006  59.6495017
  78.1239987   9.6975006  59.6495017  76.9269987  10.6245006  59.6495017
  88.9339987   4.7475006  58.3025017  89.8909987   4.7475006  58.3025017
  88.6939987   5.6745006  58.3025017  83.0519987   8.6295006  59.8035017
  84.0089987   8.6295006  59.8035017  82.8119987   9.5565006  59.8035017
  87.3669987  13.0805006  57.5045017  88.3239987  13.0805006  57.5045017
  87.1269987  14.0075006  57.5045017  77.1049987  12.8725006  55.8465017
  78.0619987  12.8725006  55.8465017  76.8649987  13.7995006  55.8465017
  86.2859987   9.6835006  55.9445017  87.2429987   9.6835006  55.9445017
  86.0459987  10.6105006  55.9445017  86.3599987   8.2565006  52.9625017
  87.3169987   8.2565006  52.9625017  86.1199987   9.1835006  52.9625017
  89.7189987   9.9315006  56.8885017  90.6759987   9.9315006  56.8885017
  89.4789987  10.8585006  56.8885017  81.3089987  10.5785006  58.8195017
  82.2659987  10.5785006  58.8195017  81.0689987  11.5055006  58.8195017
  88.6059987   9.1095006  54.5475017  89.5629987   9.1095006  54.5475017
  88.3659987  10.0365006  54.5475017  86.2739987  15.8265006  58.0525017
  87.2309987  15.8265006  58.0525017  86.0339987  16.7535006  58.0525017
  92.3369987   0.8975006  54.3825017  93.2939987   0.8975006  54.3825017
  92.0969987   1.8245006  54.3825017  80.3079987   9.6315006  56.4345017
  81.2649987   9.6315006  56.4345017  80.0679987  10.5585006  56.4345017
  93.4499987  15.2055006  52.7895017  94.4069987  15.2055006  52.7895017
  93.2099987  16.1325006  52.7895017  79.4959987  17.5625006  58.2135017
  80.4529987  17.5625006  58.2135017  79.2559987  18.4895006  58.2135017
  88.8859987  17.9785006  53.4245017  89.8429987  17.9785006  53.4245017
  88.6459987  18.9055006  53.4245017  90.0609987  10.1445006  52.3035017
  91.0179987  10.1445006  52.3035017  89.8209987  11.0715006  52.3035017
  85.6579987   4.0655006  52.8725017  86.6149987   4.0655006  52.8725017
  85.4179987   4.9925006  52.8725017  86.9249987   7.3995006  57.0935017
  87.8819987   7.3995006  57.0935017  86.6849987   8.3265006  57.0935017
  82.4899987   4.4865006  51.9875017  83.4469987   4.4865006  51.9875017
  82.2499987   5.4135006  51.9875017  75.7519987   4.2025006  59.0795017
  76.7089987   4.2025006  59.0795017  75.5119987   5.1295006  59.0795017
  77.0019987   4.9065006  54.4505017  77.9589987   4.9065006  54.4505017
  76.7619987   5.8335006  54.4505017  82.4669987   6.0535006  55.7985017
  83.4239987   6.0535006  55.7985017  82.2269987   6.9805006  55.7985017
  81.1419987   7.2575006  53.3935017  82.0989987   7.2575006  53.3935017
  80.9019987   8.1845006  53.3935017  80.2779987   3.3435006  57.6235017
  81.2349987   3.3435006  57.6235017  80.0379987   4.2705006  57.6235017
  88.3559987   4.6055006  53.4925017  89.3129987   4.6055006  53.4925017
  88.1159987   5.5325006  53.4925017  89.0729987   6.5105006  55.1605017
  90.0299987   6.5105006  55.1605017  88.8329987   7.4375006  55.1605017
  86.6049987  13.2685006  54.3295017  87.5619987  13.2685006  54.3295017
  86.3649987  14.1955006  54.3295017  93.9679987   6.6805006  54.9015017
  94.9249987   6.6805006  54.9015017  93.7279987   7.6075006  54.9015017
  92.2399987  15.4875006  55.3195017  93.1969987  15.4875006  55.3195017
  91.9999987  16.4145006  55.3195017  81.9639987  14.6065006  58.4535017
  82.9209987  14.6065006  58.4535017  81.7239987  15.5335006  58.4535017
  77.7419987   9.4785006  53.0575017  78.6989987   9.4785006  53.0575017
  77.5019987  10.4055006  53.0575017  83.3789987  12.2735006  57.9825017
  84.3359987  12.2735006  57.9825017  83.1389987  13.2005006  57.9825017
  82.0939987  17.3265006  57.5635017  83.0509987  17.3265006  57.5635017
  81.8539987  18.2535006  57.5635017  89.6949987  13.5305006  53.1295017
  90.6519987  13.5305006  53.1295017  89.4549987  14.4575006  53.1295017
  94.1639987  17.9075006  53.3495017  95.1209987  17.9075006  53.3495017
  93.9239987  18.8345006  53.3495017  90.5099987  12.1445006  55.3185017
  91.4669987  12.1445006  55.3185017  90.2699987  13.0715006  55.3185017
  83.8099987  14.6145006  51.6105017  84.7669987  14.6145006  51.6105017
  83.5699987  15.5415006  51.6105017  82.6429987  14.1355006  54.0665017
  83.5999987  14.1355006  54.0665017  82.4029987  15.0625006  54.0665017
  79.1499987  11.3925006  54.5665017  80.1069987  11.3925006  54.5665017
  78.9099987  12.3195006  54.5665017  87.7629987   3.6615006  55.9615017
  88.7199987   3.6615006  55.9615017  87.5229987   4.5885006  55.9615017
  85.4249987  15.8195006  54.8005017  86.3819987  15.8195006  54.8005017
  85.1849987  16.7465006  54.8005017  84.9829987   5.3945006  56.7935017
  85.9399987   5.3945006  56.7935017  84.7429987   6.3215006  56.7935017
  85.8749987   2.4785006  57.7325017  86.8319987   2.4785006  57.7325017
  85.6349987   3.4055006  57.7325017  82.7739987  16.8435006  54.7895017
  83.7309987  16.8435006  54.7895017  82.5339987  17.7705006  54.7895017
  81.4709987   3.5875006  54.3855017  82.4279987   3.5875006  54.3855017
  81.2309987   4.5145006  54.3855017  79.7119987  14.0005006  53.4385017
  80.6689987  14.0005006  53.4385017  79.4719987  14.9275006  53.4385017
  78.0559987   6.6875006  52.5775017  79.0129987   6.6875006  52.5775017
  77.8159987   7.6145006  52.5775017  85.8209987  16.4675006  51.7485017
  86.7779987  16.4675006  51.7485017  85.5809987  17.3945006  51.7485017
  90.3949987  16.2375006  51.9425017  91.3519987  16.2375006  51.9425017
  90.1549987  17.1645006  51.9425017  81.2849987  12.1635006  51.7795017
  82.2419987  12.1635006  51.7795017  81.0449987  13.0905006  51.7795017
  86.7069987  13.2575006  51.5425017  87.6639987  13.2575006  51.5425017
  86.4669987  14.1845006  51.5425017  82.4869987  10.1735006  54.1555017
  83.4439987  10.1735006  54.1555017  82.2469987  11.1005006  54.1555017
  83.5579987   8.3975006  52.3875017  84.5149987   8.3975006  52.3875017
  83.3179987   9.3245006  52.3875017  92.9159987  10.7235006  51.8205017
  93.8729987  10.7235006  51.8205017  92.6759987  11.6505006  51.8205017
  83.4079987  19.1035006  53.4715017  84.3649987  19.1035006  53.4715017
  83.1679987  20.0305006  53.4715017  76.9669987  13.6885006  52.9245017
  77.9239987  13.6885006  52.9245017  76.7269987  14.6155006  52.9245017
  93.4049987  11.6515006  55.7995017  94.3619987  11.6515006  55.7995017
  93.1649987  12.5785006  55.7995017  93.7679987   9.7285006  57.6405017
  94.7249987   9.7285006  57.6405017  93.5279987  10.6555006  57.6405017
  94.0869987   9.5405006  54.0535017  95.0439987   9.5405006  54.0535017
  93.8469987  10.4675006  54.0535017  92.4499987   6.7875006  52.5675017
  93.4069987   6.7875006  52.5675017  92.2099987   7.7145006  52.5675017
  91.6289987   8.1785006  58.2145017  92.5859987   8.1785006  58.2145017
  91.3889987   9.1055006  58.2145017  91.6799987   4.2605006  51.7145017
  92.6369987   4.2605006  51.7145017  91.4399987   5.1875006  51.7145017
  91.2729987   5.7875006  56.6795017  92.2299987   5.7875006  56.6795017
  91.0329987   6.7145006  56.6795017  91.8939987   3.0655006  56.7205017
  92.8509987   3.0655006  56.7205017  91.6539987   3.9925006  56.7205017
  93.7709987   3.1255006  53.2635017  94.7279987   3.1255006  53.2635017
  93.5309987   4.0525006  53.2635017  76.0459987   3.0995006  56.4245017
  77.0029987   3.0995006  56.4245017  75.8059987   4.0265006  56.4245017
  90.8429987  18.0745006  58.2875017  91.7999987  18.0745006  58.2875017
  90.6029987  19.0015006  58.2875017  78.7169987   1.1405006  57.8415017
  79.6739987   1.1405006  57.8415017  78.4769987   2.0675006  57.8415017
  77.5839987   1.5095006  54.7055017  78.5409987   1.5095006  54.7055017
  77.3439987   2.4365006  54.7055017  83.0929987   1.2255006  58.3505017
  84.0499987   1.2255006  58.3505017  82.8529987   2.1525006  58.3505017
  89.9869987   1.3575006  55.7925017  90.9439987   1.3575006  55.7925017
  89.7469987   2.2845006  55.7925017  77.2489987  17.0595006  55.2915017
  78.2059987  17.0595006  55.2915017  77.0089987  17.9865006  55.2915017
  79.1799987   3.0575006  52.7385017  80.1369987   3.0575006  52.7385017
  78.9399987   3.9845006  52.7385017  84.1749987   3.3145006  55.2365017
  85.1319987   3.3145006  55.2365017  83.9349987   4.2415006  55.2365017
  86.0989987  18.3325006  53.6605017  87.0559987  18.3325006  53.6605017
  85.8589987  19.2595006  53.6605017  92.8409987  17.8715006  56.3615017
  93.7979987  17.8715006  56.3615017  92.6009987  18.7985006  56.3615017
  79.0359987  18.0275006  52.2565017  79.9929987  18.0275006  52.2565017
  78.7959987  18.9545006  52.2565017  95.2479987   7.4285006  57.4795017
  96.2049987   7.4285006  57.4795017  95.0079987   8.3555006  57.4795017
 107.7179987   5.2565006  57.8955017 108.6749987   5.2565006  57.8955017
 107.4779987   6.1835006  57.8955017 106.2939987  13.1395006  57.5405017
 107.2509987  13.1395006  57.5405017 106.0539987  14.0665006  57.5405017
  95.9489987  12.8785006  55.8485017  96.9059987  12.8785006  55.8485017
  95.7089987  13.8055006  55.8485017 107.6589987  16.3795006  59.0085017
 108.6159987  16.3795006  59.0085017 107.4189987  17.3065006  59.0085017
 105.1839987   8.2305006  52.9475017 106.1409987   8.2305006  52.9475017
 104.9439987   9.1575006  52.9475017 107.4819987   9.0695006  54.5615017
 108.4389987   9.0695006  54.5615017 107.2419987   9.9965006  54.5615017
 105.1539987  15.8435006  58.0165017 106.1109987  15.8435006  58.0165017
 104.9139987  16.7705006  58.0165017  99.2119987   9.6105006  56.3185017
 100.1689987   9.6105006  56.3185017  98.9719987  10.5375006  56.3185017
 104.6189987  18.7785006  56.4365017 105.5759987  18.7785006  56.4365017
 104.3789987  19.7055006  56.4365017 107.7099987  17.9495006  53.3945017
 108.6669987  17.9495006  53.3945017 107.4699987  18.8765006  53.3945017
 107.3389987  17.9285006  56.1625017 108.2959987  17.9285006  56.1625017
 107.0989987  18.8555006  56.1625017 104.5339987   4.0535006  52.8955017
 105.4909987   4.0535006  52.8955017 104.2939987   4.9805006  52.8955017
 100.2389987   6.9725006  58.2195017 101.1959987   6.9725006  58.2195017
  99.9989987   7.8995006  58.2195017 105.7539987   7.3825006  57.0005017
 106.7109987   7.3825006  57.0005017 105.5139987   8.3095006  57.0005017
 101.3479987   4.4945006  51.9935017 102.3049987   4.4945006  51.9935017
 101.1079987   5.4215006  51.9935017  94.6409987   4.2955006  59.0335017
  95.5979987   4.2955006  59.0335017  94.4009987   5.2225006  59.0335017
  95.8869987   4.9255006  54.4585017  96.8439987   4.9255006  54.4585017
  95.6469987   5.8525006  54.4585017 102.8919987   4.4075006  59.2965017
 103.8489987   4.4075006  59.2965017 102.6519987   5.3345006  59.2965017
  97.6639987   6.0335006  58.1765017  98.6209987   6.0335006  58.1765017
  97.4239987   6.9605006  58.1765017 101.3139987   6.0335006  55.7795017
 102.2709987   6.0335006  55.7795017 101.0739987   6.9605006  55.7795017
  99.9949987   7.2385006  53.3865017 100.9519987   7.2385006  53.3865017
  99.7549987   8.1655006  53.3865017  99.1179987   3.3605006  57.5855017
 100.0749987   3.3605006  57.5855017  98.8779987   4.2875006  57.5855017
 103.3549987  11.8185006  55.3125017 104.3119987  11.8185006  55.3125017
 103.1149987  12.7455006  55.3125017 107.1649987   4.6145006  53.5045017
 108.1219987   4.6145006  53.5045017 106.9249987   5.5415006  53.5045017
   0.1239987   6.6055006  55.1935017   1.0809987   6.6055006  55.1935017
  -0.1160013   7.5325006  55.1935017 105.4519987  13.2605006  54.3185017
 106.4089987  13.2605006  54.3185017 105.2119987  14.1875006  54.3185017
  96.5939987   9.4795006  53.0505017  97.5509987   9.4795006  53.0505017
  96.3539987  10.4065006  53.0505017 102.2409987  12.2775006  58.0065017
 103.1979987  12.2775006  58.0065017 102.0009987  13.2045006  58.0065017
 102.6649987  14.6185006  51.6085017 103.6219987  14.6185006  51.6085017
 102.4249987  15.5455006  51.6085017 101.5019987  14.1445006  54.0555017
 102.4589987  14.1445006  54.0555017 101.2619987  15.0715006  54.0555017
  97.9869987  11.3975006  54.5565017  98.9439987  11.3975006  54.5565017
  97.7469987  12.3245006  54.5565017 106.3229987   3.8815006  55.9435017
 107.2799987   3.8815006  55.9435017 106.0829987   4.8085006  55.9435017
 104.2919987  15.8205006  54.7805017 105.2489987  15.8205006  54.7805017
 104.0519987  16.7475006  54.7805017 103.8239987   5.4095006  56.7675017
 104.7809987   5.4095006  56.7675017 103.5839987   6.3365006  56.7675017
 104.6509987   2.5035006  57.6865017 105.6079987   2.5035006  57.6865017
 104.4109987   3.4305006  57.6865017 101.6519987  16.8455006  54.8035017
 102.6089987  16.8455006  54.8035017 101.4119987  17.7725006  54.8035017
 100.3179987   3.5775006  54.3965017 101.2749987   3.5775006  54.3965017
 100.0779987   4.5045006  54.3965017  98.5719987  14.0165006  53.4505017
  99.5289987  14.0165006  53.4505017  98.3319987  14.9435006  53.4505017
  96.9079987   6.6855006  52.5775017  97.8649987   6.6855006  52.5775017
  96.6679987   7.6125006  52.5775017  96.6469987  15.3595006  57.3865017
  97.6039987  15.3595006  57.3865017  96.4069987  16.2865006  57.3865017
 104.7059987  16.4585006  51.7455017 105.6629987  16.4585006  51.7455017
 104.4659987  17.3855006  51.7455017 100.1399987  12.1585006  51.7855017
 101.0969987  12.1585006  51.7855017  99.8999987  13.0855006  51.7855017
 105.5959987  13.2405006  51.5495017 106.5529987  13.2405006  51.5495017
 105.3559987  14.1675006  51.5495017 101.3239987  10.1745006  54.1425017
 102.2809987  10.1745006  54.1425017 101.0839987  11.1015006  54.1425017
 102.4119987   8.3875006  52.3915017 103.3689987   8.3875006  52.3915017
 102.1719987   9.3145006  52.3915017 102.2669987  19.0915006  53.4485017
 103.2239987  19.0915006  53.4485017 102.0269987  20.0185006  53.4485017
  95.8239987  13.6935006  52.9225017  96.7809987  13.6935006  52.9225017
  95.5839987  14.6205006  52.9225017  94.9209987   3.0795006  56.3695017
  95.8779987   3.0795006  56.3695017  94.6809987   4.0065006  56.3695017
  97.3879987   1.3545006  58.4905017  98.3449987   1.3545006  58.4905017
  97.1479987   2.2815006  58.4905017  96.4529987   1.5135006  54.7045017
  97.4099987   1.5135006  54.7045017  96.2129987   2.4405006  54.7045017
 106.6419987   1.3805006  59.3685017 107.5989987   1.3805006  59.3685017
 106.4019987   2.3075006  59.3685017  96.1019987  17.0685006  55.2795017
  97.0589987  17.0685006  55.2795017  95.8619987  17.9955006  55.2795017
  98.0219987   3.0395006  52.7675017  98.9789987   3.0395006  52.7675017
  97.7819987   3.9665006  52.7675017 102.9669987   3.3125006  55.2465017
 103.9239987   3.3125006  55.2465017 102.7269987   4.2395006  55.2465017
 104.9349987  18.3325006  53.6545017 105.8919987  18.3325006  53.6545017
 104.6949987  19.2595006  53.6545017  97.8889987  18.0305006  52.2495017
  98.8459987  18.0305006  52.2495017  97.6489987  18.9575006  52.2495017
   1.0069987  26.3155006  57.4905017   1.9639987  26.3155006  57.4905017
   0.7669987  27.2425006  57.4905017   1.7339987  28.3395006  59.3995017
   2.6909987  28.3395006  59.3995017   1.4939987  29.2665006  59.3995017
  15.3619987  22.9005006  60.2705017  16.3189987  22.9005006  60.2705017
  15.1219987  23.8275006  60.2705017   1.7139987  31.7315006  55.8075017
   2.6709987  31.7315006  55.8075017   1.4739987  32.6585006  55.8075017
  14.6949987  33.0425006  57.6805017  15.6519987  33.0425006  57.6805017
  14.4549987  33.9695006  57.6805017  10.8719987  28.5975006  55.9725017
  11.8289987  28.5975006  55.9725017  10.6319987  29.5245006  55.9725017
  10.9299987  27.1085006  52.9635017  11.8869987  27.1085006  52.9635017
  10.6899987  28.0355006  52.9635017  14.3289987  28.8115006  56.9095017
  15.2859987  28.8115006  56.9095017  14.0889987  29.7385006  56.9095017
  13.1709987  27.9735006  54.5645017  14.1279987  27.9735006  54.5645017
  12.9309987  28.9005006  54.5645017  10.8949987  34.6925006  58.0455017
  11.8519987  34.6925006  58.0455017  10.6549987  35.6195006  58.0455017
  16.8979987  19.7185006  54.4295017  17.8549987  19.7185006  54.4295017
  16.6579987  20.6455006  54.4295017   4.9359987  28.5015006  56.3605017
   5.8929987  28.5015006  56.3605017   4.6959987  29.4285006  56.3605017
  18.0309987  34.0595006  52.7995017  18.9879987  34.0595006  52.7995017
  17.7909987  34.9865006  52.7995017  10.3729987  37.6505006  56.4395017
  11.3299987  37.6505006  56.4395017  10.1329987  38.5775006  56.4395017
   3.9879987  36.5075006  58.2575017   4.9449987  36.5075006  58.2575017
   3.7479987  37.4345006  58.2575017  13.4659987  36.8475006  53.4465017
  14.4229987  36.8475006  53.4465017  13.2259987  37.7745006  53.4465017
  14.6379987  29.0055006  52.3025017  15.5949987  29.0055006  52.3025017
  14.3979987  29.9325006  52.3025017  10.2339987  22.9245006  52.8595017
  11.1909987  22.9245006  52.8595017   9.9939987  23.8515006  52.8595017
   5.9749987  25.8655006  58.2435017   6.9319987  25.8655006  58.2435017
   5.7349987  26.7925006  58.2435017  11.5219987  26.2965006  57.0905017
  12.4789987  26.2965006  57.0905017  11.2819987  27.2235006  57.0905017
   7.0789987  23.3115006  51.9735017   8.0359987  23.3115006  51.9735017
   6.8389987  24.2385006  51.9735017   1.7919987  23.7365006  54.5565017
   2.7489987  23.7365006  54.5565017   1.5519987  24.6635006  54.5565017
   3.4299987  24.8935006  58.1615017   4.3869987  24.8935006  58.1615017
   3.1899987  25.8205006  58.1615017   7.0159987  24.9275006  55.7925017
   7.9729987  24.9275006  55.7925017   6.7759987  25.8545006  55.7925017
   5.7079987  26.1055006  53.3845017   6.6649987  26.1055006  53.3845017
   5.4679987  27.0325006  53.3845017   4.8619987  22.1955006  57.6465017
   5.8189987  22.1955006  57.6465017   4.6219987  23.1225006  57.6465017
   9.0779987  30.6245006  55.3165017  10.0349987  30.6245006  55.3165017
   8.8379987  31.5515006  55.3165017  12.9229987  23.4695006  53.4785017
  13.8799987  23.4695006  53.4785017  12.6829987  24.3965006  53.4785017
  13.6449987  25.3695006  55.1435017  14.6019987  25.3695006  55.1435017
  13.4049987  26.2965006  55.1435017  11.1879987  32.1175006  54.3215017
  12.1449987  32.1175006  54.3215017  10.9479987  33.0445006  54.3215017
  18.5729987  25.5285006  54.8715017  19.5299987  25.5285006  54.8715017
  18.3329987  26.4555006  54.8715017  16.7699987  34.3525006  55.2885017
  17.7269987  34.3525006  55.2885017  16.5299987  35.2795006  55.2885017
   6.5759987  33.4845006  58.4855017   7.5329987  33.4845006  58.4855017
   6.3359987  34.4115006  58.4855017   2.2849987  28.3225006  53.0885017
   3.2419987  28.3225006  53.0885017   2.0449987  29.2495006  53.0885017
   6.6569987  36.1685006  57.5865017   7.6139987  36.1685006  57.5865017
   6.4169987  37.0955006  57.5865017  14.2709987  32.3945006  53.1355017
  15.2279987  32.3945006  53.1355017  14.0309987  33.3215006  53.1355017
  18.7279987  36.7635006  53.3625017  19.6849987  36.7635006  53.3625017
  18.4879987  37.6905006  53.3625017  15.0649987  31.0465006  55.3975017
  16.0219987  31.0465006  55.3975017  14.8249987  31.9735006  55.3975017
   8.3909987  33.4745006  51.6145017   9.3479987  33.4745006  51.6145017
   8.1509987  34.4015006  51.6145017   7.2319987  33.0015006  54.0725017
   8.1889987  33.0015006  54.0725017   6.9919987  33.9285006  54.0725017
   3.6939987  30.2365006  54.5655017   4.6509987  30.2365006  54.5655017
   3.4539987  31.1635006  54.5655017  12.3509987  22.4895006  55.9215017
  13.3079987  22.4895006  55.9215017  12.1109987  23.4165006  55.9215017
   9.9909987  34.6675006  54.8015017  10.9479987  34.6675006  54.8015017
   9.7509987  35.5945006  54.8015017   9.5029987  24.3125006  56.7835017
  10.4599987  24.3125006  56.7835017   9.2629987  25.2395006  56.7835017
   7.3709987  35.6945006  54.7835017   8.3279987  35.6945006  54.7835017
   7.1309987  36.6215006  54.7835017   6.0539987  22.4365006  54.3925017
   7.0109987  22.4365006  54.3925017   5.8139987  23.3635006  54.3925017
   4.2889987  32.8795006  53.4335017   5.2459987  32.8795006  53.4335017
   4.0489987  33.8065006  53.4335017   2.5799987  25.5495006  52.6205017
   3.5369987  25.5495006  52.6205017   2.3399987  26.4765006  52.6205017
   2.4139987  34.2745006  57.4455017   3.3709987  34.2745006  57.4455017
   2.1739987  35.2015006  57.4455017  10.3969987  35.3275006  51.7525017
  11.3539987  35.3275006  51.7525017  10.1569987  36.2545006  51.7525017
  14.9759987  35.0955006  51.9575017  15.9329987  35.0955006  51.9575017
  14.7359987  36.0225006  51.9575017   5.8609987  31.0175006  51.7855017
   6.8179987  31.0175006  51.7855017   5.6209987  31.9445006  51.7855017
  11.2799987  32.1155006  51.5315017  12.2369987  32.1155006  51.5315017
  11.0399987  33.0425006  51.5315017   7.0559987  29.0265006  54.1605017
   8.0129987  29.0265006  54.1605017   6.8159987  29.9535006  54.1605017
   8.1329987  27.2515006  52.3945017   9.0899987  27.2515006  52.3945017
   7.8929987  28.1785006  52.3945017  17.4839987  29.5785006  51.8375017
  18.4409987  29.5785006  51.8375017  17.2439987  30.5055006  51.8375017
   7.9849987  37.9465006  53.4585017   8.9419987  37.9465006  53.4585017
   7.7449987  38.8735006  53.4585017   1.5939987  32.5595006  52.9055017
   2.5509987  32.5595006  52.9055017   1.3539987  33.4865006  52.9055017
 108.2159987  37.4305006  57.3695017 109.1729987  37.4305006  57.3695017
 107.9759987  38.3575006  57.3695017   1.1879987  35.9515006  59.6965017
   2.1449987  35.9515006  59.6965017   0.9479987  36.8785006  59.6965017
  17.9839987  30.4835006  55.8095017  18.9409987  30.4835006  55.8095017
  17.7439987  31.4105006  55.8095017  18.6479987  28.3935006  54.0495017
  19.6049987  28.3935006  54.0495017  18.4079987  29.3205006  54.0495017
  17.0199987  25.6415006  52.5855017  17.9769987  25.6415006  52.5855017
  16.7799987  26.5685006  52.5855017  16.2689987  23.0865006  51.6935017
  17.2259987  23.0865006  51.6935017  16.0289987  24.0135006  51.6935017
  16.5589987  21.8695006  56.6885017  17.5159987  21.8695006  56.6885017
  16.3189987  22.7965006  56.6885017  18.3379987  21.9455006  53.2755017
  19.2949987  21.9455006  53.2755017  18.0979987  22.8725006  53.2755017
   0.8979987  21.8505006  56.3525017   1.8549987  21.8505006  56.3525017
   0.6579987  22.7775006  56.3525017   1.9329987  19.9675006  54.3315017
   2.8899987  19.9675006  54.3315017   1.6929987  20.8945006  54.3315017
   7.6579987  20.1075006  58.3565017   8.6149987  20.1075006  58.3565017
   7.4179987  21.0345006  58.3565017  13.3059987  20.1095006  60.0105017
  14.2629987  20.1095006  60.0105017  13.0659987  21.0365006  60.0105017
  14.5869987  20.1775006  55.6965017  15.5439987  20.1775006  55.6965017
  14.3469987  21.1045006  55.6965017   1.9299987  35.9415006  55.2805017
   2.8869987  35.9415006  55.2805017   1.6899987  36.8685006  55.2805017
   3.7389987  21.9215006  52.7915017   4.6959987  21.9215006  52.7915017
   3.4989987  22.8485006  52.7915017   8.7799987  22.1715006  55.2315017
   9.7369987  22.1715006  55.2315017   8.5399987  23.0985006  55.2315017
  10.6809987  37.1975006  53.6635017  11.6379987  37.1975006  53.6635017
  10.4409987  38.1245006  53.6635017  17.3769987  36.7275006  56.3805017
  18.3339987  36.7275006  56.3805017  17.1369987  37.6545006  56.3805017
   3.5889987  36.8615006  52.2575017   4.5459987  36.8615006  52.2575017
   3.3489987  37.7885006  52.2575017  31.1039987  29.3745006  58.4495017
  32.0609987  29.3745006  58.4495017  30.8639987  30.3015006  58.4495017
  19.8069987  26.2695006  57.4875017  20.7639987  26.2695006  57.4875017
  19.5669987  27.1965006  57.4875017  20.5369987  28.5075006  59.5885017
  21.4939987  28.5075006  59.5885017  20.2969987  29.4345006  59.5885017
  20.5109987  31.7185006  55.8415017  21.4679987  31.7185006  55.8415017
  20.2709987  32.6455006  55.8415017  29.7379987  28.5815006  55.9715017
  30.6949987  28.5815006  55.9715017  29.4979987  29.5085006  55.9715017
  29.7779987  27.1035006  52.9755017  30.7349987  27.1035006  52.9755017
  29.5379987  28.0305006  52.9755017  33.1729987  28.8035006  56.8845017
  34.1299987  28.8035006  56.8845017  32.9329987  29.7305006  56.8845017
  32.0339987  27.9585006  54.5625017  32.9909987  27.9585006  54.5625017
  31.7939987  28.8855006  54.5625017  35.7479987  19.7085006  54.4105017
  36.7049987  19.7085006  54.4105017  35.5079987  20.6355006  54.4105017
  23.7589987  28.4705006  56.3425017  24.7159987  28.4705006  56.3425017
  23.5189987  29.3975006  56.3425017  29.0899987  22.9195006  52.8635017
  30.0469987  22.9195006  52.8635017  28.8499987  23.8465006  52.8635017
  30.3889987  26.2625006  57.1065017  31.3459987  26.2625006  57.1065017
  30.1489987  27.1895006  57.1065017  25.9239987  23.3075006  51.9715017
  26.8809987  23.3075006  51.9715017  25.6839987  24.2345006  51.9715017
  19.1719987  23.0645006  59.0605017  20.1289987  23.0645006  59.0605017
  18.9319987  23.9915006  59.0605017  20.4429987  23.7345006  54.4415017
  21.3999987  23.7345006  54.4415017  20.2029987  24.6615006  54.4415017
  27.4689987  23.2525006  59.2965017  28.4259987  23.2525006  59.2965017
  27.2289987  24.1795006  59.2965017  22.2349987  24.8645006  58.1965017
  23.1919987  24.8645006  58.1965017  21.9949987  25.7915006  58.1965017
  25.8949987  24.8965006  55.7915017  26.8519987  24.8965006  55.7915017
  25.6549987  25.8235006  55.7915017  24.5739987  26.0935006  53.3915017
  25.5309987  26.0935006  53.3915017  24.3339987  27.0205006  53.3915017
  23.7219987  22.1995006  57.6505017  24.6789987  22.1995006  57.6505017
  23.4819987  23.1265006  57.6505017  27.9299987  30.6425006  55.2995017
  28.8869987  30.6425006  55.2995017  27.6899987  31.5695006  55.2995017
  31.7839987  23.4805006  53.4925017  32.7409987  23.4805006  53.4925017
  31.5439987  24.4075006  53.4925017  32.5129987  25.3625006  55.1475017
  33.4699987  25.3625006  55.1475017  32.2729987  26.2895006  55.1475017
  37.4039987  25.5125006  54.8875017  38.3609987  25.5125006  54.8875017
  37.1639987  26.4395006  54.8875017  25.4209987  33.5045006  58.5245017
  26.3779987  33.5045006  58.5245017  25.1809987  34.4315006  58.5245017
  21.1669987  28.3125006  53.0855017  22.1239987  28.3125006  53.0855017
  20.9269987  29.2395006  53.0855017  26.8459987  31.1455006  57.9705017
  27.8029987  31.1455006  57.9705017  26.6059987  32.0725006  57.9705017
  25.5019987  36.1575006  57.6895017  26.4589987  36.1575006  57.6895017
  25.2619987  37.0845006  57.6895017  26.0769987  33.0085006  54.0785017
  27.0339987  33.0085006  54.0785017  25.8369987  33.9355006  54.0785017
  22.5579987  30.2455006  54.5405017  23.5149987  30.2455006  54.5405017
  22.3179987  31.1725006  54.5405017  31.1859987  22.5265006  55.9825017
  32.1429987  22.5265006  55.9825017  30.9459987  23.4535006  55.9825017
  28.4229987  24.2565006  56.7845017  29.3799987  24.2565006  56.7845017
  28.1829987  25.1835006  56.7845017  29.2729987  21.3255006  57.7285017
  30.2299987  21.3255006  57.7285017  29.0329987  22.2525006  57.7285017
  26.1329987  35.7575006  54.7675017  27.0899987  35.7575006  54.7675017
  25.8929987  36.6845006  54.7675017  24.8939987  22.4345006  54.3865017
  25.8509987  22.4345006  54.3865017  24.6539987  23.3615006  54.3865017
  23.1619987  32.8515006  53.4325017  24.1189987  32.8515006  53.4325017
  22.9219987  33.7785006  53.4325017  21.4829987  25.5415006  52.5655017
  22.4399987  25.5415006  52.5655017  21.2429987  26.4685006  52.5655017
  33.8069987  35.1335006  51.9365017  34.7639987  35.1335006  51.9365017
  33.5669987  36.0605006  51.9365017  24.7219987  31.0125006  51.7925017
  25.6789987  31.0125006  51.7925017  24.4819987  31.9395006  51.7925017
  25.9159987  29.0245006  54.1345017  26.8729987  29.0245006  54.1345017
  25.6759987  29.9515006  54.1345017  26.9859987  27.2035006  52.3865017
  27.9429987  27.2035006  52.3865017  26.7459987  28.1305006  52.3865017
  20.4079987  32.5495006  52.9185017  21.3649987  32.5495006  52.9185017
  20.1679987  33.4765006  52.9185017  19.1309987  37.9585006  57.9755017
  20.0879987  37.9585006  57.9755017  18.8909987  38.8855006  57.9755017
  37.1919987  28.5185006  57.6695017  38.1489987  28.5185006  57.6695017
  36.9519987  29.4455006  57.6695017  35.8839987  25.6465006  52.5665017
  36.8409987  25.6465006  52.5665017  35.6439987  26.5735006  52.5665017
  35.1399987  23.0615006  51.6755017  36.0969987  23.0615006  51.6755017
  34.8999987  23.9885006  51.6755017  34.6869987  24.6315006  56.6075017
  35.6439987  24.6315006  56.6075017  34.4469987  25.5585006  56.6075017
  35.3549987  21.9125006  56.7215017  36.3119987  21.9125006  56.7215017
  35.1149987  22.8395006  56.7215017  37.1929987  21.9685006  53.2305017
  38.1499987  21.9685006  53.2305017  36.9529987  22.8955006  53.2305017
  19.5049987  21.9475006  56.3945017  20.4619987  21.9475006  56.3945017
  19.2649987  22.8745006  56.3945017  36.4099987  20.7985006  59.0445017
  37.3669987  20.7985006  59.0445017  36.1699987  21.7255006  59.0445017
  21.9549987  20.1985006  58.5135017  22.9119987  20.1985006  58.5135017
  21.7149987  21.1255006  58.5135017  20.7629987  19.9665006  54.3415017
  21.7199987  19.9665006  54.3415017  20.5229987  20.8935006  54.3415017
  26.5369987  20.0495006  58.3895017  27.4939987  20.0495006  58.3895017
  26.2969987  20.9765006  58.3895017  31.9959987  20.1655006  59.9305017
  32.9529987  20.1655006  59.9305017  31.7559987  21.0925006  59.9305017
  33.4309987  20.1875006  55.7335017  34.3879987  20.1875006  55.7335017
  33.1909987  21.1145006  55.7335017  20.6759987  35.9035006  55.2665017
  21.6329987  35.9035006  55.2665017  20.4359987  36.8305006  55.2665017
  22.5929987  21.9065006  52.8015017  23.5499987  21.9065006  52.8015017
  22.3529987  22.8335006  52.8015017  27.6439987  22.1715006  55.2325017
  28.6009987  22.1715006  55.2325017  27.4039987  23.0985006  55.2325017
  52.5539987  31.5395006  60.2315017  53.5109987  31.5395006  60.2315017
  52.3139987  32.4665006  60.2315017  38.6929987  26.2965006  57.4595017
  39.6499987  26.2965006  57.4595017  38.4529987  27.2235006  57.4595017
  51.2119987  23.6795006  58.3025017  52.1689987  23.6795006  58.3025017
  50.9719987  24.6065006  58.3025017  49.7839987  31.9715006  57.4155017
  50.7409987  31.9715006  57.4155017  49.5439987  32.8985006  57.4155017
  51.2629987  35.2155006  59.1945017  52.2199987  35.2155006  59.1945017
  51.0229987  36.1425006  59.1945017  52.4449987  33.1115006  57.6905017
  53.4019987  33.1115006  57.6905017  52.2049987  34.0385006  57.6905017
  48.6389987  28.5945006  55.9435017  49.5959987  28.5945006  55.9435017
  48.3989987  29.5215006  55.9435017  48.7069987  27.1285006  52.9975017
  49.6639987  27.1285006  52.9975017  48.4669987  28.0555006  52.9975017
  43.6569987  29.4245006  58.8155017  44.6139987  29.4245006  58.8155017
  43.4169987  30.3515006  58.8155017  54.5909987  19.7015006  54.3665017
  55.5479987  19.7015006  54.3665017  54.3509987  20.6285006  54.3665017
  42.6529987  28.4825006  56.3755017  43.6099987  28.4825006  56.3755017
  42.4129987  29.4095006  56.3755017  55.7329987  34.0625006  52.8525017
  56.6899987  34.0625006  52.8525017  55.4929987  34.9895006  52.8525017
  48.2039987  37.6305006  56.3585017  49.1609987  37.6305006  56.3585017
  47.9639987  38.5575006  56.3585017  47.9399987  22.9085006  52.8725017
  48.8969987  22.9085006  52.8725017  47.6999987  23.8355006  52.8725017
  49.2139987  26.2655006  57.0855017  50.1709987  26.2655006  57.0855017
  48.9739987  27.1925006  57.0855017  50.3249987  25.7415006  59.8955017
  51.2819987  25.7415006  59.8955017  50.0849987  26.6685006  59.8955017
  44.7679987  23.2885006  51.9685017  45.7249987  23.2885006  51.9685017
  44.5279987  24.2155006  51.9685017  38.0499987  23.0775006  59.0285017
  39.0069987  23.0775006  59.0285017  37.8099987  24.0045006  59.0285017
  39.3049987  23.7445006  54.4535017  40.2619987  23.7445006  54.4535017
  39.0649987  24.6715006  54.4535017  44.7369987  24.9115006  55.7965017
  45.6939987  24.9115006  55.7965017  44.4969987  25.8385006  55.7965017
  43.4349987  26.1035006  53.4095017  44.3919987  26.1035006  53.4095017
  43.1949987  27.0305006  53.4095017  46.8339987  30.6085006  55.3515017
  47.7909987  30.6085006  55.3515017  46.5939987  31.5355006  55.3515017
  51.3639987  25.3795006  55.1745017  52.3209987  25.3795006  55.1745017
  51.1239987  26.3065006  55.1745017  56.2119987  25.5235006  54.9015017
  57.1689987  25.5235006  54.9015017  55.9719987  26.4505006  54.9015017
  54.4999987  34.3645006  55.3055017  55.4569987  34.3645006  55.3055017
  54.2599987  35.2915006  55.3055017  40.0099987  28.3095006  53.0845017
  40.9669987  28.3095006  53.0845017  39.7699987  29.2365006  53.0845017
  45.6769987  31.1345006  57.9965017  46.6339987  31.1345006  57.9965017
  45.4369987  32.0615006  57.9965017  41.4469987  30.2405006  54.5665017
  42.4039987  30.2405006  54.5665017  41.2069987  31.1675006  54.5665017
  50.0539987  22.5375006  55.9105017  51.0109987  22.5375006  55.9105017
  49.8139987  23.4645006  55.9105017  47.7299987  34.7025006  54.8405017
  48.6869987  34.7025006  54.8405017  47.4899987  35.6295006  54.8405017
  47.2279987  24.3165006  56.7645017  48.1849987  24.3165006  56.7645017
  46.9879987  25.2435006  56.7645017  43.7589987  22.4405006  54.3895017
  44.7159987  22.4405006  54.3895017  43.5189987  23.3675006  54.3895017
  40.3399987  25.5465006  52.5295017  41.2969987  25.5465006  52.5295017
  40.0999987  26.4735006  52.5295017  48.1009987  35.3155006  51.7485017
  49.0579987  35.3155006  51.7485017  47.8609987  36.2425006  51.7485017
  52.6609987  35.0875006  51.9595017  53.6179987  35.0875006  51.9595017
  52.4209987  36.0145006  51.9595017  43.4779987  31.0075006  51.8595017
  44.4349987  31.0075006  51.8595017  43.2379987  31.9345006  51.8595017
  44.7759987  28.9985006  54.1405017  45.7329987  28.9985006  54.1405017
  44.5359987  29.9255006  54.1405017  55.1529987  29.5885006  51.8475017
  56.1099987  29.5885006  51.8475017  54.9129987  30.5155006  51.8475017
  55.6869987  30.4665006  55.7805017  56.6439987  30.4665006  55.7805017
  55.4469987  31.3935006  55.7805017  56.0949987  28.5605006  57.6515017
  57.0519987  28.5605006  57.6515017  55.8549987  29.4875006  57.6515017
  56.3009987  28.3615006  54.0745017  57.2579987  28.3615006  54.0745017
  56.0609987  29.2885006  54.0745017  53.9589987  27.0165006  58.2605017
  54.9159987  27.0165006  58.2605017  53.7189987  27.9435006  58.2605017
  53.5799987  24.6385006  56.6765017  54.5369987  24.6385006  56.6765017
  53.3399987  25.5655006  56.6765017  54.2259987  21.9155006  56.6845017
  55.1829987  21.9155006  56.6845017  53.9859987  22.8425006  56.6845017
  38.3619987  21.9435006  56.3715017  39.3189987  21.9435006  56.3715017
  38.1219987  22.8705006  56.3715017  55.2619987  20.8745006  59.1115017
  56.2189987  20.8745006  59.1115017  55.0219987  21.8015006  59.1115017
  39.6169987  19.9635006  54.3195017  40.5739987  19.9635006  54.3195017
  39.3769987  20.8905006  54.3195017  45.3749987  20.1385006  58.3725017
  46.3319987  20.1385006  58.3725017  45.1349987  21.0655006  58.3725017
  52.2989987  20.1825006  55.6445017  53.2559987  20.1825006  55.6445017
  52.0589987  21.1095006  55.6445017  41.4559987  21.9255006  52.7505017
  42.4129987  21.9255006  52.7505017  41.2159987  22.8525006  52.7505017
  46.4449987  22.1685006  55.2235017  47.4019987  22.1685006  55.2235017
  46.2049987  23.0955006  55.2235017  48.4199987  37.1085006  53.6875017
  49.3769987  37.1085006  53.6875017  48.1799987  38.0355006  53.6875017
  68.7129987  29.3465006  58.4995017  69.6699987  29.3465006  58.4995017
  68.4729987  30.2735006  58.4995017  57.5719987  26.3095006  57.4435017
  58.5289987  26.3095006  57.4435017  57.3319987  27.2365006  57.4435017
  58.2449987  28.5065006  59.5995017  59.2019987  28.5065006  59.5995017
  58.0049987  29.4335006  59.5995017  62.4199987  23.5385006  59.8735017
  63.3769987  23.5385006  59.8735017  62.1799987  24.4655006  59.8735017
  70.0509987  23.6275006  58.2875017  71.0079987  23.6275006  58.2875017
  69.8109987  24.5545006  58.2875017  58.2199987  31.7505006  55.8705017
  59.1769987  31.7505006  55.8705017  57.9799987  32.6775006  55.8705017
  67.4299987  28.5465006  55.9615017  68.3869987  28.5465006  55.9615017
  67.1899987  29.4735006  55.9615017  62.5159987  29.4375006  58.7975017
  63.4729987  29.4375006  58.7975017  62.2759987  30.3645006  58.7975017
  69.7439987  27.9265006  54.5955017  70.7009987  27.9265006  54.5955017
  69.5039987  28.8535006  54.5955017  73.4789987  19.7055006  54.4145017
  74.4359987  19.7055006  54.4145017  73.2389987  20.6325006  54.4145017
  61.5029987  28.4765006  56.3355017  62.4599987  28.4765006  56.3355017
  61.2629987  29.4035006  56.3355017  66.8009987  22.9145006  52.8945017
  67.7579987  22.9145006  52.8945017  66.5609987  23.8415006  52.8945017
  63.6629987  23.3255006  52.0385017  64.6199987  23.3255006  52.0385017
  63.4229987  24.2525006  52.0385017  59.9839987  24.9165006  58.1045017
  60.9409987  24.9165006  58.1045017  59.7439987  25.8435006  58.1045017
  63.6059987  24.9225006  55.8065017  64.5629987  24.9225006  55.8065017
  63.3659987  25.8495006  55.8065017  61.4449987  22.2075006  57.6365017
  62.4019987  22.2075006  57.6365017  61.2049987  23.1345006  57.6365017
  65.6219987  30.6065006  55.3145017  66.5789987  30.6065006  55.3145017
  65.3819987  31.5335006  55.3145017  69.4949987  23.4795006  53.5025017
  70.4519987  23.4795006  53.5025017  69.2549987  24.4065006  53.5025017
  70.2809987  25.3275006  55.1075017  71.2379987  25.3275006  55.1075017
  70.0409987  26.2545006  55.1075017  75.0899987  25.5315006  54.8655017
  76.0469987  25.5315006  54.8655017  74.8499987  26.4585006  54.8655017
  63.1339987  33.5055006  58.4945017  64.0909987  33.5055006  58.4945017
  62.8939987  34.4325006  58.4945017  64.5539987  31.1255006  58.0155017
  65.5109987  31.1255006  58.0155017  64.3139987  32.0525006  58.0155017
  68.8699987  22.5535006  55.9665017  69.8269987  22.5535006  55.9665017
  68.6299987  23.4805006  55.9665017  66.9349987  21.3715006  57.6835017
  67.8919987  21.3715006  57.6835017  66.6949987  22.2985006  57.6835017
  62.6349987  22.4415006  54.4145017  63.5919987  22.4415006  54.4145017
  62.3949987  23.3685006  54.4145017  58.9159987  34.1445006  57.2765017
  59.8729987  34.1445006  57.2765017  58.6759987  35.0715006  57.2765017
  63.6319987  28.9665006  54.1525017  64.5889987  28.9665006  54.1525017
  63.3919987  29.8935006  54.1525017  74.9729987  28.4905006  57.6285017
  75.9299987  28.4905006  57.6285017  74.7329987  29.4175006  57.6285017
  72.7269987  27.0295006  58.1695017  73.6839987  27.0295006  58.1695017
  72.4869987  27.9565006  58.1695017  72.4129987  24.6025006  56.6235017
  73.3699987  24.6025006  56.6235017  72.1729987  25.5295006  56.6235017
  74.9189987  21.9405006  53.3005017  75.8759987  21.9405006  53.3005017
  74.6789987  22.8675006  53.3005017  57.1999987  21.9245006  56.3355017
  58.1569987  21.9245006  56.3355017  56.9599987  22.8515006  56.3355017
  58.4979987  19.9975006  54.3425017  59.4549987  19.9975006  54.3425017
  58.2579987  20.9245006  54.3425017  64.2169987  20.0695006  58.3775017
  65.1739987  20.0695006  58.3775017  63.9769987  20.9965006  58.3775017
  71.1599987  20.1895006  55.7115017  72.1169987  20.1895006  55.7115017
  70.9199987  21.1165006  55.7115017  65.3529987  22.1915006  55.2285017
  66.3099987  22.1915006  55.2285017  65.1129987  23.1185006  55.2285017
  76.4399987  26.3125006  57.4315017  77.3969987  26.3125006  57.4315017
  76.1999987  27.2395006  57.4315017  88.9069987  23.6065006  58.2035017
  89.8639987  23.6065006  58.2035017  88.6669987  24.5335006  58.2035017
  87.3799987  31.9585006  57.5605017  88.3369987  31.9585006  57.5605017
  87.1399987  32.8855006  57.5605017  86.2849987  28.5645006  55.9555017
  87.2419987  28.5645006  55.9555017  86.0449987  29.4915006  55.9555017
  86.3609987  27.1135006  52.9625017  87.3179987  27.1135006  52.9625017
  86.1209987  28.0405006  52.9625017  89.7349987  28.8205006  56.9015017
  90.6919987  28.8205006  56.9015017  89.4949987  29.7475006  56.9015017
  81.3959987  29.4855006  58.7845017  82.3529987  29.4855006  58.7845017
  81.1559987  30.4125006  58.7845017  88.6029987  27.9705006  54.5565017
  89.5599987  27.9705006  54.5565017  88.3629987  28.8975006  54.5565017
  86.3679987  34.7355006  57.9955017  87.3249987  34.7355006  57.9955017
  86.1279987  35.6625006  57.9955017  92.3209987  19.7125006  54.3975017
  93.2779987  19.7125006  54.3975017  92.0809987  20.6395006  54.3975017
  80.3429987  28.4775006  56.4075017  81.2999987  28.4775006  56.4075017
  80.1029987  29.4045006  56.4075017  93.4479987  34.0735006  52.7805017
  94.4049987  34.0735006  52.7805017  93.2079987  35.0005006  52.7805017
  85.8089987  37.6585006  56.4755017  86.7659987  37.6585006  56.4755017
  85.5689987  38.5855006  56.4755017  88.8629987  36.8385006  53.4095017
  89.8199987  36.8385006  53.4095017  88.6229987  37.7655006  53.4095017
  88.5799987  36.7665006  56.1985017  89.5369987  36.7665006  56.1985017
  88.3399987  37.6935006  56.1985017  90.0609987  28.9995006  52.3035017
  91.0179987  28.9995006  52.3035017  89.8209987  29.9265006  52.3035017
  85.6589987  22.9215006  52.8625017  86.6159987  22.9215006  52.8625017
  85.4189987  23.8485006  52.8625017  86.9279987  26.2725006  57.1045017
  87.8849987  26.2725006  57.1045017  86.6879987  27.1995006  57.1045017
  82.5009987  23.3005006  51.9805017  83.4579987  23.3005006  51.9805017
  82.2609987  24.2275006  51.9805017  76.9889987  23.7365006  54.4105017
  77.9459987  23.7365006  54.4105017  76.7489987  24.6635006  54.4105017
  82.4829987  24.9055006  55.8135017  83.4399987  24.9055006  55.8135017
  82.2429987  25.8325006  55.8135017  81.1489987  26.0985006  53.3995017
  82.1059987  26.0985006  53.3995017  80.9089987  27.0255006  53.3995017
  80.3529987  22.2005006  57.6355017  81.3099987  22.2005006  57.6355017
  80.1129987  23.1275006  57.6355017  84.4949987  30.6475006  55.3335017
  85.4519987  30.6475006  55.3335017  84.2549987  31.5745006  55.3335017
  88.3529987  23.4795006  53.4785017  89.3099987  23.4795006  53.4785017
  88.1129987  24.4065006  53.4785017  89.0609987  25.3765006  55.1695017
  90.0179987  25.3765006  55.1695017  88.8209987  26.3035006  55.1695017
  86.6079987  32.1135006  54.3335017  87.5649987  32.1135006  54.3335017
  86.3679987  33.0405006  54.3335017  93.9699987  25.5235006  54.8795017
  94.9269987  25.5235006  54.8795017  93.7299987  26.4505006  54.8795017
  92.2319987  34.3365006  55.3215017  93.1889987  34.3365006  55.3215017
  91.9919987  35.2635006  55.3215017  83.3869987  31.1175006  57.9675017
  84.3439987  31.1175006  57.9675017  83.1469987  32.0445006  57.9675017
  89.6929987  32.3885006  53.1315017  90.6499987  32.3885006  53.1315017
  89.4529987  33.3155006  53.1315017  94.1539987  36.7655006  53.3515017
  95.1109987  36.7655006  53.3515017  93.9139987  37.6925006  53.3515017
  90.4889987  31.0485006  55.3845017  91.4459987  31.0485006  55.3845017
  90.2489987  31.9755006  55.3845017  83.8069987  33.4705006  51.6105017
  84.7639987  33.4705006  51.6105017  83.5669987  34.3975006  51.6105017
  82.6789987  32.9995006  54.0755017  83.6359987  32.9995006  54.0755017
  82.4389987  33.9265006  54.0755017  79.1679987  30.2495006  54.5925017
  80.1249987  30.2495006  54.5925017  78.9279987  31.1765006  54.5925017
  87.7269987  22.5415006  55.9465017  88.6839987  22.5415006  55.9465017
  87.4869987  23.4685006  55.9465017  85.4339987  34.6965006  54.8345017
  86.3909987  34.6965006  54.8345017  85.1939987  35.6235006  54.8345017
  84.9599987  24.2835006  56.8025017  85.9169987  24.2835006  56.8025017
  84.7199987  25.2105006  56.8025017  82.8269987  35.7115006  54.8065017
  83.7839987  35.7115006  54.8065017  82.5869987  36.6385006  54.8065017
  81.4629987  22.4285006  54.3985017  82.4199987  22.4285006  54.3985017
  81.2229987  23.3555006  54.3985017  79.7949987  32.7975006  53.5485017
  80.7519987  32.7975006  53.5485017  79.5549987  33.7245006  53.5485017
  78.0439987  25.5385006  52.6085017  79.0009987  25.5385006  52.6085017
  77.8039987  26.4655006  52.6085017  85.8209987  35.3425006  51.7525017
  86.7779987  35.3425006  51.7525017  85.5809987  36.2695006  51.7525017
  90.3909987  35.0885006  51.9405017  91.3479987  35.0885006  51.9405017
  90.1509987  36.0155006  51.9405017  81.2959987  31.0095006  51.7885017
  82.2529987  31.0095006  51.7885017  81.0559987  31.9365006  51.7885017
  86.7059987  32.1145006  51.5445017  87.6629987  32.1145006  51.5445017
  86.4659987  33.0415006  51.5445017  82.5019987  29.0295006  54.1595017
  83.4589987  29.0295006  54.1595017  82.2619987  29.9565006  54.1595017
  83.5659987  27.2445006  52.3935017  84.5229987  27.2445006  52.3935017
  83.3259987  28.1715006  52.3935017  92.9129987  29.5815006  51.8205017
  93.8699987  29.5815006  51.8205017  92.6729987  30.5085006  51.8205017
  83.4259987  37.9785006  53.4855017  84.3829987  37.9785006  53.4855017
  83.1859987  38.9055006  53.4855017  93.4039987  30.4915006  55.7915017
  94.3609987  30.4915006  55.7915017  93.1639987  31.4185006  55.7915017
  93.8089987  28.5495006  57.6305017  94.7659987  28.5495006  57.6305017
  93.5689987  29.4765006  57.6305017  94.0849987  28.4005006  54.0325017
  95.0419987  28.4005006  54.0325017  93.8449987  29.3275006  54.0325017
  92.4369987  25.6405006  52.5595017  93.3939987  25.6405006  52.5595017
  92.1969987  26.5675006  52.5595017  91.5389987  27.0635006  58.2025017
  92.4959987  27.0635006  58.2025017  91.2989987  27.9905006  58.2025017
  91.6949987  23.0875006  51.6895017  92.6519987  23.0875006  51.6895017
  91.4549987  24.0145006  51.6895017  91.2769987  24.6395006  56.6395017
  92.2339987  24.6395006  56.6395017  91.0369987  25.5665006  56.6395017
  91.9209987  21.8945006  56.7225017  92.8779987  21.8945006  56.7225017
  91.6809987  22.8215006  56.7225017  93.7649987  21.9495006  53.2695017
  94.7219987  21.9495006  53.2695017  93.5249987  22.8765006  53.2695017
  76.0329987  21.9155006  56.3465017  76.9899987  21.9155006  56.3465017
  75.7929987  22.8425006  56.3465017  78.5479987  20.1845006  58.4825017
  79.5049987  20.1845006  58.4825017  78.3079987  21.1115006  58.4825017
  77.3139987  19.9645006  54.3215017  78.2709987  19.9645006  54.3215017
  77.0739987  20.8915006  54.3215017  90.0059987  20.1775006  55.6685017
  90.9629987  20.1775006  55.6685017  89.7659987  21.1045006  55.6685017
  79.1639987  21.8995006  52.7855017  80.1209987  21.8995006  52.7855017
  78.9239987  22.8265006  52.7855017  84.1509987  22.1745006  55.2395017
  85.1079987  22.1745006  55.2395017  83.9109987  23.1015006  55.2395017
  86.0859987  37.2265006  53.6595017  87.0429987  37.2265006  53.6595017
  85.8459987  38.1535006  53.6595017  92.8219987  36.7045006  56.3535017
  93.7789987  36.7045006  56.3535017  92.5819987  37.6315006  56.3535017
  95.2739987  26.3045006  57.4275017  96.2309987  26.3045006  57.4275017
  95.0339987  27.2315006  57.4275017  95.9759987  28.5225006  59.5955017
  96.9329987  28.5225006  59.5955017  95.7359987  29.4495006  59.5955017
 107.7409987  23.6665006  58.1885017 108.6979987  23.6665006  58.1885017
 107.5009987  24.5935006  58.1885017 106.2129987  31.9305006  57.5395017
 107.1699987  31.9305006  57.5395017 105.9729987  32.8575006  57.5395017
  95.9729987  31.7295006  55.8345017  96.9299987  31.7295006  55.8345017
  95.7329987  32.6565006  55.8345017 105.1339987  28.5705006  55.9585017
 106.0909987  28.5705006  55.9585017 104.8939987  29.4975006  55.9585017
 105.1889987  27.1035006  52.9535017 106.1459987  27.1035006  52.9535017
 104.9489987  28.0305006  52.9535017 107.4649987  27.9585006  54.5675017
 108.4219987  27.9585006  54.5675017 107.2249987  28.8855006  54.5675017
 105.1949987  34.7025006  57.9945017 106.1519987  34.7025006  57.9945017
 104.9549987  35.6295006  57.9945017  99.1699987  28.4815006  56.4165017
 100.1269987  28.4815006  56.4165017  98.9299987  29.4085006  56.4165017
 104.6529987  37.6495006  56.4365017 105.6099987  37.6495006  56.4365017
 104.4129987  38.5765006  56.4365017 107.7689987  36.8355006  53.3845017
 108.7259987  36.8355006  53.3845017 107.5289987  37.7625006  53.3845017
 106.9819987  36.1945006  55.7955017 107.9389987  36.1945006  55.7955017
 106.7419987  37.1215006  55.7955017 104.5269987  22.9195006  52.8805017
 105.4839987  22.9195006  52.8805017 104.2869987  23.8465006  52.8805017
 105.8039987  26.3015006  57.1185017 106.7609987  26.3015006  57.1185017
 105.5639987  27.2285006  57.1185017 106.7079987  25.7455006  59.8565017
 107.6649987  25.7455006  59.8565017 106.4679987  26.6725006  59.8565017
 101.3459987  23.3025006  51.9725017 102.3029987  23.3025006  51.9725017
 101.1059987  24.2295006  51.9725017  95.8899987  23.7465006  54.4375017
  96.8469987  23.7465006  54.4375017  95.6499987  24.6735006  54.4375017
  99.9899987  26.0965006  53.3915017 100.9469987  26.0965006  53.3915017
  99.7499987  27.0235006  53.3915017  99.1439987  22.1785006  57.6275017
 100.1009987  22.1785006  57.6275017  98.9039987  23.1055006  57.6275017
 103.3679987  30.6435006  55.3255017 104.3249987  30.6435006  55.3255017
 103.1279987  31.5705006  55.3255017 107.1609987  23.4885006  53.4805017
 108.1179987  23.4885006  53.4805017 106.9209987  24.4155006  53.4805017
   0.1319987  25.4635006  55.2325017   1.0889987  25.4635006  55.2325017
  -0.1080013  26.3905006  55.2325017 105.4589987  32.1055006  54.3335017
 106.4159987  32.1055006  54.3335017 105.2189987  33.0325006  54.3335017
 100.8519987  33.4315006  58.3605017 101.8089987  33.4315006  58.3605017
 100.6119987  34.3585006  58.3605017  96.5889987  28.3445006  53.0415017
  97.5459987  28.3445006  53.0415017  96.3489987  29.2715006  53.0415017
 102.2549987  31.1045006  58.0125017 103.2119987  31.1045006  58.0125017
 102.0149987  32.0315006  58.0125017 100.9179987  36.1905006  57.5365017
 101.8749987  36.1905006  57.5365017 100.6779987  37.1175006  57.5365017
 102.6639987  33.4755006  51.6095017 103.6209987  33.4755006  51.6095017
 102.4239987  34.4025006  51.6095017 101.4989987  33.0045006  54.0665017
 102.4559987  33.0045006  54.0665017 101.2589987  33.9315006  54.0665017
  98.0029987  30.2525006  54.5705017  98.9599987  30.2525006  54.5705017
  97.7629987  31.1795006  54.5705017 106.3219987  22.7745006  55.9355017
 107.2789987  22.7745006  55.9355017 106.0819987  23.7015006  55.9355017
 104.2819987  34.6715006  54.8005017 105.2389987  34.6715006  54.8005017
 104.0419987  35.5985006  54.8005017 103.8009987  24.2865006  56.7835017
 104.7579987  24.2865006  56.7835017 103.5609987  25.2135006  56.7835017
 104.6179987  21.3835006  57.6725017 105.5749987  21.3835006  57.6725017
 104.3779987  22.3105006  57.6725017 101.6359987  35.7045006  54.7855017
 102.5929987  35.7045006  54.7855017 101.3959987  36.6315006  54.7855017
 100.3169987  22.4405006  54.4065017 101.2739987  22.4405006  54.4065017
 100.0769987  23.3675006  54.4065017  98.5679987  32.8675006  53.4425017
  99.5249987  32.8675006  53.4425017  98.3279987  33.7945006  53.4425017
  96.9199987  25.5405006  52.5735017  97.8769987  25.5405006  52.5735017
  96.6799987  26.4675006  52.5735017  96.6519987  34.2065006  57.4005017
  97.6089987  34.2065006  57.4005017  96.4119987  35.1335006  57.4005017
 104.7059987  35.3155006  51.7445017 105.6629987  35.3155006  51.7445017
 104.4659987  36.2425006  51.7445017 100.1419987  31.0155006  51.7845017
 101.0989987  31.0155006  51.7845017  99.9019987  31.9425006  51.7845017
 105.5979987  32.1015006  51.5535017 106.5549987  32.1015006  51.5535017
 105.3579987  33.0285006  51.5535017 101.3479987  29.0305006  54.1675017
 102.3049987  29.0305006  54.1675017 101.1079987  29.9575006  54.1675017
 102.4119987  27.2535006  52.3895017 103.3689987  27.2535006  52.3895017
 102.1719987  28.1805006  52.3895017 102.2549987  37.9475006  53.4495017
 103.2119987  37.9475006  53.4495017 102.0149987  38.8745006  53.4495017
  95.8229987  32.5505006  52.9215017  96.7799987  32.5505006  52.9215017
  95.5829987  33.4775006  52.9215017  94.5889987  37.9185006  57.8965017
  95.5459987  37.9185006  57.8965017  94.3489987  38.8455006  57.8965017
  96.1859987  19.9735006  54.3285017  97.1429987  19.9735006  54.3285017
  95.9459987  20.9005006  54.3285017 101.8989987  20.1925006  58.3745017
 102.8559987  20.1925006  58.3745017 101.6589987  21.1195006  58.3745017
 107.1789987  19.1525006  59.2755017 108.1359987  19.1525006  59.2755017
 106.9389987  20.0795006  59.2755017  96.1209987  35.9205006  55.2775017
  97.0779987  35.9205006  55.2775017  95.8809987  36.8475006  55.2775017
  98.0259987  21.9025006  52.7955017  98.9829987  21.9025006  52.7955017
  97.7859987  22.8295006  52.7955017 103.0049987  22.1615006  55.2345017
 103.9619987  22.1615006  55.2345017 102.7649987  23.0885006  55.2345017
 104.9299987  37.2115006  53.6555017 105.8869987  37.2115006  53.6555017
 104.6899987  38.1385006  53.6555017  97.8919987  36.8845006  52.2625017
  98.8489987  36.8845006  52.2625017  97.6519987  37.8115006  52.2625017
   1.0999987  45.3415006  57.3415017   2.0569987  45.3415006  57.3415017
   0.8599987  46.2685006  57.3415017  13.5259987  42.4605006  58.2455017
  14.4829987  42.4605006  58.2455017  13.2859987  43.3875006  58.2455017
   7.5589987  46.3635006  59.8725017   8.5159987  46.3635006  59.8725017
   7.3189987  47.2905006  59.8725017   1.6679987  50.5945006  55.8355017
   2.6249987  50.5945006  55.8355017   1.4279987  51.5215006  55.8355017
  10.8579987  47.4015006  55.9475017  11.8149987  47.4015006  55.9475017
  10.6179987  48.3285006  55.9475017  10.9319987  45.9615006  52.9575017
  11.8889987  45.9615006  52.9575017  10.6919987  46.8885006  52.9575017
  14.3039987  47.6755006  56.9075017  15.2609987  47.6755006  56.9075017
  14.0639987  48.6025006  56.9075017   5.9309987  48.3235006  58.7625017
   6.8879987  48.3235006  58.7625017   5.6909987  49.2505006  58.7625017
  13.1759987  46.8275006  54.5515017  14.1329987  46.8275006  54.5515017
  12.9359987  47.7545006  54.5515017  16.8929987  38.5735006  54.4235017
  17.8499987  38.5735006  54.4235017  16.6529987  39.5005006  54.4235017
   4.9159987  47.3555006  56.3885017   5.8729987  47.3555006  56.3885017
   4.6759987  48.2825006  56.3885017  18.0199987  52.9225006  52.8235017
  18.9769987  52.9225006  52.8235017  17.7799987  53.8495006  52.8235017
  10.3659987  56.4965006  56.4385017  11.3229987  56.4965006  56.4385017
  10.1259987  57.4235006  56.4385017  13.4389987  55.6905006  53.4155017
  14.3959987  55.6905006  53.4155017  13.1989987  56.6175006  53.4155017
  13.1259987  55.5755006  56.1355017  14.0829987  55.5755006  56.1355017
  12.8859987  56.5025006  56.1355017  14.6459987  47.8665006  52.2635017
  15.6029987  47.8665006  52.2635017  14.4059987  48.7935006  52.2635017
  10.2339987  41.7805006  52.8625017  11.1909987  41.7805006  52.8625017
   9.9939987  42.7075006  52.8625017   5.9839987  44.7385006  58.2205017
   6.9409987  44.7385006  58.2205017   5.7439987  45.6655006  58.2205017
  11.5409987  45.1155006  57.1005017  12.4979987  45.1155006  57.1005017
  11.3009987  46.0425006  57.1005017  12.6609987  44.6555006  59.7685017
  13.6179987  44.6555006  59.7685017  12.4209987  45.5825006  59.7685017
   7.0789987  42.1685006  51.9745017   8.0359987  42.1685006  51.9745017
   6.8389987  43.0955006  51.9745017   0.0569987  41.8195006  59.4165017
   1.0139987  41.8195006  59.4165017  -0.1830013  42.7465006  59.4165017
   1.7959987  42.5935006  54.5505017   2.7529987  42.5935006  54.5505017
   1.5559987  43.5205006  54.5505017   3.4029987  43.7495006  58.1055017
   4.3599987  43.7495006  58.1055017   3.1629987  44.6765006  58.1055017
   7.0289987  43.7525006  55.7935017   7.9859987  43.7525006  55.7935017
   6.7889987  44.6795006  55.7935017   5.7079987  44.9665006  53.3875017
   6.6649987  44.9665006  53.3875017   5.4679987  45.8935006  53.3875017
   4.9349987  41.1905006  57.5865017   5.8919987  41.1905006  57.5865017
   4.6949987  42.1175006  57.5865017   9.0779987  49.5075006  55.3165017
  10.0349987  49.5075006  55.3165017   8.8379987  50.4345006  55.3165017
  12.9169987  42.3175006  53.5115017  13.8739987  42.3175006  53.5115017
  12.6769987  43.2445006  53.5115017  13.6459987  44.2235006  55.1645017
  14.6029987  44.2235006  55.1645017  13.4059987  45.1505006  55.1645017
  11.1839987  50.9685006  54.3285017  12.1409987  50.9685006  54.3285017
  10.9439987  51.8955006  54.3285017  18.5339987  44.3915006  54.9095017
  19.4909987  44.3915006  54.9095017  18.2939987  45.3185006  54.9095017
  16.8119987  53.1925006  55.3125017  17.7689987  53.1925006  55.3125017
  16.5719987  54.1195006  55.3125017   6.5719987  52.3305006  58.4905017
   7.5289987  52.3305006  58.4905017   6.3319987  53.2575006  58.4905017
   2.2869987  47.1695006  53.1185017   3.2439987  47.1695006  53.1185017
   2.0469987  48.0965006  53.1185017   7.9749987  49.9875006  58.0125017
   8.9319987  49.9875006  58.0125017   7.7349987  50.9145006  58.0125017
   6.6669987  55.0325006  57.5755017   7.6239987  55.0325006  57.5755017
   6.4269987  55.9595006  57.5755017  14.2589987  51.2375006  53.1475017
  15.2159987  51.2375006  53.1475017  14.0189987  52.1645006  53.1475017
  18.7499987  55.6145006  53.3805017  19.7069987  55.6145006  53.3805017
  18.5099987  56.5415006  53.3805017  15.0649987  49.9065006  55.3845017
  16.0219987  49.9065006  55.3845017  14.8249987  50.8335006  55.3845017
   8.3879987  52.3275006  51.6175017   9.3449987  52.3275006  51.6175017
   8.1479987  53.2545006  51.6175017   7.2329987  51.8575006  54.0725017
   8.1899987  51.8575006  54.0725017   6.9929987  52.7845006  54.0725017
   3.6919987  49.0825006  54.5605017   4.6489987  49.0825006  54.5605017
   3.4519987  50.0095006  54.5605017  12.3389987  41.3625006  55.9725017
  13.2959987  41.3625006  55.9725017  12.0989987  42.2895006  55.9725017
  10.0149987  53.5485006  54.8145017  10.9719987  53.5485006  54.8145017
   9.7749987  54.4755006  54.8145017   9.5289987  43.1245006  56.7945017
  10.4859987  43.1245006  56.7945017   9.2889987  44.0515006  56.7945017
  10.3459987  40.2255006  57.6615017  11.3029987  40.2255006  57.6615017
  10.1059987  41.1525006  57.6615017   7.3719987  54.5695006  54.7905017
   8.3289987  54.5695006  54.7905017   7.1319987  55.4965006  54.7905017
   6.0489987  41.2805006  54.4035017   7.0059987  41.2805006  54.4035017
   5.8089987  42.2075006  54.4035017   4.2879987  51.7245006  53.4465017
   5.2449987  51.7245006  53.4465017   4.0479987  52.6515006  53.4465017
   2.5939987  44.4085006  52.5965017   3.5509987  44.4085006  52.5965017
   2.3539987  45.3355006  52.5965017   2.3879987  53.0985006  57.4485017
   3.3449987  53.0985006  57.4485017   2.1479987  54.0255006  57.4485017
  10.3999987  54.1855006  51.7655017  11.3569987  54.1855006  51.7655017
  10.1599987  55.1125006  51.7655017  14.9949987  53.9885006  52.0155017
  15.9519987  53.9885006  52.0155017  14.7549987  54.9155006  52.0155017
   5.8599987  49.8745006  51.7825017   6.8169987  49.8745006  51.7825017
   5.6199987  50.8015006  51.7825017  11.2629987  50.9615006  51.5495017
  12.2199987  50.9615006  51.5495017  11.0229987  51.8885006  51.5495017
   7.0469987  47.8805006  54.1555017   8.0039987  47.8805006  54.1555017
   6.8069987  48.8075006  54.1555017   8.1319987  46.1055006  52.3925017
   9.0889987  46.1055006  52.3925017   7.8919987  47.0325006  52.3925017
  17.4859987  48.4335006  51.8325017  18.4429987  48.4335006  51.8325017
  17.2459987  49.3605006  51.8325017   7.9789987  56.7995006  53.4425017
   8.9359987  56.7995006  53.4425017   7.7389987  57.7265006  53.4425017
   1.5889987  51.4045006  52.9195017   2.5459987  51.4045006  52.9195017
   1.3489987  52.3315006  52.9195017 108.1449987  56.8245006  57.9145017
 109.1019987  56.8245006  57.9145017 107.9049987  57.7515006  57.9145017
   1.3589987  55.0355006  59.8815017   2.3159987  55.0355006  59.8815017
   1.1189987  55.9625006  59.8815017  17.9759987  49.3525006  55.8015017
  18.9329987  49.3525006  55.8015017  17.7359987  50.2795006  55.8015017
  18.3689987  47.4155006  57.6475017  19.3259987  47.4155006  57.6475017
  18.1289987  48.3425006  57.6475017  18.6409987  47.2355006  54.0385017
  19.5979987  47.2355006  54.0385017  18.4009987  48.1625006  54.0385017
  16.9899987  44.4905006  52.5845017  17.9469987  44.4905006  52.5845017
  16.7499987  45.4175006  52.5845017  16.1609987  45.8945006  58.2145017
  17.1179987  45.8945006  58.2145017  15.9209987  46.8215006  58.2145017
  16.2409987  41.9515006  51.7495017  17.1979987  41.9515006  51.7495017
  16.0009987  42.8785006  51.7495017  15.8519987  43.4815006  56.6525017
  16.8089987  43.4815006  56.6525017  15.6119987  44.4085006  56.6525017
  18.3349987  40.8035006  53.2875017  19.2919987  40.8035006  53.2875017
  18.0949987  41.7305006  53.2875017   0.8999987  40.7745006  56.3885017
   1.8569987  40.7745006  56.3885017   0.6599987  41.7015006  56.3885017
  15.3889987  55.7635006  58.3445017  16.3459987  55.7635006  58.3445017
  15.1489987  56.6905006  58.3445017   3.7989987  39.0415006  57.9035017
   4.7559987  39.0415006  57.9035017   3.5589987  39.9685006  57.9035017
   1.9659987  38.8265006  54.4005017   2.9229987  38.8265006  54.4005017
   1.7259987  39.7535006  54.4005017  13.2829987  38.9615006  59.9685017
  14.2399987  38.9615006  59.9685017  13.0429987  39.8885006  59.9685017
  14.5559987  39.0315006  55.7095017  15.5129987  39.0315006  55.7095017
  14.3159987  39.9585006  55.7095017   1.9229987  54.7725006  55.2805017
   2.8799987  54.7725006  55.2805017   1.6829987  55.6995006  55.2805017
   3.7379987  40.7845006  52.7845017   4.6949987  40.7845006  52.7845017
   3.4979987  41.7115006  52.7845017   8.7329987  41.0195006  55.2045017
   9.6899987  41.0195006  55.2045017   8.4929987  41.9465006  55.2045017
  10.6729987  56.0545006  53.6615017  11.6299987  56.0545006  53.6615017
  10.4329987  56.9815006  53.6615017  17.3669987  55.5835006  56.3745017
  18.3239987  55.5835006  56.3745017  17.1269987  56.5105006  56.3745017
   3.5889987  55.7205006  52.2535017   4.5459987  55.7205006  52.2535017
   3.3489987  56.6475006  52.2535017  31.0389987  48.1975006  58.4945017
  31.9959987  48.1975006  58.4945017  30.7989987  49.1245006  58.4945017
  19.8239987  45.1325006  57.4685017  20.7809987  45.1325006  57.4685017
  19.5839987  46.0595006  57.4685017  30.8169987  50.7995006  57.5545017
  31.7739987  50.7995006  57.5545017  30.5769987  51.7265006  57.5545017
  20.5109987  50.6045006  55.8555017  21.4679987  50.6045006  55.8555017
  20.2709987  51.5315006  55.8555017  32.3729987  54.0355006  59.2145017
  33.3299987  54.0355006  59.2145017  32.1329987  54.9625006  59.2145017
  33.1389987  47.6375006  56.8555017  34.0959987  47.6375006  56.8555017
  32.8989987  48.5645006  56.8555017  24.8339987  48.3175006  58.7565017
  25.7909987  48.3175006  58.7565017  24.5939987  49.2445006  58.7565017
  29.7319987  53.5515006  58.0485017  30.6889987  53.5515006  58.0485017
  29.4919987  54.4785006  58.0485017  23.7519987  47.3565006  56.4205017
  24.7089987  47.3565006  56.4205017  23.5119987  48.2835006  56.4205017
  22.9139987  55.2945006  58.2225017  23.8709987  55.2945006  58.2225017
  22.6739987  56.2215006  58.2225017  32.3679987  55.6625006  53.4715017
  33.3249987  55.6625006  53.4715017  32.1279987  56.5895006  53.4715017
  30.3489987  45.1045006  57.0425017  31.3059987  45.1045006  57.0425017
  30.1089987  46.0315006  57.0425017  20.4519987  42.6225006  54.4525017
  21.4089987  42.6225006  54.4525017  20.2119987  43.5495006  54.4525017
  22.2549987  43.7365006  58.1565017  23.2119987  43.7365006  58.1565017
  22.0149987  44.6635006  58.1565017  25.8919987  43.7755006  55.7935017
  26.8489987  43.7755006  55.7935017  25.6519987  44.7025006  55.7935017
  24.5719987  44.9645006  53.4005017  25.5289987  44.9645006  53.4005017
  24.3319987  45.8915006  53.4005017  23.7029987  41.0775006  57.6115017
  24.6599987  41.0775006  57.6115017  23.4629987  42.0045006  57.6115017
  27.9199987  49.4775006  55.3275017  28.8769987  49.4775006  55.3275017
  27.6799987  50.4045006  55.3275017  32.4989987  44.2575006  55.2075017
  33.4559987  44.2575006  55.2075017  32.2589987  45.1845006  55.2075017
  35.6519987  53.2395006  55.3065017  36.6089987  53.2395006  55.3065017
  35.4119987  54.1665006  55.3065017  25.4069987  52.3615006  58.5555017
  26.3639987  52.3615006  58.5555017  25.1669987  53.2885006  58.5555017
  21.1699987  47.1765006  53.0215017  22.1269987  47.1765006  53.0215017
  20.9299987  48.1035006  53.0215017  26.8539987  49.9735006  58.0435017
  27.8109987  49.9735006  58.0435017  26.6139987  50.9005006  58.0435017
  25.5379987  55.0015006  57.6315017  26.4949987  55.0015006  57.6315017
  25.2979987  55.9285006  57.6315017  26.0479987  51.8555006  54.0665017
  27.0049987  51.8555006  54.0665017  25.8079987  52.7825006  54.0665017
  22.5709987  49.0955006  54.6155017  23.5279987  49.0955006  54.6155017
  22.3309987  50.0225006  54.6155017  28.9049987  53.6305006  54.8445017
  29.8619987  53.6305006  54.8445017  28.6649987  54.5575006  54.8445017
  28.3849987  43.1555006  56.7945017  29.3419987  43.1555006  56.7945017
  28.1449987  44.0825006  56.7945017  29.2529987  40.2125006  57.7065017
  30.2099987  40.2125006  57.7065017  29.0129987  41.1395006  57.7065017
  26.2429987  54.5945006  54.7815017  27.1999987  54.5945006  54.7815017
  26.0029987  55.5215006  54.7815017  24.8939987  41.2785006  54.3945017
  25.8509987  41.2785006  54.3945017  24.6539987  42.2055006  54.3945017
  21.5019987  44.3765006  52.5965017  22.4589987  44.3765006  52.5965017
  21.2619987  45.3035006  52.5965017  29.2209987  54.1595006  51.8105017
  30.1779987  54.1595006  51.8105017  28.9809987  55.0865006  51.8105017
  33.8209987  53.9565006  51.9645017  34.7779987  53.9565006  51.9645017
  33.5809987  54.8835006  51.9645017  20.4169987  51.4275006  52.9285017
  21.3739987  51.4275006  52.9285017  20.1769987  52.3545006  52.9285017
  34.9859987  45.8655006  58.1885017  35.9429987  45.8655006  58.1885017
  34.7459987  46.7925006  58.1885017  34.2659987  55.8655006  58.2615017
  35.2229987  55.8655006  58.2615017  34.0259987  56.7925006  58.2615017
  21.9719987  39.0495006  58.5165017  22.9289987  39.0495006  58.5165017
  21.7319987  39.9765006  58.5165017  20.7459987  38.8405006  54.3635017
  21.7029987  38.8405006  54.3635017  20.5059987  39.7675006  54.3635017
  26.5129987  38.9135006  58.3705017  27.4699987  38.9135006  58.3705017
  26.2729987  39.8405006  58.3705017  20.6629987  54.7445006  55.3035017
  21.6199987  54.7445006  55.3035017  20.4229987  55.6715006  55.3035017
  22.5989987  40.7165006  52.8325017  23.5559987  40.7165006  52.8325017
  22.3589987  41.6435006  52.8325017  27.5669987  41.0355006  55.2555017
  28.5239987  41.0355006  55.2555017  27.3269987  41.9625006  55.2555017
  43.7229987  48.3125006  58.7255017  44.6799987  48.3125006  58.7255017
  43.4829987  49.2395006  58.7255017  55.7399987  52.9495006  52.8795017
  56.6969987  52.9495006  52.8795017  55.4999987  53.8765006  52.8795017
  54.5299987  53.2015006  55.3325017  55.4869987  53.2015006  55.3325017
  54.2899987  54.1285006  55.3325017  41.3899987  49.1065006  54.5425017
  42.3469987  49.1065006  54.5425017  41.1499987  50.0335006  54.5425017
  52.6909987  53.9975006  51.9835017  53.6479987  53.9975006  51.9835017
  52.4509987  54.9245006  51.9835017  53.1059987  55.8215006  58.3005017
  54.0629987  55.8215006  58.3005017  52.8659987  56.7485006  58.3005017
  55.1339987  55.6055006  56.3455017  56.0909987  55.6055006  56.3455017
  54.8939987  56.5325006  56.3455017  64.1849987  46.3565006  59.7835017
  65.1419987  46.3565006  59.7835017  63.9449987  47.2835006  59.7835017
  74.6249987  52.9015006  52.8625017  75.5819987  52.9015006  52.8625017
  74.3849987  53.8285006  52.8625017  69.7279987  55.5635006  56.1845017
  70.6849987  55.5635006  56.1845017  69.4879987  56.4905006  56.1845017
  71.2309987  47.9825006  52.2115017  72.1879987  47.9825006  52.2115017
  70.9909987  48.9095006  52.2115017  59.9549987  43.7585006  58.1305017
  60.9119987  43.7585006  58.1305017  59.7149987  44.6855006  58.1305017
  75.3269987  55.6405006  53.4445017  76.2839987  55.6405006  53.4445017
  75.0869987  56.5675006  53.4445017  74.0399987  48.4755006  51.8395017
  74.9969987  48.4755006  51.8395017  73.7999987  49.4025006  51.8395017
  74.5509987  49.4045006  55.8345017  75.5079987  49.4045006  55.8345017
  74.3109987  50.3315006  55.8345017  74.8899987  47.4785006  57.6805017
  75.8469987  47.4785006  57.6805017  74.6499987  48.4055006  57.6805017
  75.2859987  47.3285006  54.0435017  76.2429987  47.3285006  54.0435017
  75.0459987  48.2555006  54.0435017  73.9799987  55.5325006  56.3075017
  74.9369987  55.5325006  56.3075017  73.7399987  56.4595006  56.3075017
  76.4109987  45.1435006  57.4945017  77.3679987  45.1435006  57.4945017
  76.1709987  46.0705006  57.4945017  81.2189987  42.3675006  59.9095017
  82.1759987  42.3675006  59.9095017  80.9789987  43.2945006  59.9095017
  88.9119987  42.4795006  58.2845017  89.8689987  42.4795006  58.2845017
  88.6719987  43.4065006  58.2845017  87.3129987  50.8095006  57.5505017
  88.2699987  50.8095006  57.5505017  87.0729987  51.7365006  57.5505017
  90.6329987  41.8595006  60.3545017  91.5899987  41.8595006  60.3545017
  90.3929987  42.7865006  60.3545017  88.9079987  54.0535006  59.1715017
  89.8649987  54.0535006  59.1715017  88.6679987  54.9805006  59.1715017
  90.1359987  51.9425006  57.7105017  91.0929987  51.9425006  57.7105017
  89.8959987  52.8695006  57.7105017  86.2679987  47.4115006  55.9505017
  87.2249987  47.4115006  55.9505017  86.0279987  48.3385006  55.9505017
  86.3599987  45.9545006  52.9605017  87.3169987  45.9545006  52.9605017
  86.1199987  46.8815006  52.9605017  89.7179987  47.6545006  56.8845017
  90.6749987  47.6545006  56.8845017  89.4779987  48.5815006  56.8845017
  88.6059987  46.8315006  54.5555017  89.5629987  46.8315006  54.5555017
  88.3659987  47.7585006  54.5555017  86.2629987  53.5315006  58.0755017
  87.2199987  53.5315006  58.0755017  86.0229987  54.4585006  58.0755017
  92.3099987  38.5595006  54.3885017  93.2669987  38.5595006  54.3885017
  92.0699987  39.4865006  54.3885017  93.4419987  52.9165006  52.7995017
  94.3989987  52.9165006  52.7995017  93.2019987  53.8435006  52.7995017
  85.7739987  56.5025006  56.4455017  86.7309987  56.5025006  56.4455017
  85.5339987  57.4295006  56.4455017  79.4699987  55.3235006  58.2525017
  80.4269987  55.3235006  58.2525017  79.2299987  56.2505006  58.2525017
  88.8569987  55.6705006  53.4015017  89.8139987  55.6705006  53.4015017
  88.6169987  56.5975006  53.4015017  88.5469987  55.6035006  56.1495017
  89.5039987  55.6035006  56.1495017  88.3069987  56.5305006  56.1495017
  90.0569987  47.8735006  52.3015017  91.0139987  47.8735006  52.3015017
  89.8169987  48.8005006  52.3015017  85.6859987  41.7445006  52.8415017
  86.6429987  41.7445006  52.8415017  85.4459987  42.6715006  52.8415017
  81.4449987  44.6435006  58.2775017  82.4019987  44.6435006  58.2775017
  81.2049987  45.5705006  58.2775017  86.9539987  45.1285006  57.0795017
  87.9109987  45.1285006  57.0795017  86.7139987  46.0555006  57.0795017
  87.9799987  44.5755006  59.9075017  88.9369987  44.5755006  59.9075017
  87.7399987  45.5025006  59.9075017  82.5139987  42.1535006  51.9775017
  83.4709987  42.1535006  51.9775017  82.2739987  43.0805006  51.9775017
  77.0669987  42.6635006  54.5105017  78.0239987  42.6635006  54.5105017
  76.8269987  43.5905006  54.5105017  78.8449987  43.7425006  58.1465017
  79.8019987  43.7425006  58.1465017  78.6049987  44.6695006  58.1465017
  82.4689987  43.7295006  55.7765017  83.4259987  43.7295006  55.7765017
  82.2289987  44.6565006  55.7765017  81.1669987  44.8845006  53.3875017
  82.1239987  44.8845006  53.3875017  80.9269987  45.8115006  53.3875017
  80.3009987  41.0395006  57.6425017  81.2579987  41.0395006  57.6425017
  80.0609987  41.9665006  57.6425017  84.4869987  49.5015006  55.3075017
  85.4439987  49.5015006  55.3075017  84.2469987  50.4285006  55.3075017
  88.3349987  42.3205006  53.4585017  89.2919987  42.3205006  53.4585017
  88.0949987  43.2475006  53.4585017  89.0639987  44.2115006  55.1365017
  90.0209987  44.2115006  55.1365017  88.8239987  45.1385006  55.1365017
  86.6239987  50.9675006  54.3455017  87.5809987  50.9675006  54.3455017
  86.3839987  51.8945006  54.3455017  93.9739987  44.3795006  54.8735017
  94.9309987  44.3795006  54.8735017  93.7339987  45.3065006  54.8735017
  92.2209987  53.2055006  55.2915017  93.1779987  53.2055006  55.2915017
  91.9809987  54.1325006  55.2915017  77.7499987  47.1925006  53.0925017
  78.7069987  47.1925006  53.0925017  77.5099987  48.1195006  53.0925017
  82.1089987  55.0385006  57.5855017  83.0659987  55.0385006  57.5855017
  81.8689987  55.9655006  57.5855017  89.6919987  51.2305006  53.1305017
  90.6489987  51.2305006  53.1305017  89.4519987  52.1575006  53.1305017
  94.1879987  55.6105006  53.4075017  95.1449987  55.6105006  53.4075017
  93.9479987  56.5375006  53.4075017  90.4999987  49.8805006  55.3305017
  91.4569987  49.8805006  55.3305017  90.2599987  50.8075006  55.3305017
  82.6299987  51.8725006  54.0275017  83.5869987  51.8725006  54.0275017
  82.3899987  52.7995006  54.0275017  87.7369987  41.3625006  55.9455017
  88.6939987  41.3625006  55.9455017  87.4969987  42.2895006  55.9455017
  85.4239987  53.5185006  54.7905017  86.3809987  53.5185006  54.7905017
  85.1839987  54.4455006  54.7905017  84.9629987  43.1195006  56.7845017
  85.9199987  43.1195006  56.7845017  84.7229987  44.0465006  56.7845017
  82.8009987  54.5815006  54.7775017  83.7579987  54.5815006  54.7775017
  82.5609987  55.5085006  54.7775017  81.4739987  41.2755006  54.4065017
  82.4309987  41.2755006  54.4065017  81.2339987  42.2025006  54.4065017
  78.0449987  44.3615006  52.6245017  79.0019987  44.3615006  52.6245017
  77.8049987  45.2885006  52.6245017  77.8069987  53.0915006  57.3845017
  78.7639987  53.0915006  57.3845017  77.5669987  54.0185006  57.3845017
  90.3709987  53.9255006  51.9325017  91.3279987  53.9255006  51.9325017
  90.1309987  54.8525006  51.9325017  82.5099987  47.8765006  54.1845017
  83.4669987  47.8765006  54.1845017  82.2699987  48.8035006  54.1845017
  83.5589987  46.0465006  52.4065017  84.5159987  46.0465006  52.4065017
  83.3189987  46.9735006  52.4065017  92.9149987  48.4315006  51.8225017
  93.8719987  48.4315006  51.8225017  92.6749987  49.3585006  51.8225017
  75.7729987  56.7795006  57.8735017  76.7299987  56.7795006  57.8735017
  75.5329987  57.7065006  57.8735017  76.5499987  54.8785006  59.7285017
  77.5069987  54.8785006  59.7285017  76.3099987  55.8055006  59.7285017
  93.4199987  49.3525006  55.7825017  94.3769987  49.3525006  55.7825017
  93.1799987  50.2795006  55.7825017  93.7769987  47.4445006  57.6675017
  94.7339987  47.4445006  57.6675017  93.5369987  48.3715006  57.6675017
  94.0869987  47.2495006  54.0445017  95.0439987  47.2495006  54.0445017
  93.8469987  48.1765006  54.0445017  92.4369987  44.4935006  52.5595017
  93.3939987  44.4935006  52.5595017  92.1969987  45.4205006  52.5595017
  91.6389987  45.8945006  58.2425017  92.5959987  45.8945006  58.2425017
  91.3989987  46.8215006  58.2425017  91.6829987  41.9425006  51.6875017
  92.6399987  41.9425006  51.6875017  91.4429987  42.8695006  51.6875017
  91.2749987  43.5015006  56.6315017  92.2319987  43.5015006  56.6315017
  91.0349987  44.4285006  56.6315017  91.8969987  40.7805006  56.7335017
  92.8539987  40.7805006  56.7335017  91.6569987  41.7075006  56.7335017
  93.7539987  40.8175006  53.2515017  94.7109987  40.8175006  53.2515017
  93.5139987  41.7445006  53.2515017  90.8149987  55.7695006  58.3165017
  91.7719987  55.7695006  58.3165017  90.5749987  56.6965006  58.3165017
  89.9959987  39.0345006  55.6885017  90.9529987  39.0345006  55.6885017
  89.7559987  39.9615006  55.6885017  77.2429987  54.7715006  55.2675017
  78.1999987  54.7715006  55.2675017  77.0029987  55.6985006  55.2675017
  79.2069987  40.7915006  52.7415017  80.1639987  40.7915006  52.7415017
  78.9669987  41.7185006  52.7415017  84.2039987  41.0115006  55.2215017
  85.1609987  41.0115006  55.2215017  83.9639987  41.9385006  55.2215017
  86.1039987  55.9825006  53.7215017  87.0609987  55.9825006  53.7215017
  85.8639987  56.9095006  53.7215017  92.8159987  55.5815006  56.3485017
  93.7729987  55.5815006  56.3485017  92.5759987  56.5085006  56.3485017
  78.9899987  55.6275006  52.2815017  79.9469987  55.6275006  52.2815017
  78.7499987  56.5545006  52.2815017 105.9879987  48.1215006  58.5715017
 106.9449987  48.1215006  58.5715017 105.7479987  49.0485006  58.5715017
  95.2499987  45.1775006  57.4765017  96.2069987  45.1775006  57.4765017
  95.0099987  46.1045006  57.4765017 107.7979987  43.1545006  57.5545017
 108.7549987  43.1545006  57.5545017 107.5579987  44.0815006  57.5545017
 106.1839987  50.7915006  57.5695017 107.1409987  50.7915006  57.5695017
 105.9439987  51.7185006  57.5695017  95.9769987  50.5915006  55.8495017
  96.9339987  50.5915006  55.8495017  95.7369987  51.5185006  55.8495017
 107.4179987  53.8025006  58.7235017 108.3749987  53.8025006  58.7235017
 107.1779987  54.7295006  58.7235017 105.1459987  47.4565006  55.9775017
 106.1029987  47.4565006  55.9775017 104.9059987  48.3835006  55.9775017
 105.1869987  45.9565006  52.9655017 106.1439987  45.9565006  52.9655017
 104.9469987  46.8835006  52.9655017 107.4389987  46.8275006  54.5805017
 108.3959987  46.8275006  54.5805017 107.1989987  47.7545006  54.5805017
  99.1849987  47.3375006  56.4035017 100.1419987  47.3375006  56.4035017
  98.9449987  48.2645006  56.4035017 104.6699987  56.4875006  56.4375017
 105.6269987  56.4875006  56.4375017 104.4299987  57.4145006  56.4375017
  98.3249987  55.3325006  58.2255017  99.2819987  55.3325006  58.2255017
  98.0849987  56.2595006  58.2255017 107.7209987  55.6615006  53.3865017
 108.6779987  55.6615006  53.3865017 107.4809987  56.5885006  53.3865017
 107.2419987  55.4545006  56.0285017 108.1989987  55.4545006  56.0285017
 107.0019987  56.3815006  56.0285017 104.5089987  41.7785006  52.8745017
 105.4659987  41.7785006  52.8745017 104.2689987  42.7055006  52.8745017
 105.7889987  45.1665006  57.1205017 106.7459987  45.1665006  57.1205017
 105.5489987  46.0935006  57.1205017 106.8129987  44.6035006  59.8995017
 107.7699987  44.6035006  59.8995017 106.5729987  45.5305006  59.8995017
 101.3509987  42.1705006  51.9915017 102.3079987  42.1705006  51.9915017
 101.1109987  43.0975006  51.9915017  95.8739987  42.6005006  54.4105017
  96.8309987  42.6005006  54.4105017  95.6339987  43.5275006  54.4105017
 102.8469987  42.1415006  59.3085017 103.8039987  42.1415006  59.3085017
 102.6069987  43.0685006  59.3085017  97.7079987  43.7865006  58.1175017
  98.6649987  43.7865006  58.1175017  97.4679987  44.7135006  58.1175017
  99.9999987  44.9485006  53.4055017 100.9569987  44.9485006  53.4055017
  99.7599987  45.8755006  53.4055017  99.1829987  41.0305006  57.6815017
 100.1399987  41.0305006  57.6815017  98.9429987  41.9575006  57.6815017
 103.3759987  49.5085006  55.3355017 104.3329987  49.5085006  55.3355017
 103.1359987  50.4355006  55.3355017 107.1629987  42.3415006  53.4755017
 108.1199987  42.3415006  53.4755017 106.9229987  43.2685006  53.4755017
   0.1179987  44.3225006  55.1735017   1.0749987  44.3225006  55.1735017
  -0.1220013  45.2495006  55.1735017 105.4609987  50.9475006  54.3525017
 106.4179987  50.9475006  54.3525017 105.2209987  51.8745006  54.3525017
 100.8759987  52.3225006  58.5095017 101.8329987  52.3225006  58.5095017
 100.6359987  53.2495006  58.5095017  96.5899987  47.1975006  53.0445017
  97.5469987  47.1975006  53.0445017  96.3499987  48.1245006  53.0445017
 100.9389987  55.0305006  57.5455017 101.8959987  55.0305006  57.5455017
 100.6989987  55.9575006  57.5455017 102.6639987  52.3335006  51.6045017
 103.6209987  52.3335006  51.6045017 102.4239987  53.2605006  51.6045017
 101.5459987  51.8655006  54.0545017 102.5029987  51.8655006  54.0545017
 101.3059987  52.7925006  54.0545017  98.0019987  49.1065006  54.5785017
  98.9589987  49.1065006  54.5785017  97.7619987  50.0335006  54.5785017
 106.3269987  41.5705006  55.9405017 107.2839987  41.5705006  55.9405017
 106.0869987  42.4975006  55.9405017 104.2779987  53.5245006  54.8235017
 105.2349987  53.5245006  54.8235017 104.0379987  54.4515006  54.8235017
 104.7019987  40.2175006  57.6935017 105.6589987  40.2175006  57.6935017
 104.4619987  41.1445006  57.6935017 101.6479987  54.5495006  54.7965017
 102.6049987  54.5495006  54.7965017 101.4079987  55.4765006  54.7965017
 100.3249987  41.2825006  54.4175017 101.2819987  41.2825006  54.4175017
 100.0849987  42.2095006  54.4175017  98.5669987  51.7125006  53.4445017
  99.5239987  51.7125006  53.4445017  98.3269987  52.6395006  53.4445017
  96.9149987  44.3975006  52.5775017  97.8719987  44.3975006  52.5775017
  96.6749987  45.3245006  52.5775017 104.7059987  54.1705006  51.7455017
 105.6629987  54.1705006  51.7455017 104.4659987  55.0975006  51.7455017
 100.1429987  49.8715006  51.7855017 101.0999987  49.8715006  51.7855017
  99.9029987  50.7985006  51.7855017 105.5959987  50.9535006  51.5525017
 106.5529987  50.9535006  51.5525017 105.3559987  51.8805006  51.5525017
 101.3599987  47.8805006  54.1865017 102.3169987  47.8805006  54.1865017
 101.1199987  48.8075006  54.1865017 102.4159987  46.0995006  52.3935017
 103.3729987  46.0995006  52.3935017 102.1759987  47.0265006  52.3935017
 102.2659987  56.7885006  53.4255017 103.2229987  56.7885006  53.4255017
 102.0259987  57.7155006  53.4255017  95.8149987  51.4095006  52.9125017
  96.7719987  51.4095006  52.9125017  95.5749987  52.3365006  52.9125017
  94.9429987  40.7695006  56.3105017  95.8999987  40.7695006  56.3105017
  94.7029987  41.6965006  56.3105017  96.1849987  38.8295006  54.3345017
  97.1419987  38.8295006  54.3345017  95.9449987  39.7565006  54.3345017
  96.1019987  54.7535006  55.2655017  97.0589987  54.7535006  55.2655017
  95.8619987  55.6805006  55.2655017  98.0279987  40.7735006  52.7975017
  98.9849987  40.7735006  52.7975017  97.7879987  41.7005006  52.7975017
 103.0299987  41.0325006  55.2525017 103.9869987  41.0325006  55.2525017
 102.7899987  41.9595006  55.2525017 104.9369987  56.0455006  53.6485017
 105.8939987  56.0455006  53.6485017 104.6969987  56.9725006  53.6485017
  97.9209987  55.7665006  52.2795017  98.8779987  55.7665006  52.2795017
  97.6809987  56.6935006  52.2795017  14.8349987  69.2295006  60.2105017
  15.7919987  69.2295006  60.2105017  14.5949987  70.1565006  60.2105017
   1.0639987  64.0485006  57.4245017   2.0209987  64.0485006  57.4245017
   0.8239987  64.9755006  57.4245017   5.7939987  61.2225006  59.9205017
   6.7509987  61.2225006  59.9205017   5.5539987  62.1495006  59.9205017
  11.9459987  69.6595006  57.5495017  12.9029987  69.6595006  57.5495017
  11.7059987  70.5865006  57.5495017   1.6809987  69.4705006  55.8265017
   2.6379987  69.4705006  55.8265017   1.4409987  70.3975006  55.8265017
  13.5229987  72.8795006  59.1495017  14.4799987  72.8795006  59.1495017
  13.2829987  73.8065006  59.1495017  14.7559987  70.7985006  57.7165017
  15.7129987  70.7985006  57.7165017  14.5159987  71.7255006  57.7165017
  10.8849987  66.3065006  55.9795017  11.8419987  66.3065006  55.9795017
  10.6449987  67.2335006  55.9795017  10.9399987  64.8315006  52.9425017
  11.8969987  64.8315006  52.9425017  10.6999987  65.7585006  52.9425017
  13.1859987  65.7135006  54.5605017  14.1429987  65.7135006  54.5605017
  12.9459987  66.6405006  54.5605017  10.8589987  72.3855006  58.0315017
  11.8159987  72.3855006  58.0315017  10.6189987  73.3125006  58.0315017
  16.8979987  57.4205006  54.3975017  17.8549987  57.4205006  54.3975017
  16.6579987  58.3475006  54.3975017   4.9539987  66.2065006  56.3395017
   5.9109987  66.2065006  56.3395017   4.7139987  67.1335006  56.3395017
  18.0269987  71.7795006  52.7825017  18.9839987  71.7795006  52.7825017
  17.7869987  72.7065006  52.7825017  10.3789987  75.3425006  56.4395017
  11.3359987  75.3425006  56.4395017  10.1389987  76.2695006  56.4395017
  13.4429987  74.5495006  53.4125017  14.3999987  74.5495006  53.4125017
  13.2029987  75.4765006  53.4125017  13.1529987  74.4585006  56.1755017
  14.1099987  74.4585006  56.1755017  12.9129987  75.3855006  56.1755017
  14.6419987  66.7245006  52.3005017  15.5989987  66.7245006  52.3005017
  14.4019987  67.6515006  52.3005017  10.2329987  60.6345006  52.8555017
  11.1899987  60.6345006  52.8555017   9.9929987  61.5615006  52.8555017
   5.9889987  63.4965006  58.1775017   6.9459987  63.4965006  58.1775017
   5.7489987  64.4235006  58.1775017   7.0809987  61.0235006  51.9655017
   8.0379987  61.0235006  51.9655017   6.8409987  61.9505006  51.9655017
   0.5829987  60.0475006  59.4765017   1.5399987  60.0475006  59.4765017
   0.3429987  60.9745006  59.4765017   1.8059987  61.4545006  54.5575017
   2.7629987  61.4545006  54.5575017   1.5659987  62.3815006  54.5575017
   3.4109987  62.5565006  58.1315017   4.3679987  62.5565006  58.1315017
   3.1709987  63.4835006  58.1315017   7.0259987  62.6015006  55.7905017
   7.9829987  62.6015006  55.7905017   6.7859987  63.5285006  55.7905017
   5.7059987  63.8085006  53.3905017   6.6629987  63.8085006  53.3905017
   5.4659987  64.7355006  53.3905017   9.0609987  68.3905006  55.3105017
  10.0179987  68.3905006  55.3105017   8.8209987  69.3175006  55.3105017
  12.9099987  61.1685006  53.5055017  13.8669987  61.1685006  53.5055017
  12.6699987  62.0955006  53.5055017  13.6579987  63.0575006  55.1055017
  14.6149987  63.0575006  55.1055017  13.4179987  63.9845006  55.1055017
  11.1869987  69.8305006  54.3255017  12.1439987  69.8305006  54.3255017
  10.9469987  70.7575006  54.3255017  18.5439987  63.2495006  54.8925017
  19.5009987  63.2495006  54.8925017  18.3039987  64.1765006  54.8925017
  16.8279987  72.0555006  55.3025017  17.7849987  72.0555006  55.3025017
  16.5879987  72.9825006  55.3025017   2.2839987  66.0455006  53.0685017
   3.2409987  66.0455006  53.0685017   2.0439987  66.9725006  53.0685017
   7.9459987  68.8615006  58.0425017   8.9029987  68.8615006  58.0425017
   7.7059987  69.7885006  58.0425017  14.2649987  70.0995006  53.1355017
  15.2219987  70.0995006  53.1355017  14.0249987  71.0265006  53.1355017
  18.7289987  74.4795006  53.3615017  19.6859987  74.4795006  53.3615017
  18.4889987  75.4065006  53.3615017  15.0719987  68.7445006  55.3735017
  16.0289987  68.7445006  55.3735017  14.8319987  69.6715006  55.3735017
   8.4119987  71.1445006  51.6005017   9.3689987  71.1445006  51.6005017
   8.1719987  72.0715006  51.6005017   7.3429987  70.5355006  54.2625017
   8.2999987  70.5355006  54.2625017   7.1029987  71.4625006  54.2625017
   3.6859987  67.9515006  54.5465017   4.6429987  67.9515006  54.5465017
   3.4459987  68.8785006  54.5465017  12.3079987  60.2385006  55.9745017
  13.2649987  60.2385006  55.9745017  12.0679987  61.1655006  55.9745017
   9.9649987  72.3745006  54.7625017  10.9219987  72.3745006  54.7625017
   9.7249987  73.3015006  54.7625017   9.5209987  61.9905006  56.7825017
  10.4779987  61.9905006  56.7825017   9.2809987  62.9175006  56.7825017
  10.3659987  59.0625006  57.6835017  11.3229987  59.0625006  57.6835017
  10.1259987  59.9895006  57.6835017   7.3619987  73.4385006  54.8235017
   8.3189987  73.4385006  54.8235017   7.1219987  74.3655006  54.8235017
   6.0479987  60.1425006  54.3965017   7.0049987  60.1425006  54.3965017
   5.8079987  61.0695006  54.3965017   4.2959987  70.5995006  53.4285017
   5.2529987  70.5995006  53.4285017   4.0559987  71.5265006  53.4285017
   2.5869987  63.2635006  52.6045017   3.5439987  63.2635006  52.6045017
   2.3469987  64.1905006  52.6045017   2.3759987  71.9505006  57.4435017
   3.3329987  71.9505006  57.4435017   2.1359987  72.8775006  57.4435017
  10.3829987  73.0395006  51.7495017  11.3399987  73.0395006  51.7495017
  10.1429987  73.9665006  51.7495017  14.9669987  72.7985006  51.9505017
  15.9239987  72.7985006  51.9505017  14.7269987  73.7255006  51.9505017
   5.8929987  68.7745006  51.8145017   6.8499987  68.7745006  51.8145017
   5.6529987  69.7015006  51.8145017  11.2549987  69.8335006  51.5395017
  12.2119987  69.8335006  51.5395017  11.0149987  70.7605006  51.5395017
   7.0539987  66.7575006  54.1555017   8.0109987  66.7575006  54.1555017
   6.8139987  67.6845006  54.1555017   8.1349987  64.9355006  52.3885017
   9.0919987  64.9355006  52.3885017   7.8949987  65.8625006  52.3885017
  17.4929987  67.2925006  51.8205017  18.4499987  67.2925006  51.8205017
  17.2529987  68.2195006  51.8205017   7.9749987  75.6175006  53.4435017
   8.9319987  75.6175006  53.4435017   7.7349987  76.5445006  53.4435017
   1.6009987  70.2925006  52.9075017   2.5579987  70.2925006  52.9075017
   1.3609987  71.2195006  52.9075017 108.0829987  75.6065006  57.8135017
 109.0399987  75.6065006  57.8135017 107.8429987  76.5335006  57.8135017
   1.3939987  74.0345006  59.7735017   2.3509987  74.0345006  59.7735017
   1.1539987  74.9615006  59.7735017  17.9869987  68.2015006  55.7945017
  18.9439987  68.2015006  55.7945017  17.7469987  69.1285006  55.7945017
  18.3539987  66.2275006  57.6595017  19.3109987  66.2275006  57.6595017
  18.1139987  67.1545006  57.6595017  18.6469987  66.1015006  54.0565017
  19.6039987  66.1015006  54.0565017  18.4069987  67.0285006  54.0565017
  17.0259987  63.3475006  52.5645017  17.9829987  63.3475006  52.5645017
  16.7859987  64.2745006  52.5645017  16.2669987  60.8095006  51.6935017
  17.2239987  60.8095006  51.6935017  16.0269987  61.7365006  51.6935017
  15.8719987  62.3815006  56.6265017  16.8289987  62.3815006  56.6265017
  15.6319987  63.3085006  56.6265017  16.5239987  59.6035006  56.7155017
  17.4809987  59.6035006  56.7155017  16.2839987  60.5305006  56.7155017
  18.3419987  59.6665006  53.2785017  19.2989987  59.6665006  53.2785017
  18.1019987  60.5935006  53.2785017   0.9029987  59.6475006  56.4195017
   1.8599987  59.6475006  56.4195017   0.6629987  60.5745006  56.4195017
   1.9629987  57.6785006  54.3825017   2.9199987  57.6785006  54.3825017
   1.7229987  58.6055006  54.3825017  14.5829987  57.9015006  55.6775017
  15.5399987  57.9015006  55.6775017  14.3429987  58.8285006  55.6775017
   1.8469987  73.6455006  55.3295017   2.8039987  73.6455006  55.3295017
   1.6069987  74.5725006  55.3295017   3.7359987  59.6275006  52.7985017
   4.6929987  59.6275006  52.7985017   3.4959987  60.5545006  52.7985017
   8.7739987  59.8815006  55.2385017   9.7309987  59.8815006  55.2385017
   8.5339987  60.8085006  55.2385017  10.6599987  74.8895006  53.6755017
  11.6169987  74.8895006  53.6755017  10.4199987  75.8165006  53.6755017
  17.4329987  74.4335006  56.3655017  18.3899987  74.4335006  56.3655017
  17.1929987  75.3605006  56.3655017   3.5699987  74.5555006  52.2495017
   4.5269987  74.5555006  52.2495017   3.3299987  75.4825006  52.2495017
  19.8339987  63.9975006  57.5035017  20.7909987  63.9975006  57.5035017
  19.5939987  64.9245006  57.5035017  24.6609987  61.2665006  59.9285017
  25.6179987  61.2665006  59.9285017  24.4209987  62.1935006  59.9285017
  26.4029987  65.1955006  59.9295017  27.3599987  65.1955006  59.9295017
  26.1629987  66.1225006  59.9295017  20.5369987  69.4485006  55.8615017
  21.4939987  69.4485006  55.8615017  20.2969987  70.3755006  55.8615017
  29.6979987  66.2115006  55.9025017  30.6549987  66.2115006  55.9025017
  29.4579987  67.1385006  55.9025017  29.7999987  64.8235006  52.9445017
  30.7569987  64.8235006  52.9445017  29.5599987  65.7505006  52.9445017
  23.7419987  66.1915006  56.3955017  24.6989987  66.1915006  56.3955017
  23.5019987  67.1185006  56.3955017  29.1759987  75.3345006  56.4235017
  30.1329987  75.3345006  56.4235017  28.9359987  76.2615006  56.4235017
  33.4339987  66.7925006  52.2195017  34.3909987  66.7925006  52.2195017
  33.1939987  67.7195006  52.2195017  24.8329987  63.5115006  58.2745017
  25.7899987  63.5115006  58.2745017  24.5929987  64.4385006  58.2745017
  30.3629987  63.9345006  57.0465017  31.3199987  63.9345006  57.0465017
  30.1229987  64.8615006  57.0465017  31.4059987  63.4385006  59.8815017
  32.3629987  63.4385006  59.8815017  31.1659987  64.3655006  59.8815017
  25.8939987  60.9965006  51.9955017  26.8509987  60.9965006  51.9955017
  25.6539987  61.9235006  51.9955017  20.4659987  61.4685006  54.4715017
  21.4229987  61.4685006  54.4715017  20.2259987  62.3955006  54.4715017
  27.4219987  60.9855006  59.2985017  28.3789987  60.9855006  59.2985017
  27.1819987  61.9125006  59.2985017  25.8589987  62.6685006  55.8435017
  26.8159987  62.6685006  55.8435017  25.6189987  63.5955006  55.8435017
  24.5549987  63.8445006  53.4005017  25.5119987  63.8445006  53.4005017
  24.3149987  64.7715006  53.4005017  23.7529987  59.9055006  57.6365017
  24.7099987  59.9055006  57.6365017  23.5129987  60.8325006  57.6365017
  27.9339987  68.3245006  55.3325017  28.8909987  68.3245006  55.3325017
  27.6939987  69.2515006  55.3325017  31.7559987  61.1925006  53.6145017
  32.7129987  61.1925006  53.6145017  31.5159987  62.1195006  53.6145017
  21.1689987  66.0495006  53.0525017  22.1259987  66.0495006  53.0525017
  20.9289987  66.9765006  53.0525017  26.7979987  68.8615006  57.9805017
  27.7549987  68.8615006  57.9805017  26.5579987  69.7885006  57.9805017
  27.1329987  71.1825006  51.5585017  28.0899987  71.1825006  51.5585017
  26.8929987  72.1095006  51.5585017  26.0679987  70.7285006  54.0805017
  27.0249987  70.7285006  54.0805017  25.8279987  71.6555006  54.0805017
  22.5849987  67.9645006  54.5825017  23.5419987  67.9645006  54.5825017
  22.3449987  68.8915006  54.5825017  31.1899987  60.2475006  55.9955017
  32.1469987  60.2475006  55.9955017  30.9499987  61.1745006  55.9955017
  28.4219987  61.9705006  56.7825017  29.3789987  61.9705006  56.7825017
  28.1819987  62.8975006  56.7825017  29.2649987  59.0545006  57.6855017
  30.2219987  59.0545006  57.6855017  29.0249987  59.9815006  57.6855017
  26.1739987  73.4315006  54.7945017  27.1309987  73.4315006  54.7945017
  25.9339987  74.3585006  54.7945017  24.8679987  60.1225006  54.4355017
  25.8249987  60.1225006  54.4355017  24.6279987  61.0495006  54.4355017
  23.1419987  70.5795006  53.4505017  24.0989987  70.5795006  53.4505017
  22.9019987  71.5065006  53.4505017  21.4859987  63.2495006  52.5775017
  22.4429987  63.2495006  52.5775017  21.2459987  64.1765006  52.5775017
  21.2269987  71.9585006  57.4475017  22.1839987  71.9585006  57.4475017
  20.9869987  72.8855006  57.4475017  24.7119987  68.7255006  51.7815017
  25.6689987  68.7255006  51.7815017  24.4719987  69.6525006  51.7815017
  25.8909987  66.7355006  54.1535017  26.8479987  66.7355006  54.1535017
  25.6509987  67.6625006  54.1535017  26.9799987  65.0125006  52.3945017
  27.9369987  65.0125006  52.3945017  26.7399987  65.9395006  52.3945017
  26.8369987  75.6755006  53.4705017  27.7939987  75.6755006  53.4705017
  26.5969987  76.6025006  53.4705017  20.3999987  70.2605006  52.9235017
  21.3569987  70.2605006  52.9235017  20.1599987  71.1875006  52.9235017
  19.1669987  75.6355006  57.9355017  20.1239987  75.6355006  57.9355017
  18.9269987  76.5625006  57.9355017  35.1129987  60.7435006  51.6775017
  36.0699987  60.7435006  51.6775017  34.8729987  61.6705006  51.6775017
  37.2089987  59.6415006  53.2895017  38.1659987  59.6415006  53.2895017
  36.9689987  60.5685006  53.2895017  20.7589987  57.6775006  54.3195017
  21.7159987  57.6775006  54.3195017  20.5189987  58.6045006  54.3195017
  26.5139987  57.7525006  58.3675017  27.4709987  57.7525006  58.3675017
  26.2739987  58.6795006  58.3675017  32.1439987  57.8415006  60.0065017
  33.1009987  57.8415006  60.0065017  31.9039987  58.7685006  60.0065017
  33.4259987  57.8735006  55.7675017  34.3829987  57.8735006  55.7675017
  33.1859987  58.8005006  55.7675017  20.6799987  73.6285006  55.2805017
  21.6369987  73.6285006  55.2805017  20.4399987  74.5555006  55.2805017
  22.6019987  59.5875006  52.7805017  23.5589987  59.5875006  52.7805017
  22.3619987  60.5145006  52.7805017  27.6379987  59.8695006  55.2445017
  28.5949987  59.8695006  55.2445017  27.3979987  60.7965006  55.2445017
  22.4679987  74.5945006  52.2575017  23.4249987  74.5945006  52.2575017
  22.2279987  75.5215006  52.2575017  52.6339987  70.7545006  57.6575017
  53.5909987  70.7545006  57.6575017  52.3939987  71.6815006  57.6575017
  48.0679987  75.3365006  56.4535017  49.0249987  75.3365006  56.4535017
  47.8279987  76.2635006  56.4535017  50.8519987  74.4695006  56.1825017
  51.8089987  74.4695006  56.1825017  50.6119987  75.3965006  56.1825017
  44.7309987  62.6605006  55.8815017  45.6879987  62.6605006  55.8815017
  44.4909987  63.5875006  55.8815017  44.3529987  73.8525006  57.6225017
  45.3099987  73.8525006  57.6225017  44.1129987  74.7795006  57.6225017
  56.5059987  74.5065006  53.4655017  57.4629987  74.5065006  53.4655017
  56.2659987  75.4335006  53.4655017  52.8159987  68.7865006  55.5155017
  53.7729987  68.7865006  55.5155017  52.5759987  69.7135006  55.5155017
  52.7989987  72.9105006  52.0755017  53.7559987  72.9105006  52.0755017
  52.5589987  73.8375006  52.0755017  53.1299987  74.6535006  58.2985017
  54.0869987  74.6535006  58.2985017  52.8899987  75.5805006  58.2985017
  50.9709987  57.8855006  60.0175017  51.9279987  57.8855006  60.0175017
  50.7309987  58.8125006  60.0175017  62.5139987  63.5585006  58.2405017
  63.4709987  63.5585006  58.2405017  62.2739987  64.4855006  58.2405017
  75.2149987  63.2315006  54.8375017  76.1719987  63.2315006  54.8375017
  74.9749987  64.1585006  54.8375017  56.8789987  75.6595006  57.8795017
  57.8359987  75.6595006  57.8795017  56.6389987  76.5865006  57.8795017
  57.7279987  73.7345006  59.7455017  58.6849987  73.7345006  59.7455017
  57.4879987  74.6615006  59.7455017  58.2759987  73.6745006  55.3765017
  59.2329987  73.6745006  55.3765017  58.0359987  74.6015006  55.3765017
  60.1419987  74.5355006  52.3015017  61.0989987  74.5355006  52.3015017
  59.9019987  75.4625006  52.3015017  81.2409987  61.2455006  59.9255017
  82.1979987  61.2455006  59.9255017  81.0009987  62.1725006  59.9255017
  88.9409987  61.3525006  58.2995017  89.8979987  61.3525006  58.2995017
  88.7009987  62.2795006  58.2995017  87.3779987  69.6945006  57.5095017
  88.3349987  69.6945006  57.5095017  87.1379987  70.6215006  57.5095017
  89.0609987  72.7855006  59.1215017  90.0179987  72.7855006  59.1215017
  88.8209987  73.7125006  59.1215017  90.2159987  70.7895006  57.6915017
  91.1729987  70.7895006  57.6915017  89.9759987  71.7165006  57.6915017
  86.3069987  66.2755006  55.9525017  87.2639987  66.2755006  55.9525017
  86.0669987  67.2025006  55.9525017  86.3279987  64.7745006  53.0155017
  87.2849987  64.7745006  53.0155017  86.0879987  65.7015006  53.0155017
  89.7369987  66.5085006  56.8945017  90.6939987  66.5085006  56.8945017
  89.4969987  67.4355006  56.8945017  88.6069987  65.6895006  54.5625017
  89.5639987  65.6895006  54.5625017  88.3669987  66.6165006  54.5625017
  92.3149987  57.4165006  54.3875017  93.2719987  57.4165006  54.3875017
  92.0749987  58.3435006  54.3875017  80.3199987  66.1855006  56.4075017
  81.2769987  66.1855006  56.4075017  80.0799987  67.1125006  56.4075017
  93.4499987  71.7825006  52.7865017  94.4069987  71.7825006  52.7865017
  93.2099987  72.7095006  52.7865017  88.8789987  74.5495006  53.4135017
  89.8359987  74.5495006  53.4135017  88.6389987  75.4765006  53.4135017
  88.5669987  74.4335006  56.1445017  89.5239987  74.4335006  56.1445017
  88.3269987  75.3605006  56.1445017  90.0839987  66.6755006  52.2815017
  91.0409987  66.6755006  52.2815017  89.8439987  67.6025006  52.2815017
  86.9539987  63.9595006  57.0795017  87.9109987  63.9595006  57.0795017
  86.7139987  64.8865006  57.0795017  87.9249987  63.3945006  59.8995017
  88.8819987  63.3945006  59.8995017  87.6849987  64.3215006  59.8995017
  75.7379987  60.7875006  59.0535017  76.6949987  60.7875006  59.0535017
  75.4979987  61.7145006  59.0535017  83.9639987  61.0025006  59.2955017
  84.9209987  61.0025006  59.2955017  83.7239987  61.9295006  59.2955017
  78.8109987  62.6485006  58.1345017  79.7679987  62.6485006  58.1345017
  78.5709987  63.5755006  58.1345017  82.4399987  62.6045006  55.7665017
  83.3969987  62.6045006  55.7665017  82.1999987  63.5315006  55.7665017
  81.1169987  63.8235006  53.3785017  82.0739987  63.8235006  53.3785017
  80.8769987  64.7505006  53.3785017  80.3249987  59.9245006  57.6715017
  81.2819987  59.9245006  57.6715017  80.0849987  60.8515006  57.6715017
  84.5039987  68.3625006  55.3205017  85.4609987  68.3625006  55.3205017
  84.2639987  69.2895006  55.3205017  88.3279987  61.1735006  53.4855017
  89.2849987  61.1735006  53.4855017  88.0879987  62.1005006  53.4855017
  89.0669987  63.0675006  55.1765017  90.0239987  63.0675006  55.1765017
  88.8269987  63.9945006  55.1765017  86.6099987  69.8225006  54.3485017
  87.5669987  69.8225006  54.3485017  86.3699987  70.7495006  54.3485017
  93.9719987  63.2385006  54.9105017  94.9289987  63.2385006  54.9105017
  93.7319987  64.1655006  54.9105017  92.2429987  72.0515006  55.3115017
  93.1999987  72.0515006  55.3115017  92.0029987  72.9785006  55.3115017
  81.9609987  71.1905006  58.4965017  82.9179987  71.1905006  58.4965017
  81.7209987  72.1175006  58.4965017  83.3929987  68.8195006  58.0145017
  84.3499987  68.8195006  58.0145017  83.1529987  69.7465006  58.0145017
  89.6919987  70.0965006  53.1245017  90.6489987  70.0965006  53.1245017
  89.4519987  71.0235006  53.1245017  94.1729987  74.4745006  53.3695017
  95.1299987  74.4745006  53.3695017  93.9329987  75.4015006  53.3695017
  82.6709987  70.6985006  54.0415017  83.6279987  70.6985006  54.0415017
  82.4309987  71.6255006  54.0415017  79.1519987  67.9485006  54.6535017
  80.1089987  67.9485006  54.6535017  78.9119987  68.8755006  54.6535017
  87.7529987  60.2335006  55.9535017  88.7099987  60.2335006  55.9535017
  87.5129987  61.1605006  55.9535017  85.4309987  72.3895006  54.7965017
  86.3879987  72.3895006  54.7965017  85.1909987  73.3165006  54.7965017
  84.9559987  61.9955006  56.7685017  85.9129987  61.9955006  56.7685017
  84.7159987  62.9225006  56.7685017  82.7739987  73.4045006  54.8165017
  83.7309987  73.4045006  54.8165017  82.5339987  74.3315006  54.8165017
  81.4629987  60.1315006  54.4555017  82.4199987  60.1315006  54.4555017
  81.2229987  61.0585006  54.4555017  90.3969987  72.8065006  51.9605017
  91.3539987  72.8065006  51.9605017  90.1569987  73.7335006  51.9605017
  86.6979987  69.8055006  51.5425017  87.6549987  69.8055006  51.5425017
  86.4579987  70.7325006  51.5425017  82.5199987  66.7475006  54.1645017
  83.4769987  66.7475006  54.1645017  82.2799987  67.6745006  54.1645017
  83.5559987  64.9705006  52.3835017  84.5129987  64.9705006  52.3835017
  83.3159987  65.8975006  52.3835017  92.9399987  67.2935006  51.8245017
  93.8969987  67.2935006  51.8245017  92.6999987  68.2205006  51.8245017
  83.4169987  75.6695006  53.4675017  84.3739987  75.6695006  53.4675017
  83.1769987  76.5965006  53.4675017  93.4259987  68.1975006  55.7625017
  94.3829987  68.1975006  55.7625017  93.1859987  69.1245006  55.7625017
  93.7779987  66.2425006  57.6605017  94.7349987  66.2425006  57.6605017
  93.5379987  67.1695006  57.6605017  94.0809987  66.1005006  54.0395017
  95.0379987  66.1005006  54.0395017  93.8409987  67.0275006  54.0395017
  92.4529987  63.3515006  52.5635017  93.4099987  63.3515006  52.5635017
  92.2129987  64.2785006  52.5635017  91.7109987  60.8025006  51.6945017
  92.6679987  60.8025006  51.6945017  91.4709987  61.7295006  51.6945017
  91.2919987  62.3625006  56.6495017  92.2489987  62.3625006  56.6495017
  91.0519987  63.2895006  56.6495017  91.9189987  59.6235006  56.7395017
  92.8759987  59.6235006  56.7395017  91.6789987  60.5505006  56.7395017
  93.7639987  59.6675006  53.2585017  94.7209987  59.6675006  53.2585017
  93.5239987  60.5945006  53.2585017  76.0729987  59.6925006  56.4075017
  77.0299987  59.6925006  56.4075017  75.8329987  60.6195006  56.4075017
  90.8379987  74.6195006  58.3225017  91.7949987  74.6195006  58.3225017
  90.5979987  75.5465006  58.3225017  78.5639987  57.9305006  58.4955017
  79.5209987  57.9305006  58.4955017  78.3239987  58.8575006  58.4955017
  90.0059987  57.8925006  55.6475017  90.9629987  57.8925006  55.6475017
  89.7659987  58.8195006  55.6475017  84.1499987  59.8685006  55.2455017
  85.1069987  59.8685006  55.2455017  83.9099987  60.7955006  55.2455017
  86.0969987  74.8685006  53.6475017  87.0539987  74.8685006  53.6475017
  85.8569987  75.7955006  53.6475017  92.8009987  74.4265006  56.3595017
  93.7579987  74.4265006  56.3595017  92.5609987  75.3535006  56.3595017
 106.4489987  67.0485006  58.4875017 107.4059987  67.0485006  58.4875017
 106.2089987  67.9755006  58.4875017  95.2689987  63.9615006  57.4615017
  96.2259987  63.9615006  57.4615017  95.0289987  64.8885006  57.4615017
 100.1329987  61.2375006  59.8955017 101.0899987  61.2375006  59.8955017
  99.8929987  62.1645006  59.8955017 107.6999987  61.7945006  57.9055017
 108.6569987  61.7945006  57.9055017 107.4599987  62.7215006  57.9055017
  95.9709987  69.4485006  55.8235017  96.9279987  69.4485006  55.8235017
  95.7309987  70.3755006  55.8235017 105.1489987  66.3065006  55.9935017
 106.1059987  66.3065006  55.9935017 104.9089987  67.2335006  55.9935017
 105.1859987  64.7975006  52.9765017 106.1429987  64.7975006  52.9765017
 104.9459987  65.7245006  52.9765017 107.4579987  65.6815006  54.5795017
 108.4149987  65.6815006  54.5795017 107.2179987  66.6085006  54.5795017
  99.2209987  66.1925006  56.3455017 100.1779987  66.1925006  56.3455017
  98.9809987  67.1195006  56.3455017 104.6279987  75.3535006  56.4615017
 105.5849987  75.3535006  56.4615017 104.3879987  76.2805006  56.4615017
  98.3539987  74.1275006  58.2165017  99.3109987  74.1275006  58.2165017
  98.1139987  75.0545006  58.2165017 107.7149987  74.5165006  53.4225017
 108.6719987  74.5165006  53.4225017 107.4749987  75.4435006  53.4225017
 104.5259987  60.6325006  52.8835017 105.4829987  60.6325006  52.8835017
 104.2859987  61.5595006  52.8835017 100.2939987  63.5275006  58.2565017
 101.2509987  63.5275006  58.2565017 100.0539987  64.4545006  58.2565017
 101.3519987  61.0275006  51.9755017 102.3089987  61.0275006  51.9755017
 101.1119987  61.9545006  51.9755017  95.8989987  61.4575006  54.4585017
  96.8559987  61.4575006  54.4585017  95.6589987  62.3845006  54.4585017
  97.7009987  62.5925006  58.1325017  98.6579987  62.5925006  58.1325017
  97.4609987  63.5195006  58.1325017 101.3099987  62.6385006  55.8245017
 102.2669987  62.6385006  55.8245017 101.0699987  63.5655006  55.8245017
 100.0059987  63.7985006  53.4055017 100.9629987  63.7985006  53.4055017
  99.7659987  64.7255006  53.4055017 103.3609987  68.3585006  55.3395017
 104.3179987  68.3585006  55.3395017 103.1209987  69.2855006  55.3395017
 107.1519987  61.1935006  53.5135017 108.1089987  61.1935006  53.5135017
 106.9119987  62.1205006  53.5135017   0.1329987  63.1675006  55.2015017
   1.0899987  63.1675006  55.2015017  -0.1070013  64.0945006  55.2015017
 105.4549987  69.8245006  54.3215017 106.4119987  69.8245006  54.3215017
 105.2149987  70.7515006  54.3215017  96.5929987  66.0475006  53.0435017
  97.5499987  66.0475006  53.0435017  96.3529987  66.9745006  53.0435017
 102.2519987  68.8535006  58.0625017 103.2089987  68.8535006  58.0625017
 102.0119987  69.7805006  58.0625017 100.9529987  73.8635006  57.5985017
 101.9099987  73.8635006  57.5985017 100.7129987  74.7905006  57.5985017
 102.6649987  71.1875006  51.6095017 103.6219987  71.1875006  51.6095017
 102.4249987  72.1145006  51.6095017 101.5099987  70.7205006  54.0725017
 102.4669987  70.7205006  54.0725017 101.2699987  71.6475006  54.0725017
  98.0089987  67.9635006  54.5845017  98.9659987  67.9635006  54.5845017
  97.7689987  68.8905006  54.5845017 106.3289987  60.4555006  55.9385017
 107.2859987  60.4555006  55.9385017 106.0889987  61.3825006  55.9385017
 104.2869987  72.3975006  54.8315017 105.2439987  72.3975006  54.8315017
 104.0469987  73.3245006  54.8315017 103.7679987  62.0135006  56.7615017
 104.7249987  62.0135006  56.7615017 103.5279987  62.9405006  56.7615017
 104.6629987  59.0845006  57.6655017 105.6199987  59.0845006  57.6655017
 104.4229987  60.0115006  57.6655017 101.6509987  73.4215006  54.7995017
 102.6079987  73.4215006  54.7995017 101.4109987  74.3485006  54.7995017
 100.3169987  60.1395006  54.4005017 101.2739987  60.1395006  54.4005017
 100.0769987  61.0665006  54.4005017  98.5659987  70.5725006  53.4425017
  99.5229987  70.5725006  53.4425017  98.3259987  71.4995006  53.4425017
  96.9099987  63.2445006  52.5685017  97.8669987  63.2445006  52.5685017
  96.6699987  64.1715006  52.5685017  96.6779987  71.9535006  57.4325017
  97.6349987  71.9535006  57.4325017  96.4379987  72.8805006  57.4325017
 104.7089987  73.0255006  51.7555017 105.6659987  73.0255006  51.7555017
 104.4689987  73.9525006  51.7555017 100.1399987  68.7295006  51.7855017
 101.0969987  68.7295006  51.7855017  99.8999987  69.6565006  51.7855017
 105.5889987  69.8125006  51.5355017 106.5459987  69.8125006  51.5355017
 105.3489987  70.7395006  51.5355017 101.3519987  66.7365006  54.1715017
 102.3089987  66.7365006  54.1715017 101.1119987  67.6635006  54.1715017
 102.4119987  64.9575006  52.3945017 103.3689987  64.9575006  52.3945017
 102.1719987  65.8845006  52.3945017 102.2599987  75.6695006  53.4555017
 103.2169987  75.6695006  53.4555017 102.0199987  76.5965006  53.4555017
  95.8239987  70.2645006  52.9245017  96.7809987  70.2645006  52.9245017
  95.5839987  71.1915006  52.9245017  94.5849987  75.6285006  57.9005017
  95.5419987  75.6285006  57.9005017  94.3449987  76.5555006  57.9005017
  95.4219987  73.7455006  59.7605017  96.3789987  73.7455006  59.7605017
  95.1819987  74.6725006  59.7605017  96.1859987  57.6925006  54.3325017
  97.1429987  57.6925006  54.3325017  95.9459987  58.6195006  54.3325017
 101.9149987  57.8535006  58.3655017 102.8719987  57.8535006  58.3655017
 101.6749987  58.7805006  58.3655017 107.5089987  57.7615006  60.1375017
 108.4659987  57.7615006  60.1375017 107.2689987  58.6885006  60.1375017
  96.0969987  73.6265006  55.2915017  97.0539987  73.6265006  55.2915017
  95.8569987  74.5535006  55.2915017  98.0089987  59.6125006  52.7755017
  98.9659987  59.6125006  52.7755017  97.7689987  60.5395006  52.7755017
 103.0599987  59.8715006  55.2325017 104.0169987  59.8715006  55.2325017
 102.8199987  60.7985006  55.2325017 104.9409987  74.9045006  53.6605017
 105.8979987  74.9045006  53.6605017 104.7009987  75.8315006  53.6605017
  97.8909987  74.5955006  52.2595017  98.8479987  74.5955006  52.2595017
  97.6509987  75.5225006  52.2595017  12.1659987  85.9485006  58.4695017
  13.1229987  85.9485006  58.4695017  11.9259987  86.8755006  58.4695017
   1.0249987  82.9575006  57.4405017   1.9819987  82.9575006  57.4405017
   0.7849987  83.8845006  57.4405017  13.5019987  80.1865006  58.2665017
  14.4589987  80.1865006  58.2665017  13.2619987  81.1135006  58.2665017
   7.5479987  84.0605006  59.8935017   8.5049987  84.0605006  59.8935017
   7.3079987  84.9875006  59.8935017  11.9429987  88.5195006  57.5515017
  12.8999987  88.5195006  57.5515017  11.7029987  89.4465006  57.5515017
   1.6779987  88.3175006  55.8165017   2.6349987  88.3175006  55.8165017
   1.4379987  89.2445006  55.8165017  10.8919987  85.1655006  55.9735017
  11.8489987  85.1655006  55.9735017  10.6519987  86.0925006  55.9735017
  10.9939987  83.7305006  52.9205017  11.9509987  83.7305006  52.9205017
  10.7539987  84.6575006  52.9205017  14.3379987  85.3895006  56.9085017
  15.2949987  85.3895006  56.9085017  14.0979987  86.3165006  56.9085017
   5.9989987  86.0385006  58.7485017   6.9559987  86.0385006  58.7485017
   5.7589987  86.9655006  58.7485017  13.1819987  84.5415006  54.5385017
  14.1389987  84.5415006  54.5385017  12.9419987  85.4685006  54.5385017
  16.8939987  76.2745006  54.3955017  17.8509987  76.2745006  54.3955017
  16.6539987  77.2015006  54.3955017   4.9319987  85.0585006  56.3875017
   5.8889987  85.0585006  56.3875017   4.6919987  85.9855006  56.3875017
  18.0249987  90.6255006  52.8115017  18.9819987  90.6255006  52.8115017
  17.7849987  91.5525006  52.8115017  10.3709987  94.1815006  56.4375017
  11.3279987  94.1815006  56.4375017  10.1309987  95.1085006  56.4375017
   4.0319987  93.0315006  58.2085017   4.9889987  93.0315006  58.2085017
   3.7919987  93.9585006  58.2085017  13.4419987  93.3985006  53.4185017
  14.3989987  93.3985006  53.4185017  13.2019987  94.3255006  53.4185017
  13.1309987  93.3065006  56.1465017  14.0879987  93.3065006  56.1465017
  12.8909987  94.2335006  56.1465017  14.6889987  85.6185006  52.3285017
  15.6459987  85.6185006  52.3285017  14.4489987  86.5455006  52.3285017
  10.2309987  79.4915006  52.8625017  11.1879987  79.4915006  52.8625017
   9.9909987  80.4185006  52.8625017  11.4899987  82.8255006  57.0765017
  12.4469987  82.8255006  57.0765017  11.2499987  83.7525006  57.0765017
   7.0769987  79.8695006  51.9665017   8.0339987  79.8695006  51.9665017
   6.8369987  80.7965006  51.9665017   0.5269987  78.8875006  59.5005017
   1.4839987  78.8875006  59.5005017   0.2869987  79.8145006  59.5005017
   1.7819987  80.3055006  54.5235017   2.7389987  80.3055006  54.5235017
   1.5419987  81.2325006  54.5235017   8.5609987  79.8915006  59.3175017
   9.5179987  79.8915006  59.3175017   8.3209987  80.8185006  59.3175017
   7.0439987  81.4535006  55.7615017   8.0009987  81.4535006  55.7615017
   6.8039987  82.3805006  55.7615017   5.7059987  82.6865006  53.3855017
   6.6629987  82.6865006  53.3855017   5.4659987  83.6135006  53.3855017
   4.8859987  78.7605006  57.6335017   5.8429987  78.7605006  57.6335017
   4.6459987  79.6875006  57.6335017   9.0799987  87.2325006  55.3235017
  10.0369987  87.2325006  55.3235017   8.8399987  88.1595006  55.3235017
  12.9189987  80.0295006  53.4845017  13.8759987  80.0295006  53.4845017
  12.6789987  80.9565006  53.4845017  13.6459987  81.9145006  55.0955017
  14.6029987  81.9145006  55.0955017  13.4059987  82.8415006  55.0955017
  11.1929987  88.6665006  54.3425017  12.1499987  88.6665006  54.3425017
  10.9529987  89.5935006  54.3425017  18.5819987  82.0925006  54.8575017
  19.5389987  82.0925006  54.8575017  18.3419987  83.0195006  54.8575017
  16.8059987  90.9065006  55.3325017  17.7629987  90.9065006  55.3325017
  16.5659987  91.8335006  55.3325017   2.2839987  84.9005006  53.0755017
   3.2409987  84.9005006  53.0755017   2.0439987  85.8275006  53.0755017
   7.9839987  87.7215006  58.0155017   8.9409987  87.7215006  58.0155017
   7.7439987  88.6485006  58.0155017  14.2749987  88.9295006  53.1285017
  15.2319987  88.9295006  53.1285017  14.0349987  89.8565006  53.1285017
  18.7349987  93.3275006  53.3525017  19.6919987  93.3275006  53.3525017
  18.4949987  94.2545006  53.3525017  15.0699987  87.5815006  55.3575017
  16.0269987  87.5815006  55.3575017  14.8299987  88.5085006  55.3575017
   8.3919987  90.0405006  51.6175017   9.3489987  90.0405006  51.6175017
   8.1519987  90.9675006  51.6175017   7.2349987  89.5745006  54.0675017
   8.1919987  89.5745006  54.0675017   6.9949987  90.5015006  54.0675017
   3.6949987  86.7995006  54.5665017   4.6519987  86.7995006  54.5665017
   3.4549987  87.7265006  54.5665017  12.3199987  79.0875006  55.9515017
  13.2769987  79.0875006  55.9515017  12.0799987  80.0145006  55.9515017
  10.0079987  91.2555006  54.8405017  10.9649987  91.2555006  54.8405017
   9.7679987  92.1825006  54.8405017   9.5569987  80.8465006  56.7675017
  10.5139987  80.8465006  56.7675017   9.3169987  81.7735006  56.7675017
  10.3809987  77.9155006  57.6465017  11.3379987  77.9155006  57.6465017
  10.1409987  78.8425006  57.6465017   7.3929987  92.2745006  54.8155017
   8.3499987  92.2745006  54.8155017   7.1529987  93.2015006  54.8155017
   6.0519987  79.0075006  54.3825017   7.0089987  79.0075006  54.3825017
   5.8119987  79.9345006  54.3825017   4.2929987  89.4395006  53.4395017
   5.2499987  89.4395006  53.4395017   4.0529987  90.3665006  53.4395017
   2.5859987  82.1205006  52.6185017   3.5429987  82.1205006  52.6185017
   2.3459987  83.0475006  52.6185017   2.3579987  90.8205006  57.4505017
   3.3149987  90.8205006  57.4505017   2.1179987  91.7475006  57.4505017
  10.3959987  91.8955006  51.7515017  11.3529987  91.8955006  51.7515017
  10.1559987  92.8225006  51.7515017  14.9699987  91.6595006  51.9455017
  15.9269987  91.6595006  51.9455017  14.7299987  92.5865006  51.9455017
   5.8679987  87.5895006  51.7865017   6.8249987  87.5895006  51.7865017
   5.6279987  88.5165006  51.7865017  11.3069987  88.6655006  51.5505017
  12.2639987  88.6655006  51.5505017  11.0669987  89.5925006  51.5505017
   7.0609987  85.6035006  54.1555017   8.0179987  85.6035006  54.1555017
   6.8209987  86.5305006  54.1555017   8.1399987  83.8235006  52.3875017
   9.0969987  83.8235006  52.3875017   7.8999987  84.7505006  52.3875017
  17.4499987  86.1435006  51.8355017  18.4069987  86.1435006  51.8355017
  17.2099987  87.0705006  51.8355017   7.9839987  94.4975006  53.4225017
   8.9409987  94.4975006  53.4225017   7.7439987  95.4245006  53.4225017
   1.5939987  89.1275006  52.9095017   2.5509987  89.1275006  52.9095017
   1.3539987  90.0545006  52.9095017 108.0609987  94.5895006  57.9125017
 109.0179987  94.5895006  57.9125017 107.8209987  95.5165006  57.9125017
   1.3589987  93.0025006  59.6245017   2.3159987  93.0025006  59.6245017
   1.1189987  93.9295006  59.6245017  17.9879987  87.0705006  55.8035017
  18.9449987  87.0705006  55.8035017  17.7479987  87.9975006  55.8035017
  18.6969987  84.9795006  54.0415017  19.6539987  84.9795006  54.0415017
  18.4569987  85.9065006  54.0415017  16.9909987  82.2125006  52.5655017
  17.9479987  82.2125006  52.5655017  16.7509987  83.1395006  52.5655017
  16.2529987  79.6805006  51.6945017  17.2099987  79.6805006  51.6945017
  16.0129987  80.6075006  51.6945017  15.8359987  81.2035006  56.6045017
  16.7929987  81.2035006  56.6045017  15.5959987  82.1305006  56.6045017
  16.5199987  78.4795006  56.7175017  17.4769987  78.4795006  56.7175017
  16.2799987  79.4065006  56.7175017  18.3349987  78.5215006  53.2615017
  19.2919987  78.5215006  53.2615017  18.0949987  79.4485006  53.2615017
   0.8719987  78.4265006  56.3775017   1.8289987  78.4265006  56.3775017
   0.6319987  79.3535006  56.3775017  15.4149987  93.4615006  58.3395017
  16.3719987  93.4615006  58.3395017  15.1749987  94.3885006  58.3395017
  17.5919987  77.4505006  59.1105017  18.5489987  77.4505006  59.1105017
  17.3519987  78.3775006  59.1105017   3.1159987  76.7575006  58.4895017
   4.0729987  76.7575006  58.4895017   2.8759987  77.6845006  58.4895017
   1.9219987  76.5245006  54.3385017   2.8789987  76.5245006  54.3385017
   1.6819987  77.4515006  54.3385017  14.5809987  76.7495006  55.6835017
  15.5379987  76.7495006  55.6835017  14.3409987  77.6765006  55.6835017
   1.9149987  92.4845006  55.2825017   2.8719987  92.4845006  55.2825017
   1.6749987  93.4115006  55.2825017   3.7409987  78.4845006  52.7905017
   4.6979987  78.4845006  52.7905017   3.5009987  79.4115006  52.7905017
   8.7499987  78.7155006  55.2305017   9.7069987  78.7155006  55.2305017
   8.5099987  79.6425006  55.2305017  10.6719987  93.7495006  53.6725017
  11.6289987  93.7495006  53.6725017  10.4319987  94.6765006  53.6725017
  17.4029987  93.2875006  56.3825017  18.3599987  93.2875006  56.3825017
  17.1629987  94.2145006  56.3825017   3.5829987  93.4325006  52.2405017
   4.5399987  93.4325006  52.2405017   3.3429987  94.3595006  52.2405017
  31.0509987  85.9195006  58.4825017  32.0079987  85.9195006  58.4825017
  30.8109987  86.8465006  58.4825017  19.8819987  82.8955006  57.3945017
  20.8389987  82.8955006  57.3945017  19.6419987  83.8225006  57.3945017
  30.7499987  88.5095006  57.5625017  31.7069987  88.5095006  57.5625017
  30.5099987  89.4365006  57.5625017  20.5299987  88.3005006  55.8565017
  21.4869987  88.3005006  55.8565017  20.2899987  89.2275006  55.8565017
  33.6219987  89.6475006  57.6915017  34.5789987  89.6475006  57.6915017
  33.3819987  90.5745006  57.6915017  29.7349987  85.2075006  55.9975017
  30.6919987  85.2075006  55.9975017  29.4949987  86.1345006  55.9975017
  29.8009987  83.6875006  52.9605017  30.7579987  83.6875006  52.9605017
  29.5609987  84.6145006  52.9605017  33.1769987  85.3555006  56.8525017
  34.1339987  85.3555006  56.8525017  32.9369987  86.2825006  56.8525017
  32.0229987  84.5315006  54.5575017  32.9799987  84.5315006  54.5575017
  31.7829987  85.4585006  54.5575017  23.8009987  85.2075006  56.6945017
  24.7579987  85.2075006  56.6945017  23.5609987  86.1345006  56.6945017
  36.8879987  90.6465006  52.8135017  37.8449987  90.6465006  52.8135017
  36.6479987  91.5735006  52.8135017  29.2349987  94.2055006  56.4445017
  30.1919987  94.2055006  56.4445017  28.9949987  95.1325006  56.4445017
  32.2899987  93.4025006  53.4155017  33.2469987  93.4025006  53.4155017
  32.0499987  94.3295006  53.4155017  31.9919987  93.3115006  56.1555017
  32.9489987  93.3115006  56.1555017  31.7519987  94.2385006  56.1555017
  24.8129987  82.4755006  58.1655017  25.7699987  82.4755006  58.1655017
  24.5729987  83.4025006  58.1655017  30.3649987  82.8305006  57.0865017
  31.3219987  82.8305006  57.0865017  30.1249987  83.7575006  57.0865017
  25.9269987  79.8875006  51.9655017  26.8839987  79.8875006  51.9655017
  25.6869987  80.8145006  51.9655017  19.2139987  79.6345006  59.0085017
  20.1709987  79.6345006  59.0085017  18.9739987  80.5615006  59.0085017
  20.4809987  80.3245006  54.4825017  21.4379987  80.3245006  54.4825017
  20.2409987  81.2515006  54.4825017  27.4519987  79.8725006  59.3265017
  28.4089987  79.8725006  59.3265017  27.2119987  80.7995006  59.3265017
  22.2399987  81.4725006  58.0945017  23.1969987  81.4725006  58.0945017
  21.9999987  82.3995006  58.0945017  25.8769987  81.4815006  55.8025017
  26.8339987  81.4815006  55.8025017  25.6369987  82.4085006  55.8025017
  24.5359987  82.7285006  53.3825017  25.4929987  82.7285006  53.3825017
  24.2959987  83.6555006  53.3825017  23.7189987  78.7535006  57.6535017
  24.6759987  78.7535006  57.6535017  23.4789987  79.6805006  57.6535017
  27.9299987  87.2135006  55.3255017  28.8869987  87.2135006  55.3255017
  27.6899987  88.1405006  55.3255017  32.4869987  81.9105006  55.1485017
  33.4439987  81.9105006  55.1485017  32.2469987  82.8375006  55.1485017
  30.0419987  88.6735006  54.3505017  30.9989987  88.6735006  54.3505017
  29.8019987  89.6005006  54.3505017  37.3709987  82.1625006  54.8965017
  38.3279987  82.1625006  54.8965017  37.1309987  83.0895006  54.8965017
  35.6959987  90.9225006  55.3165017  36.6529987  90.9225006  55.3165017
  35.4559987  91.8495006  55.3165017  21.1449987  84.9105006  53.0585017
  22.1019987  84.9105006  53.0585017  20.9049987  85.8375006  53.0585017
  25.5179987  92.7545006  57.5165017  26.4749987  92.7545006  57.5165017
  25.2779987  93.6815006  57.5165017  33.1179987  88.9545006  53.1355017
  34.0749987  88.9545006  53.1355017  32.8779987  89.8815006  53.1355017
  37.5869987  93.3355006  53.3685017  38.5439987  93.3355006  53.3685017
  37.3469987  94.2625006  53.3685017  33.9169987  87.6035006  55.3855017
  34.8739987  87.6035006  55.3855017  33.6769987  88.5305006  55.3855017
  27.2479987  90.0435006  51.6115017  28.2049987  90.0435006  51.6115017
  27.0079987  90.9705006  51.6115017  26.0839987  89.5705006  54.0745017
  27.0409987  89.5705006  54.0745017  25.8439987  90.4975006  54.0745017
  22.5799987  86.8595006  54.5815017  23.5369987  86.8595006  54.5815017
  22.3399987  87.7865006  54.5815017  28.8549987  91.2415006  54.8355017
  29.8119987  91.2415006  54.8355017  28.6149987  92.1685006  54.8355017
  28.3919987  80.8285006  56.7985017  29.3489987  80.8285006  56.7985017
  28.1519987  81.7555006  56.7985017  29.2349987  77.9435006  57.6585017
  30.1919987  77.9435006  57.6585017  28.9949987  78.8705006  57.6585017
  26.2569987  92.2645006  54.7975017  27.2139987  92.2645006  54.7975017
  26.0169987  93.1915006  54.7975017  24.8939987  79.0115006  54.3825017
  25.8509987  79.0115006  54.3825017  24.6539987  79.9385006  54.3825017
  23.1429987  89.4185006  53.4465017  24.0999987  89.4185006  53.4465017
  22.9029987  90.3455006  53.4465017  21.4859987  82.1205006  52.5905017
  22.4429987  82.1205006  52.5905017  21.2459987  83.0475006  52.5905017
  21.2239987  90.7895006  57.4275017  22.1809987  90.7895006  57.4275017
  20.9839987  91.7165006  57.4275017  29.2519987  91.8955006  51.7525017
  30.2089987  91.8955006  51.7525017  29.0119987  92.8225006  51.7525017
  33.8239987  91.6765006  51.9605017  34.7809987  91.6765006  51.9605017
  33.5839987  92.6035006  51.9605017  24.7169987  87.5765006  51.7885017
  25.6739987  87.5765006  51.7885017  24.4769987  88.5035006  51.7885017
  30.1469987  88.6655006  51.5425017  31.1039987  88.6655006  51.5425017
  29.9069987  89.5925006  51.5425017  25.8779987  85.5895006  54.1725017
  26.8349987  85.5895006  54.1725017  25.6379987  86.5165006  54.1725017
  26.9679987  83.8515006  52.3925017  27.9249987  83.8515006  52.3925017
  26.7279987  84.7785006  52.3925017  26.8319987  94.5165006  53.4425017
  27.7889987  94.5165006  53.4425017  26.5919987  95.4435006  53.4425017
  20.4029987  89.0975006  52.9375017  21.3599987  89.0975006  52.9375017
  20.1629987  90.0245006  52.9375017  36.8429987  87.0465006  55.8295017
  37.7999987  87.0465006  55.8295017  36.6029987  87.9735006  55.8295017
  37.4929987  84.9525006  54.0365017  38.4499987  84.9525006  54.0365017
  37.2529987  85.8795006  54.0365017  35.0309987  83.6465006  58.2165017
  35.9879987  83.6465006  58.2165017  34.7909987  84.5735006  58.2165017
  34.7529987  81.2425006  56.7175017  35.7099987  81.2425006  56.7175017
  34.5129987  82.1695006  56.7175017  19.5319987  78.5235006  56.3855017
  20.4889987  78.5235006  56.3855017  19.2919987  79.4505006  56.3855017
  34.2579987  93.4605006  58.3585017  35.2149987  93.4605006  58.3585017
  34.0179987  94.3875006  58.3585017  20.7669987  76.5315006  54.3185017
  21.7239987  76.5315006  54.3185017  20.5269987  77.4585006  54.3185017
  20.6629987  92.4935006  55.2745017  21.6199987  92.4935006  55.2745017
  20.4229987  93.4205006  55.2745017  22.5969987  78.4765006  52.7865017
  23.5539987  78.4765006  52.7865017  22.3569987  79.4035006  52.7865017
  27.5579987  78.7275006  55.2515017  28.5149987  78.7275006  55.2515017
  27.3179987  79.6545006  55.2515017  29.5369987  93.7485006  53.6735017
  30.4939987  93.7485006  53.6735017  29.2969987  94.6755006  53.6735017
  36.2429987  93.2835006  56.3685017  37.1999987  93.2835006  56.3685017
  36.0029987  94.2105006  56.3685017  22.4679987  93.4505006  52.2605017
  23.4249987  93.4505006  52.2605017  22.2279987  94.3775006  52.2605017
  38.6639987  82.8735006  57.4235017  39.6209987  82.8735006  57.4235017
  38.4239987  83.8005006  57.4235017  51.1969987  80.2395006  58.3305017
  52.1539987  80.2395006  58.3305017  50.9569987  81.1665006  58.3305017
  49.7199987  88.5565006  57.5245017  50.6769987  88.5565006  57.5245017
  49.4799987  89.4835006  57.5245017  39.3509987  88.2925006  55.8415017
  40.3079987  88.2925006  55.8415017  39.1109987  89.2195006  55.8415017
  48.5739987  85.1465006  55.9625017  49.5309987  85.1465006  55.9625017
  48.3339987  86.0735006  55.9625017  52.0149987  85.3995006  56.9315017
  52.9719987  85.3995006  56.9315017  51.7749987  86.3265006  56.9315017
  43.7079987  86.0505006  58.7465017  44.6649987  86.0505006  58.7465017
  43.4679987  86.9775006  58.7465017  50.8999987  84.5265006  54.5635017
  51.8569987  84.5265006  54.5635017  50.6599987  85.4535006  54.5635017
  54.6539987  76.3135006  54.4335017  55.6109987  76.3135006  54.4335017
  54.4139987  77.2405006  54.4335017  42.6189987  85.0445006  56.3735017
  43.5759987  85.0445006  56.3735017  42.3789987  85.9715006  56.3735017
  55.7119987  90.7055006  52.4115017  56.6689987  90.7055006  52.4115017
  55.4719987  91.6325006  52.4115017  48.0789987  94.2305006  56.4515017
  49.0359987  94.2305006  56.4515017  47.8389987  95.1575006  56.4515017
  51.1589987  93.4075006  53.4105017  52.1159987  93.4075006  53.4105017
  50.9189987  94.3345006  53.4105017  50.8399987  93.3005006  56.1575017
  51.7969987  93.3005006  56.1575017  50.5999987  94.2275006  56.1575017
  49.2179987  82.8155006  57.0745017  50.1749987  82.8155006  57.0745017
  48.9779987  83.7425006  57.0745017  50.3029987  82.3155006  59.8815017
  51.2599987  82.3155006  59.8815017  50.0629987  83.2425006  59.8815017
  39.3359987  80.3745006  54.4665017  40.2929987  80.3745006  54.4665017
  39.0959987  81.3015006  54.4665017  41.1249987  81.4735006  58.1245017
  42.0819987  81.4735006  58.1245017  40.8849987  82.4005006  58.1245017
  44.7309987  81.4795006  55.7835017  45.6879987  81.4795006  55.7835017
  44.4909987  82.4065006  55.7835017  43.4399987  82.6955006  53.3555017
  44.3969987  82.6955006  53.3555017  43.1999987  83.6225006  53.3555017
  42.5879987  78.7555006  57.6705017  43.5449987  78.7555006  57.6705017
  42.3479987  79.6825006  57.6705017  46.7899987  87.2205006  55.3085017
  47.7469987  87.2205006  55.3085017  46.5499987  88.1475006  55.3085017
  51.3499987  81.8745006  55.1765017  52.3069987  81.8745006  55.1765017
  51.1099987  82.8015006  55.1765017  48.8839987  88.6775006  54.3375017
  49.8409987  88.6775006  54.3375017  48.6439987  89.6045006  54.3375017
  56.2569987  82.0935006  54.8815017  57.2139987  82.0935006  54.8815017
  56.0169987  83.0205006  54.8815017  54.1389987  90.9295006  55.2615017
  55.0959987  90.9295006  55.2615017  53.8989987  91.8565006  55.2615017
  44.2969987  90.0525006  58.5055017  45.2539987  90.0525006  58.5055017
  44.0569987  90.9795006  58.5055017  40.0429987  84.8815006  53.0845017
  40.9999987  84.8815006  53.0845017  39.8029987  85.8085006  53.0845017
  45.6649987  87.7095006  57.9215017  46.6219987  87.7095006  57.9215017
  45.4249987  88.6365006  57.9215017  44.3769987  92.7575006  57.5635017
  45.3339987  92.7575006  57.5635017  44.1369987  93.6845006  57.5635017
  51.9739987  88.9435006  53.1225017  52.9309987  88.9435006  53.1225017
  51.7339987  89.8705006  53.1225017  56.4339987  93.3635006  53.3275017
  57.3909987  93.3635006  53.3275017  56.1939987  94.2905006  53.3275017
  52.7859987  87.6105006  55.4025017  53.7429987  87.6105006  55.4025017
  52.5459987  88.5375006  55.4025017  46.1279987  90.0245006  51.6435017
  47.0849987  90.0245006  51.6435017  45.8879987  90.9515006  51.6435017
  44.9329987  89.5755006  54.0605017  45.8899987  89.5755006  54.0605017
  44.6929987  90.5025006  54.0605017  41.4189987  86.8115006  54.5805017
  42.3759987  86.8115006  54.5805017  41.1789987  87.7385006  54.5805017
  50.0469987  79.1025006  55.9265017  51.0039987  79.1025006  55.9265017
  49.8069987  80.0295006  55.9265017  47.7219987  91.2485006  54.8105017
  48.6789987  91.2485006  54.8105017  47.4819987  92.1755006  54.8105017
  47.2419987  80.8585006  56.7745017  48.1989987  80.8585006  56.7745017
  47.0019987  81.7855006  56.7745017  48.1159987  77.9295006  57.7165017
  49.0729987  77.9295006  57.7165017  47.8759987  78.8565006  57.7165017
  45.0909987  92.2745006  54.7935017  46.0479987  92.2745006  54.7935017
  44.8509987  93.2015006  54.7935017  43.8019987  79.0095006  54.3865017
  44.7589987  79.0095006  54.3865017  43.5619987  79.9365006  54.3865017
  42.0049987  89.4435006  53.4595017  42.9619987  89.4435006  53.4595017
  41.7649987  90.3705006  53.4595017  40.0969987  90.7855006  57.4195017
  41.0539987  90.7855006  57.4195017  39.8569987  91.7125006  57.4195017
  48.1129987  91.9065006  51.7665017  49.0699987  91.9065006  51.7665017
  47.8729987  92.8335006  51.7665017  52.6929987  91.6985006  51.9995017
  53.6499987  91.6985006  51.9995017  52.4529987  92.6255006  51.9995017
  43.6329987  87.6055006  51.8605017  44.5899987  87.6055006  51.8605017
  43.3929987  88.5325006  51.8605017  48.9449987  88.6575006  51.5475017
  49.9019987  88.6575006  51.5475017  48.7049987  89.5845006  51.5475017
  44.7769987  85.5815006  54.1375017  45.7339987  85.5815006  54.1375017
  44.5369987  86.5085006  54.1375017  45.6929987  94.5445006  53.4745017
  46.6499987  94.5445006  53.4745017  45.4529987  95.4715006  53.4745017
  39.2689987  89.1125006  52.9445017  40.2259987  89.1125006  52.9445017
  39.0289987  90.0395006  52.9445017  37.9939987  94.5075006  57.9265017
  38.9509987  94.5075006  57.9265017  37.7539987  95.4345006  57.9265017
  38.8039987  92.6245006  59.7635017  39.7609987  92.6245006  59.7635017
  38.5639987  93.5515006  59.7635017  55.6879987  87.0335006  55.7925017
  56.6449987  87.0335006  55.7925017  55.4479987  87.9605006  55.7925017
  56.0859987  85.1145006  57.6255017  57.0429987  85.1145006  57.6255017
  55.8459987  86.0415006  57.6255017  56.3579987  84.9555006  54.0225017
  57.3149987  84.9555006  54.0225017  56.1179987  85.8825006  54.0225017
  53.9099987  83.5915006  58.2325017  54.8669987  83.5915006  58.2325017
  53.6699987  84.5185006  58.2325017  53.9669987  79.6325006  51.7225017
  54.9239987  79.6325006  51.7225017  53.7269987  80.5595006  51.7225017
  53.6049987  81.2015006  56.7155017  54.5619987  81.2015006  56.7155017
  53.3649987  82.1285006  56.7155017  54.2669987  78.4445006  56.7005017
  55.2239987  78.4445006  56.7005017  54.0269987  79.3715006  56.7005017
  53.1089987  93.4215006  58.3825017  54.0659987  93.4215006  58.3825017
  52.8689987  94.3485006  58.3825017  55.2959987  77.4515006  59.1115017
  56.2529987  77.4515006  59.1115017  55.0559987  78.3785006  59.1115017
  45.3559987  76.6345006  58.3655017  46.3129987  76.6345006  58.3655017
  45.1159987  77.5615006  58.3655017  50.9349987  76.7205006  60.0045017
  51.8919987  76.7205006  60.0045017  50.6949987  77.6475006  60.0045017
  52.3199987  76.7675006  55.6845017  53.2769987  76.7675006  55.6845017
  52.0799987  77.6945006  55.6845017  39.5309987  92.4825006  55.3035017
  40.4879987  92.4825006  55.3035017  39.2909987  93.4095006  55.3035017
  48.3829987  93.7655006  53.6725017  49.3399987  93.7655006  53.6725017
  48.1429987  94.6925006  53.6725017  55.0649987  93.2815006  56.3765017
  56.0219987  93.2815006  56.3765017  54.8249987  94.2085006  56.3765017
  41.3169987  93.4595006  52.2785017  42.2739987  93.4595006  52.2785017
  41.0769987  94.3865006  52.2785017  71.3129987  88.1365006  60.2065017
  72.2699987  88.1365006  60.2065017  71.0729987  89.0635006  60.2065017
  57.5349987  82.8275006  57.4725017  58.4919987  82.8275006  57.4725017
  57.2949987  83.7545006  57.4725017  70.0379987  80.2595006  58.3335017
  70.9949987  80.2595006  58.3335017  69.7979987  81.1865006  58.3335017
  71.8549987  79.5155006  60.2785017  72.8119987  79.5155006  60.2785017
  71.6149987  80.4425006  60.2785017  58.2959987  88.2405006  55.8445017
  59.2529987  88.2405006  55.8445017  58.0559987  89.1675006  55.8445017
  71.3589987  89.6505006  57.7195017  72.3159987  89.6505006  57.7195017
  71.1189987  90.5775006  57.7195017  67.4319987  85.1285006  55.9655017
  68.3889987  85.1285006  55.9655017  67.1919987  86.0555006  55.9655017
  67.4909987  83.6495006  52.9485017  68.4479987  83.6495006  52.9485017
  67.2509987  84.5765006  52.9485017  70.8759987  85.3435006  56.9065017
  71.8329987  85.3435006  56.9065017  70.6359987  86.2705006  56.9065017
  62.4949987  86.0475006  58.7435017  63.4519987  86.0475006  58.7435017
  62.2549987  86.9745006  58.7435017  69.7339987  84.5295006  54.5325017
  70.6909987  84.5295006  54.5325017  69.4939987  85.4565006  54.5325017
  67.4659987  91.2725006  58.0415017  68.4229987  91.2725006  58.0415017
  67.2259987  92.1995006  58.0415017  74.5939987  90.6285006  52.7675017
  75.5509987  90.6285006  52.7675017  74.3539987  91.5555006  52.7675017
  60.6109987  92.9885006  58.2365017  61.5679987  92.9885006  58.2365017
  60.3709987  93.9155006  58.2365017  70.0269987  93.4115006  53.4035017
  70.9839987  93.4115006  53.4035017  69.7869987  94.3385006  53.4035017
  69.7219987  93.3365006  56.1865017  70.6789987  93.3365006  56.1865017
  69.4819987  94.2635006  56.1865017  71.2139987  85.5355006  52.2975017
  72.1709987  85.5355006  52.2975017  70.9739987  86.4625006  52.2975017
  66.7329987  79.5025006  52.8695017  67.6899987  79.5025006  52.8695017
  66.4929987  80.4295006  52.8695017  62.5699987  82.4525006  58.2305017
  63.5269987  82.4525006  58.2305017  62.3299987  83.3795006  58.2305017
  68.0669987  82.8405006  57.0925017  69.0239987  82.8405006  57.0925017
  67.8269987  83.7675006  57.0925017  65.1829987  79.8295006  59.3175017
  66.1399987  79.8295006  59.3175017  64.9429987  80.7565006  59.3175017
  59.9509987  81.4385006  58.1355017  60.9079987  81.4385006  58.1355017
  59.7109987  82.3655006  58.1355017  63.5899987  81.4945006  55.8115017
  64.5469987  81.4945006  55.8115017  63.3499987  82.4215006  55.8115017
  62.2849987  82.6845006  53.3885017  63.2419987  82.6845006  53.3885017
  62.0449987  83.6115006  53.3885017  65.6359987  87.1725006  55.3195017
  66.5929987  87.1725006  55.3195017  65.3959987  88.0995006  55.3195017
  70.1799987  81.9285006  55.1445017  71.1369987  81.9285006  55.1445017
  69.9399987  82.8555006  55.1445017  67.2689987  88.8285006  53.9715017
  68.2259987  88.8285006  53.9715017  67.0289987  89.7555006  53.9715017
  75.1299987  82.1085006  54.8855017  76.0869987  82.1085006  54.8855017
  74.8899987  83.0355006  54.8855017  73.4259987  90.9175006  55.3295017
  74.3829987  90.9175006  55.3295017  73.1859987  91.8445006  55.3295017
  63.1179987  90.0625006  58.5245017  64.0749987  90.0625006  58.5245017
  62.8779987  90.9895006  58.5245017  58.8789987  84.9335006  53.0295017
  59.8359987  84.9335006  53.0295017  58.6389987  85.8605006  53.0295017
  64.4689987  87.7385006  57.9255017  65.4259987  87.7385006  57.9255017
  64.2289987  88.6655006  57.9255017  63.2099987  92.7285006  57.5885017
  64.1669987  92.7285006  57.5885017  62.9699987  93.6555006  57.5885017
  70.8489987  88.9385006  53.0875017  71.8059987  88.9385006  53.0875017
  70.6089987  89.8655006  53.0875017  75.3019987  93.3325006  53.3535017
  76.2589987  93.3325006  53.3535017  75.0619987  94.2595006  53.3535017
  71.9439987  87.3125006  55.1755017  72.9009987  87.3125006  55.1755017
  71.7039987  88.2395006  55.1755017  64.9439987  90.0395006  51.6075017
  65.9009987  90.0395006  51.6075017  64.7039987  90.9665006  51.6075017
  63.7719987  89.5615006  54.0665017  64.7289987  89.5615006  54.0665017
  63.5319987  90.4885006  54.0665017  60.2929987  86.8135006  54.5725017
  61.2499987  86.8135006  54.5725017  60.0529987  87.7405006  54.5725017
  66.5489987  91.2725006  54.8015017  67.5059987  91.2725006  54.8015017
  66.3089987  92.1995006  54.8015017  66.0819987  80.8635006  56.7885017
  67.0389987  80.8635006  56.7885017  65.8419987  81.7905006  56.7885017
  66.9499987  77.9345006  57.7205017  67.9069987  77.9345006  57.7205017
  66.7099987  78.8615006  57.7205017  63.9089987  92.2675006  54.7785017
  64.8659987  92.2675006  54.7785017  63.6689987  93.1945006  54.7785017
  62.5849987  79.0135006  54.4505017  63.5419987  79.0135006  54.4505017
  62.3449987  79.9405006  54.4505017  60.8739987  89.4255006  53.4465017
  61.8309987  89.4255006  53.4465017  60.6339987  90.3525006  53.4465017
  66.9569987  91.8975006  51.7315017  67.9139987  91.8975006  51.7315017
  66.7169987  92.8245006  51.7315017  71.5379987  91.6605006  51.9415017
  72.4949987  91.6605006  51.9415017  71.2979987  92.5875006  51.9415017
  62.4119987  87.5675006  51.7625017  63.3689987  87.5675006  51.7625017
  62.1719987  88.4945006  51.7625017  67.8449987  88.6825006  51.4805017
  68.8019987  88.6825006  51.4805017  67.6049987  89.6095006  51.4805017
  63.6149987  85.5955006  54.1575017  64.5719987  85.5955006  54.1575017
  63.3749987  86.5225006  54.1575017  64.6959987  83.8035006  52.3915017
  65.6529987  83.8035006  52.3915017  64.4559987  84.7305006  52.3915017
  74.0649987  86.1475006  51.8325017  75.0219987  86.1475006  51.8325017
  73.8249987  87.0745006  51.8325017  64.5469987  94.5125006  53.4505017
  65.5039987  94.5125006  53.4505017  64.3069987  95.4395006  53.4505017
  58.1529987  89.0955006  52.8215017  59.1099987  89.0955006  52.8215017
  57.9129987  90.0225006  52.8215017  56.9139987  94.4825006  57.9055017
  57.8709987  94.4825006  57.9055017  56.6739987  95.4095006  57.9055017
  74.6139987  87.0135006  55.7835017  75.5709987  87.0135006  55.7835017
  74.3739987  87.9405006  55.7835017  75.2399987  84.9645006  54.0505017
  76.1969987  84.9645006  54.0505017  74.9999987  85.8915006  54.0505017
  73.5879987  82.2165006  52.5645017  74.5449987  82.2165006  52.5645017
  73.3479987  83.1435006  52.5645017  72.4019987  81.1855006  56.5815017
  73.3589987  81.1855006  56.5815017  72.1619987  82.1125006  56.5815017
  64.2329987  76.7125006  58.3645017  65.1899987  76.7125006  58.3645017
  63.9929987  77.6395006  58.3645017  58.6989987  92.7865006  55.2385017
  59.6559987  92.7865006  55.2385017  58.4589987  93.7135006  55.2385017
  60.4139987  78.5525006  52.7585017  61.3709987  78.5525006  52.7585017
  60.1739987  79.4795006  52.7585017  65.2959987  78.7395006  55.2525017
  66.2529987  78.7395006  55.2525017  65.0559987  79.6665006  55.2525017
  67.2459987  93.7595006  53.6455017  68.2029987  93.7595006  53.6455017
  67.0059987  94.6865006  53.6455017  60.2059987  93.4855006  52.2625017
  61.1629987  93.4855006  52.2625017  59.9659987  94.4125006  52.2625017
  76.4289987  82.8925006  57.4205017  77.3859987  82.8925006  57.4205017
  76.1889987  83.8195006  57.4205017  77.1149987  88.3245006  55.8455017
  78.0719987  88.3245006  55.8455017  76.8749987  89.2515006  55.8455017
  88.8949987  91.7525006  59.1645017  89.8519987  91.7525006  59.1645017
  88.6549987  92.6795006  59.1645017  86.2979987  85.1605006  55.9625017
  87.2549987  85.1605006  55.9625017  86.0579987  86.0875006  55.9625017
  86.3719987  83.6875006  52.9415017  87.3289987  83.6875006  52.9415017
  86.1319987  84.6145006  52.9415017  89.7719987  85.4085006  56.9085017
  90.7289987  85.4085006  56.9085017  89.5319987  86.3355006  56.9085017
  81.3559987  86.0235006  58.8155017  82.3129987  86.0235006  58.8155017
  81.1159987  86.9505006  58.8155017  88.6079987  84.5305006  54.5455017
  89.5649987  84.5305006  54.5455017  88.3679987  85.4575006  54.5455017
  86.3219987  91.2565006  58.0365017  87.2789987  91.2565006  58.0365017
  86.0819987  92.1835006  58.0365017  92.3199987  76.2755006  54.3965017
  93.2769987  76.2755006  54.3965017  92.0799987  77.2025006  54.3965017
  80.2939987  85.1005006  56.4345017  81.2509987  85.1005006  56.4345017
  80.0539987  86.0275006  56.4345017  93.4469987  90.6335006  52.7875017
  94.4039987  90.6335006  52.7875017  93.2069987  91.5605006  52.7875017
  85.7979987  94.1935006  56.4385017  86.7549987  94.1935006  56.4385017
  85.5579987  95.1205006  56.4385017  88.8689987  93.4045006  53.4095017
  89.8259987  93.4045006  53.4095017  88.6289987  94.3315006  53.4095017
  88.5519987  93.2865006  56.1345017  89.5089987  93.2865006  56.1345017
  88.3119987  94.2135006  56.1345017  90.0689987  85.5715006  52.2875017
  91.0259987  85.5715006  52.2875017  89.8289987  86.4985006  52.2875017
  85.6699987  79.4825006  52.8455017  86.6269987  79.4825006  52.8455017
  85.4299987  80.4095006  52.8455017  81.3609987  82.4615006  58.2215017
  82.3179987  82.4615006  58.2215017  81.1209987  83.3885006  58.2215017
  82.4929987  79.8815006  51.9865017  83.4499987  79.8815006  51.9865017
  82.2529987  80.8085006  51.9865017  75.7569987  79.5955006  59.0515017
  76.7139987  79.5955006  59.0515017  75.5169987  80.5225006  59.0515017
  77.0519987  80.3445006  54.4785017  78.0089987  80.3445006  54.4785017
  76.8119987  81.2715006  54.4785017  78.7879987  81.4645006  58.1735017
  79.7449987  81.4645006  58.1735017  78.5479987  82.3915006  58.1735017
  81.1169987  82.6845006  53.3805017  82.0739987  82.6845006  53.3805017
  80.8769987  83.6115006  53.3805017  80.2839987  78.7485006  57.6315017
  81.2409987  78.7485006  57.6315017  80.0439987  79.6755006  57.6315017
  84.4789987  87.2395006  55.3265017  85.4359987  87.2395006  55.3265017
  84.2389987  88.1665006  55.3265017  88.3469987  80.0365006  53.4815017
  89.3039987  80.0365006  53.4815017  88.1069987  80.9635006  53.4815017
  89.0989987  81.8895006  55.1055017  90.0559987  81.8895006  55.1055017
  88.8589987  82.8165006  55.1055017  86.6079987  88.6875006  54.3155017
  87.5649987  88.6875006  54.3155017  86.3679987  89.6145006  54.3155017
  93.9709987  82.0905006  54.8915017  94.9279987  82.0905006  54.8915017
  93.7309987  83.0175006  54.8915017  92.2269987  90.8985006  55.3265017
  93.1839987  90.8985006  55.3265017  91.9869987  91.8255006  55.3265017
  77.7299987  84.9005006  53.0555017  78.6869987  84.9005006  53.0555017
  77.4899987  85.8275006  53.0555017  83.3919987  87.7315006  57.9665017
  84.3489987  87.7315006  57.9665017  83.1519987  88.6585006  57.9665017
  89.6929987  88.9595006  53.1425017  90.6499987  88.9595006  53.1425017
  89.4529987  89.8865006  53.1425017  94.1689987  93.3325006  53.3665017
  95.1259987  93.3325006  53.3665017  93.9289987  94.2595006  53.3665017
  90.5029987  87.6155006  55.3735017  91.4599987  87.6155006  55.3735017
  90.2629987  88.5425006  55.3735017  83.7969987  90.0385006  51.6085017
  84.7539987  90.0385006  51.6085017  83.5569987  90.9655006  51.6085017
  82.6389987  89.5665006  54.0705017  83.5959987  89.5665006  54.0705017
  82.3989987  90.4935006  54.0705017  79.1509987  86.8245006  54.5895017
  80.1079987  86.8245006  54.5895017  78.9109987  87.7515006  54.5895017
  87.7329987  79.1005006  55.9295017  88.6899987  79.1005006  55.9295017
  87.4929987  80.0275006  55.9295017  85.4239987  91.2465006  54.8195017
  86.3809987  91.2465006  54.8195017  85.1839987  92.1735006  54.8195017
  82.7929987  92.2755006  54.7955017  83.7499987  92.2755006  54.7955017
  82.5529987  93.2025006  54.7955017  81.4909987  79.0125006  54.4005017
  82.4479987  79.0125006  54.4005017  81.2509987  79.9395006  54.4005017
  79.7179987  89.4345006  53.4655017  80.6749987  89.4345006  53.4655017
  79.4779987  90.3615006  53.4655017  78.0549987  82.0895006  52.5095017
  79.0119987  82.0895006  52.5095017  77.8149987  83.0165006  52.5095017
  85.8199987  91.8945006  51.7515017  86.7769987  91.8945006  51.7515017
  85.5799987  92.8215006  51.7515017  90.3899987  91.6585006  51.9405017
  91.3469987  91.6585006  51.9405017  90.1499987  92.5855006  51.9405017
  81.2759987  87.5755006  51.7415017  82.2329987  87.5755006  51.7415017
  81.0359987  88.5025006  51.7415017  86.7019987  88.6825006  51.5345017
  87.6589987  88.6825006  51.5345017  86.4619987  89.6095006  51.5345017
  82.4579987  85.5995006  54.1515017  83.4149987  85.5995006  54.1515017
  82.2179987  86.5265006  54.1515017  83.5569987  83.8195006  52.3895017
  84.5139987  83.8195006  52.3895017  83.3169987  84.7465006  52.3895017
  92.9159987  86.1485006  51.8215017  93.8729987  86.1485006  51.8215017
  92.6759987  87.0755006  51.8215017  83.4139987  94.4935006  53.4325017
  84.3709987  94.4935006  53.4325017  83.1739987  95.4205006  53.4325017
  76.9889987  89.1175006  52.9175017  77.9459987  89.1175006  52.9175017
  76.7489987  90.0445006  52.9175017  93.3899987  87.0825006  55.8015017
  94.3469987  87.0825006  55.8015017  93.1499987  88.0095006  55.8015017
  93.7949987  85.1095006  57.6405017  94.7519987  85.1095006  57.6405017
  93.5549987  86.0365006  57.6405017  94.0919987  84.9675006  54.0505017
  95.0489987  84.9675006  54.0505017  93.8519987  85.8945006  54.0505017
  92.4429987  82.2055006  52.5635017  93.3999987  82.2055006  52.5635017
  92.2029987  83.1325006  52.5635017  91.6389987  83.5875006  58.2135017
  92.5959987  83.5875006  58.2135017  91.3989987  84.5145006  58.2135017
  91.6919987  79.6555006  51.6925017  92.6489987  79.6555006  51.6925017
  91.4519987  80.5825006  51.6925017  91.3099987  81.2235006  56.6495017
  92.2669987  81.2235006  56.6495017  91.0699987  82.1505006  56.6495017
  91.9419987  78.4775006  56.7235017  92.8989987  78.4775006  56.7235017
  91.7019987  79.4045006  56.7235017  93.7599987  78.5245006  53.2625017
  94.7169987  78.5245006  53.2625017  93.5199987  79.4515006  53.2625017
  76.0559987  78.5115006  56.3955017  77.0129987  78.5115006  56.3955017
  75.8159987  79.4385006  56.3955017  90.8239987  93.4755006  58.3415017
  91.7809987  93.4755006  58.3415017  90.5839987  94.4025006  58.3415017
  90.0149987  76.7655006  55.6635017  90.9719987  76.7655006  55.6635017
  89.7749987  77.6925006  55.6635017  77.2479987  92.4745006  55.2645017
  78.2049987  92.4745006  55.2645017  77.0079987  93.4015006  55.2645017
  84.1989987  78.7675006  55.2515017  85.1559987  78.7675006  55.2515017
  83.9589987  79.6945006  55.2515017  86.0929987  93.7655006  53.6585017
  87.0499987  93.7655006  53.6585017  85.8529987  94.6925006  53.6585017
  92.8029987  93.2855006  56.3465017  93.7599987  93.2855006  56.3465017
  92.5629987  94.2125006  56.3465017  79.0309987  93.4505006  52.2575017
  79.9879987  93.4505006  52.2575017  78.7909987  94.3775006  52.2575017
 106.4279987  85.9225006  58.4935017 107.3849987  85.9225006  58.4935017
 106.1879987  86.8495006  58.4935017  95.2269987  82.8405006  57.5105017
  96.1839987  82.8405006  57.5105017  94.9869987  83.7675006  57.5105017
 107.7239987  80.6585006  57.9385017 108.6809987  80.6585006  57.9385017
 107.4839987  81.5855006  57.9385017  95.9709987  88.3005006  55.8615017
  96.9279987  88.3005006  55.8615017  95.7309987  89.2275006  55.8615017
 105.1369987  85.1755006  55.9845017 106.0939987  85.1755006  55.9845017
 104.8969987  86.1025006  55.9845017 105.1909987  83.6685006  52.9625017
 106.1479987  83.6685006  52.9625017 104.9509987  84.5955006  52.9625017
 107.4619987  84.5295006  54.5685017 108.4189987  84.5295006  54.5685017
 107.2219987  85.4565006  54.5685017 104.6709987  94.2055006  56.4485017
 105.6279987  94.2055006  56.4485017 104.4309987  95.1325006  56.4485017
  98.3429987  92.9995006  58.2045017  99.2999987  92.9995006  58.2045017
  98.1029987  93.9265006  58.2045017 107.7299987  93.3775006  53.3985017
 108.6869987  93.3775006  53.3985017 107.4899987  94.3045006  53.3985017
 107.2409987  93.1445006  56.0245017 108.1979987  93.1445006  56.0245017
 107.0009987  94.0715006  56.0245017 104.5259987  79.4885006  52.8765017
 105.4829987  79.4885006  52.8765017 104.2859987  80.4155006  52.8765017
 100.2439987  82.4855006  58.2025017 101.2009987  82.4855006  58.2025017
 100.0039987  83.4125006  58.2025017 105.7879987  82.8615006  57.0235017
 106.7449987  82.8615006  57.0235017 105.5479987  83.7885006  57.0235017
 106.0349987  82.1225006  59.4445017 106.9919987  82.1225006  59.4445017
 105.7949987  83.0495006  59.4445017 101.3389987  79.8795006  51.9885017
 102.2959987  79.8795006  51.9885017 101.0989987  80.8065006  51.9885017
  95.8719987  80.3145006  54.4245017  96.8289987  80.3145006  54.4245017
  95.6319987  81.2415006  54.4245017  97.7069987  81.4965006  58.0875017
  98.6639987  81.4965006  58.0875017  97.4669987  82.4235006  58.0875017
 101.3239987  81.4665006  55.7975017 102.2809987  81.4665006  55.7975017
 101.0839987  82.3935006  55.7975017 100.0059987  82.6755006  53.3985017
 100.9629987  82.6755006  53.3985017  99.7659987  83.6025006  53.3985017
  99.1419987  78.7905006  57.5975017 100.0989987  78.7905006  57.5975017
  98.9019987  79.7175006  57.5975017 103.3629987  87.2055006  55.3265017
 104.3199987  87.2055006  55.3265017 103.1229987  88.1325006  55.3265017
 107.1479987  80.0485006  53.4935017 108.1049987  80.0485006  53.4935017
 106.9079987  80.9755006  53.4935017   0.1209987  82.0365006  55.2055017
   1.0779987  82.0365006  55.2055017  -0.1190013  82.9635006  55.2055017
 105.4509987  88.6715006  54.3235017 106.4079987  88.6715006  54.3235017
 105.2109987  89.5985006  54.3235017 100.8279987  90.0325006  58.4835017
 101.7849987  90.0325006  58.4835017 100.5879987  90.9595006  58.4835017
  96.5979987  84.9035006  53.0565017  97.5549987  84.9035006  53.0565017
  96.3579987  85.8305006  53.0565017 100.9419987  92.7315006  57.5515017
 101.8989987  92.7315006  57.5515017 100.7019987  93.6585006  57.5515017
 102.6639987  90.0445006  51.6095017 103.6209987  90.0445006  51.6095017
 102.4239987  90.9715006  51.6095017 101.4979987  89.5625006  54.0785017
 102.4549987  89.5625006  54.0785017 101.2579987  90.4895006  54.0785017
  97.9999987  86.8155006  54.5675017  98.9569987  86.8155006  54.5675017
  97.7599987  87.7425006  54.5675017 106.3229987  79.3135006  55.9435017
 107.2799987  79.3135006  55.9435017 106.0829987  80.2405006  55.9435017
 104.2789987  91.2425006  54.8175017 105.2359987  91.2425006  54.8175017
 104.0389987  92.1695006  54.8175017 103.8279987  80.8605006  56.7675017
 104.7849987  80.8605006  56.7675017 103.5879987  81.7875006  56.7675017
 104.7479987  77.9525006  57.6715017 105.7049987  77.9525006  57.6715017
 104.5079987  78.8795006  57.6715017 101.6359987  92.2695006  54.7855017
 102.5929987  92.2695006  54.7855017 101.3959987  93.1965006  54.7855017
 100.3239987  78.9865006  54.3975017 101.2809987  78.9865006  54.3975017
 100.0839987  79.9135006  54.3975017  98.5629987  89.4265006  53.4425017
  99.5199987  89.4265006  53.4425017  98.3229987  90.3535006  53.4425017
  96.9119987  82.1085006  52.5745017  97.8689987  82.1085006  52.5745017
  96.6719987  83.0355006  52.5745017  96.6719987  90.8115006  57.4145017
  97.6289987  90.8115006  57.4145017  96.4319987  91.7385006  57.4145017
 104.7059987  91.8815006  51.7475017 105.6629987  91.8815006  51.7475017
 104.4659987  92.8085006  51.7475017 100.1419987  87.5865006  51.7935017
 101.0989987  87.5865006  51.7935017  99.9019987  88.5135006  51.7935017
 105.5899987  88.6675006  51.5425017 106.5469987  88.6675006  51.5425017
 105.3499987  89.5945006  51.5425017 101.3449987  85.5965006  54.1765017
 102.3019987  85.5965006  54.1765017 101.1049987  86.5235006  54.1765017
 102.4109987  83.8195006  52.3945017 103.3679987  83.8195006  52.3945017
 102.1709987  84.7465006  52.3945017 102.2589987  94.5205006  53.4455017
 103.2159987  94.5205006  53.4455017 102.0189987  95.4475006  53.4455017
  95.8219987  89.1165006  52.9245017  96.7789987  89.1165006  52.9245017
  95.5819987  90.0435006  52.9245017  94.9099987  78.5345006  56.3575017
  95.8669987  78.5345006  56.3575017  94.6699987  79.4615006  56.3575017
  97.4519987  76.7735006  58.4615017  98.4089987  76.7735006  58.4615017
  97.2119987  77.7005006  58.4615017  96.1769987  76.5335006  54.3175017
  97.1339987  76.5335006  54.3175017  95.9369987  77.4605006  54.3175017
 107.3529987  76.6245006  60.1115017 108.3099987  76.6245006  60.1115017
 107.1129987  77.5515006  60.1115017  96.1139987  92.4895006  55.2645017
  97.0709987  92.4895006  55.2645017  95.8739987  93.4165006  55.2645017
  98.0199987  78.4795006  52.7885017  98.9769987  78.4795006  52.7885017
  97.7799987  79.4065006  52.7885017 103.0189987  78.7305006  55.2375017
 103.9759987  78.7305006  55.2375017 102.7789987  79.6575006  55.2375017
 104.9329987  93.7705006  53.6425017 105.8899987  93.7705006  53.6425017
 104.6929987  94.6975006  53.6425017  97.8919987  93.4505006  52.2585017
  98.8489987  93.4505006  52.2585017  97.6519987  94.3775006  52.2585017
  12.1989987 104.7535006  58.4755017  13.1559987 104.7535006  58.4755017
  11.9589987 105.6805006  58.4755017   1.0649987 101.7875006  57.3715017
   2.0219987 101.7875006  57.3715017   0.8249987 102.7145006  57.3715017
   7.5799987 102.8915006  59.8815017   8.5369987 102.8915006  59.8815017
   7.3399987 103.8185006  59.8815017  12.0089987 107.3755006  57.4965017
  12.9659987 107.3755006  57.4965017  11.7689987 108.3025006  57.4965017
   1.6689987 107.0715006  55.8995017   2.6259987 107.0715006  55.8995017
   1.4289987 107.9985006  55.8995017  10.8899987 104.0345006  55.9715017
  11.8469987 104.0345006  55.9715017  10.6499987 104.9615006  55.9715017
  10.9369987 102.5365006  52.9765017  11.8939987 102.5365006  52.9765017
  10.6969987 103.4635006  52.9765017  14.3139987 104.2235006  56.8905017
  15.2709987 104.2235006  56.8905017  14.0739987 105.1505006  56.8905017
  13.1729987 103.3865006  54.5555017  14.1299987 103.3865006  54.5555017
  12.9329987 104.3135006  54.5555017  16.8989987  95.1325006  54.4015017
  17.8559987  95.1325006  54.4015017  16.6589987  96.0595006  54.4015017
   4.9639987 103.9085006  56.3655017   5.9209987 103.9085006  56.3655017
   4.7239987 104.8355006  56.3655017  14.6289987 104.4195006  52.2915017
  15.5859987 104.4195006  52.2915017  14.3889987 105.3465006  52.2915017
  10.2309987  98.3495006  52.8625017  11.1879987  98.3495006  52.8625017
   9.9909987  99.2765006  52.8625017  11.4979987 101.6915006  57.0585017
  12.4549987 101.6915006  57.0585017  11.2579987 102.6185006  57.0585017
   7.0909987  98.7335006  51.9885017   8.0479987  98.7335006  51.9885017
   6.8509987  99.6605006  51.9885017   0.5079987  97.7815006  59.5085017
   1.4649987  97.7815006  59.5085017   0.2679987  98.7085006  59.5085017
   1.8029987  99.1645006  54.5385017   2.7599987  99.1645006  54.5385017
   1.5629987 100.0915006  54.5385017   7.0409987 100.3245006  55.8105017
   7.9979987 100.3245006  55.8105017   6.8009987 101.2515006  55.8105017
   5.7149987 101.5185006  53.3955017   6.6719987 101.5185006  53.3955017
   5.4749987 102.4455006  53.3955017   9.0949987 106.0865006  55.3215017
  10.0519987 106.0865006  55.3215017   8.8549987 107.0135006  55.3215017
  12.9189987  98.8845006  53.4755017  13.8759987  98.8845006  53.4755017
  12.6789987  99.8115006  53.4755017  13.6419987 100.7535006  55.0935017
  14.5989987 100.7535006  55.0935017  13.4019987 101.6805006  55.0935017
  11.1869987 107.5265006  54.3475017  12.1439987 107.5265006  54.3475017
  10.9469987 108.4535006  54.3475017  18.5749987 100.9495006  54.8705017
  19.5319987 100.9495006  54.8705017  18.3349987 101.8765006  54.8705017
   2.2809987 103.7475006  53.0565017   3.2379987 103.7475006  53.0565017
   2.0409987 104.6745006  53.0565017  14.2439987 107.7435006  53.1655017
  15.2009987 107.7435006  53.1655017  14.0039987 108.6705006  53.1655017
  15.0779987 106.3895006  55.3475017  16.0349987 106.3895006  55.3475017
  14.8379987 107.3165006  55.3475017   3.6659987 105.6765006  54.5195017
   4.6229987 105.6765006  54.5195017   3.4259987 106.6035006  54.5195017
  12.3219987  97.9495006  55.9515017  13.2789987  97.9495006  55.9515017
  12.0819987  98.8765006  55.9515017  10.3289987  96.7625006  57.6455017
  11.2859987  96.7625006  57.6455017  10.0889987  97.6895006  57.6455017
   6.0469987  97.8625006  54.4055017   7.0039987  97.8625006  54.4055017
   5.8069987  98.7895006  54.4055017   2.5939987 100.9725006  52.6095017
   3.5509987 100.9725006  52.6095017   2.3539987 101.8995006  52.6095017
   5.8459987 106.4215006  51.7735017   6.8029987 106.4215006  51.7735017
   5.6059987 107.3485006  51.7735017  11.1579987 107.4965006  51.5615017
  12.1149987 107.4965006  51.5615017  10.9179987 108.4235006  51.5615017
   7.0559987 104.4575006  54.1225017   8.0129987 104.4575006  54.1225017
   6.8159987 105.3845006  54.1225017   8.1349987 102.6345006  52.3865017
   9.0919987 102.6345006  52.3865017   7.8949987 103.5615006  52.3865017
  17.5039987 104.9915006  51.8345017  18.4609987 104.9915006  51.8345017
  17.2639987 105.9185006  51.8345017   1.5699987 107.8745006  52.6925017
   2.5269987 107.8745006  52.6925017   1.3299987 108.8015006  52.6925017
  17.9929987 105.8495006  55.8155017  18.9499987 105.8495006  55.8155017
  17.7529987 106.7765006  55.8155017  18.6649987 103.7935006  54.0335017
  19.6219987 103.7935006  54.0335017  18.4249987 104.7205006  54.0335017
  17.0259987 101.0635006  52.5685017  17.9829987 101.0635006  52.5685017
  16.7859987 101.9905006  52.5685017  16.2679987  98.5125006  51.6915017
  17.2249987  98.5125006  51.6915017  16.0279987  99.4395006  51.6915017
  15.8489987 100.0605006  56.5545017  16.8059987 100.0605006  56.5545017
  15.6089987 100.9875006  56.5545017  16.5239987  97.3155006  56.6985017
  17.4809987  97.3155006  56.6985017  16.2839987  98.2425006  56.6985017
  18.3349987  97.3775006  53.2555017  19.2919987  97.3775006  53.2555017
  18.0949987  98.3045006  53.2555017   0.8879987  97.3155006  56.3705017
   1.8449987  97.3155006  56.3705017   0.6479987  98.2425006  56.3705017
   3.1029987  95.6405006  58.4905017   4.0599987  95.6405006  58.4905017
   2.8629987  96.5675006  58.4905017   1.9139987  95.3865006  54.3125017
   2.8709987  95.3865006  54.3125017   1.6739987  96.3135006  54.3125017
   7.6489987  95.5485006  58.3845017   8.6059987  95.5485006  58.3845017
   7.4089987  96.4755006  58.3845017  14.5819987  95.6165006  55.6975017
  15.5389987  95.6165006  55.6975017  14.3419987  96.5435006  55.6975017
   3.7409987  97.3445006  52.7895017   4.6979987  97.3445006  52.7895017
   3.5009987  98.2715006  52.7895017   8.8039987  97.6035006  55.2425017
   9.7609987  97.6035006  55.2425017   8.5639987  98.5305006  55.2425017
  34.0679987 106.0455006  60.3825017  35.0249987 106.0455006  60.3825017
  33.8279987 106.9725006  60.3825017  19.8579987 101.7345006  57.4105017
  20.8149987 101.7345006  57.4105017  19.6179987 102.6615006  57.4105017
  32.3459987  99.0655006  58.2945017  33.3029987  99.0655006  58.2945017
  32.1059987  99.9925006  58.2945017  30.8219987 107.3785006  57.5265017
  31.7789987 107.3785006  57.5265017  30.5819987 108.3055006  57.5265017
  20.4779987 107.0725006  55.9045017  21.4349987 107.0725006  55.9045017
  20.2379987 107.9995006  55.9045017  29.7169987 103.9755006  55.9695017
  30.6739987 103.9755006  55.9695017  29.4769987 104.9025006  55.9695017
  29.7909987 102.5375006  52.9615017  30.7479987 102.5375006  52.9615017
  29.5509987 103.4645006  52.9615017  33.1339987 104.2065006  56.8755017
  34.0909987 104.2065006  56.8755017  32.8939987 105.1335006  56.8755017
  24.7969987 104.8345006  58.8185017  25.7539987 104.8345006  58.8185017
  24.5569987 105.7615006  58.8185017  32.0359987 103.3925006  54.5385017
  32.9929987 103.3925006  54.5385017  31.7959987 104.3195006  54.5385017
  35.7449987  95.1285006  54.3855017  36.7019987  95.1285006  54.3855017
  35.5049987  96.0555006  54.3855017  23.7639987 103.9045006  56.3765017
  24.7209987 103.9045006  56.3765017  23.5239987 104.8315006  56.3765017
  33.4909987 104.4135006  52.2925017  34.4479987 104.4135006  52.2925017
  33.2509987 105.3405006  52.2925017  29.0919987  98.3475006  52.8535017
  30.0489987  98.3475006  52.8535017  28.8519987  99.2745006  52.8535017
  24.8419987 101.2655006  58.2815017  25.7989987 101.2655006  58.2815017
  24.6019987 102.1925006  58.2815017  30.3849987 101.6765006  57.0785017
  31.3419987 101.6765006  57.0785017  30.1449987 102.6035006  57.0785017
  31.5189987 101.1655006  59.8435017  32.4759987 101.1655006  59.8435017
  31.2789987 102.0925006  59.8435017  25.9239987  98.7385006  51.9805017
  26.8809987  98.7385006  51.9805017  25.6839987  99.6655006  51.9805017
  19.1679987  98.4415006  59.0335017  20.1249987  98.4415006  59.0335017
  18.9279987  99.3685006  59.0335017  20.4629987  99.1645006  54.4685017
  21.4199987  99.1645006  54.4685017  20.2229987 100.0915006  54.4685017
  22.2529987 100.3085006  58.1515017  23.2099987 100.3085006  58.1515017
  22.0129987 101.2355006  58.1515017  25.8919987 100.3375006  55.7995017
  26.8489987 100.3375006  55.7995017  25.6519987 101.2645006  55.7995017
  24.5759987 101.5295006  53.3965017  25.5329987 101.5295006  53.3965017
  24.3359987 102.4565006  53.3965017  23.7009987  97.6445006  57.6135017
  24.6579987  97.6445006  57.6135017  23.4609987  98.5715006  57.6135017
  27.9519987 106.0915006  55.3075017  28.9089987 106.0915006  55.3075017
  27.7119987 107.0185006  55.3075017  31.7749987  98.8835006  53.4965017
  32.7319987  98.8835006  53.4965017  31.5349987  99.8105006  53.4965017
  32.4999987 100.7845006  55.1485017  33.4569987 100.7845006  55.1485017
  32.2599987 101.7115006  55.1485017  30.0429987 107.5295006  54.3735017
  30.9999987 107.5295006  54.3735017  29.8029987 108.4565006  54.3735017
  37.4129987 100.9385006  54.8665017  38.3699987 100.9385006  54.8665017
  37.1729987 101.8655006  54.8665017  21.1689987 103.7325006  53.0765017
  22.1259987 103.7325006  53.0765017  20.9289987 104.6595006  53.0765017
  26.8479987 106.5675006  57.9815017  27.8049987 106.5675006  57.9815017
  26.6079987 107.4945006  57.9815017  33.1009987 107.7475006  53.1665017
  34.0579987 107.7475006  53.1665017  32.8609987 108.6745006  53.1665017
  33.9369987 106.3975006  55.3665017  34.8939987 106.3975006  55.3665017
  33.6969987 107.3245006  55.3665017  22.5489987 105.6685006  54.5415017
  23.5059987 105.6685006  54.5415017  22.3089987 106.5955006  54.5415017
  31.1599987  97.9615006  55.9675017  32.1169987  97.9615006  55.9675017
  30.9199987  98.8885006  55.9675017  28.3969987  99.6795006  56.7725017
  29.3539987  99.6795006  56.7725017  28.1569987 100.6065006  56.7725017
  29.2309987  96.7785006  57.6785017  30.1879987  96.7785006  57.6785017
  28.9909987  97.7055006  57.6785017  24.9069987  97.8575006  54.3965017
  25.8639987  97.8575006  54.3965017  24.6669987  98.7845006  54.3965017
  21.4839987 100.9605006  52.5795017  22.4409987 100.9605006  52.5795017
  21.2439987 101.8875006  52.5795017  24.7039987 106.4225006  51.7745017
  25.6609987 106.4225006  51.7745017  24.4639987 107.3495006  51.7745017
  30.0169987 107.4905006  51.5645017  30.9739987 107.4905006  51.5645017
  29.7769987 108.4175006  51.5645017  25.9079987 104.4575006  54.1465017
  26.8649987 104.4575006  54.1465017  25.6679987 105.3845006  54.1465017
  26.9909987 102.6445006  52.3895017  27.9479987 102.6445006  52.3895017
  26.7509987 103.5715006  52.3895017  36.3589987 104.9925006  51.8205017
  37.3159987 104.9925006  51.8205017  36.1189987 105.9195006  51.8205017
  20.4769987 107.7935006  52.7575017  21.4339987 107.7935006  52.7575017
  20.2369987 108.7205006  52.7575017  36.8339987 105.8715006  55.8105017
  37.7909987 105.8715006  55.8105017  36.5939987 106.7985006  55.8105017
  37.2219987 103.9855006  57.6505017  38.1789987 103.9855006  57.6505017
  36.9819987 104.9125006  57.6505017  37.5239987 103.7925006  54.0375017
  38.4809987 103.7925006  54.0375017  37.2839987 104.7195006  54.0375017
  35.8779987 101.0625006  52.5645017  36.8349987 101.0625006  52.5645017
  35.6379987 101.9895006  52.5645017  35.0179987 102.4595006  58.2145017
  35.9749987 102.4595006  58.2145017  34.7779987 103.3865006  58.2145017
  35.1239987  98.5135006  51.6915017  36.0809987  98.5135006  51.6915017
  34.8839987  99.4405006  51.6915017  34.7019987 100.0635006  56.6525017
  35.6589987 100.0635006  56.6525017  34.4619987 100.9905006  56.6525017
  35.3629987  97.3485006  56.7305017  36.3199987  97.3485006  56.7305017
  35.1229987  98.2755006  56.7305017  37.1889987  97.3715006  53.2665017
  38.1459987  97.3715006  53.2665017  36.9489987  98.2985006  53.2665017
  19.5199987  97.3685006  56.3965017  20.4769987  97.3685006  56.3965017
  19.2799987  98.2955006  56.3965017  36.4379987  96.2505006  59.1075017
  37.3949987  96.2505006  59.1075017  36.1979987  97.1775006  59.1075017
  20.7749987  95.3935006  54.3375017  21.7319987  95.3935006  54.3375017
  20.5349987  96.3205006  54.3375017  26.4939987  95.5615006  58.3745017
  27.4509987  95.5615006  58.3745017  26.2539987  96.4885006  58.3745017
  33.4439987  95.6205006  55.6915017  34.4009987  95.6205006  55.6915017
  33.2039987  96.5475006  55.6915017  22.5959987  97.3355006  52.7895017
  23.5529987  97.3355006  52.7895017  22.3559987  98.2625006  52.7895017
  27.6209987  97.5825006  55.2275017  28.5779987  97.5825006  55.2275017
  27.3809987  98.5095006  55.2275017  51.2339987  99.0265006  58.2385017
  52.1909987  99.0265006  58.2385017  50.9939987  99.9535006  58.2385017
  45.2089987 102.9155006  59.9345017  46.1659987 102.9155006  59.9345017
  44.9689987 103.8425006  59.9345017  49.6839987 107.4025006  57.5315017
  50.6409987 107.4025006  57.5315017  49.4439987 108.3295006  57.5315017
  39.3809987 107.0645006  55.9265017  40.3379987 107.0645006  55.9265017
  39.1409987 107.9915006  55.9265017  48.5709987 103.9665006  55.9195017
  49.5279987 103.9665006  55.9195017  48.3309987 104.8935006  55.9195017
  48.6489987 102.5385006  52.9625017  49.6059987 102.5385006  52.9625017
  48.4089987 103.4655006  52.9625017  51.9929987 104.2085006  56.8745017
  52.9499987 104.2085006  56.8745017  51.7529987 105.1355006  56.8745017
  50.8939987 103.3935006  54.5395017  51.8509987 103.3935006  54.5395017
  50.6539987 104.3205006  54.5395017  54.5929987  95.1245006  54.3585017
  55.5499987  95.1245006  54.3585017  54.3529987  96.0515006  54.3585017
  42.6119987 103.9195006  56.3825017  43.5689987 103.9195006  56.3825017
  42.3719987 104.8465006  56.3825017  52.3409987 104.4215006  52.2925017
  53.2979987 104.4215006  52.2925017  52.1009987 105.3485006  52.2925017
  47.9439987  98.3565006  52.8625017  48.9009987  98.3565006  52.8625017
  47.7039987  99.2835006  52.8625017  43.7309987 101.2815006  58.2475017
  44.6879987 101.2815006  58.2475017  43.4909987 102.2085006  58.2475017
  49.2089987 101.6765006  57.0475017  50.1659987 101.6765006  57.0475017
  48.9689987 102.6035006  57.0475017  44.7789987  98.7365006  51.9835017
  45.7359987  98.7365006  51.9835017  44.5389987  99.6635006  51.9835017
  39.3139987  99.1705006  54.4535017  40.2709987  99.1705006  54.4535017
  39.0739987 100.0975006  54.4535017  41.1389987 100.3625006  58.0615017
  42.0959987 100.3625006  58.0615017  40.8989987 101.2895006  58.0615017
  44.7599987 100.3155006  55.7965017  45.7169987 100.3155006  55.7965017
  44.5199987 101.2425006  55.7965017  43.4319987 101.5215006  53.3915017
  44.3889987 101.5215006  53.3915017  43.1919987 102.4485006  53.3915017
  42.5719987  97.6505006  57.6075017  43.5289987  97.6505006  57.6075017
  42.3319987  98.5775006  57.6075017  46.8039987 106.0965006  55.3025017
  47.7609987 106.0965006  55.3025017  46.5639987 107.0235006  55.3025017
  50.6339987  98.8875006  53.4875017  51.5909987  98.8875006  53.4875017
  50.3939987  99.8145006  53.4875017  51.3609987 100.7845006  55.1465017
  52.3179987 100.7845006  55.1465017  51.1209987 101.7115006  55.1465017
  48.9059987 107.5275006  54.3825017  49.8629987 107.5275006  54.3825017
  48.6659987 108.4545006  54.3825017  56.2489987 100.9535006  54.8765017
  57.2059987 100.9535006  54.8765017  56.0089987 101.8805006  54.8765017
  40.0299987 103.7395006  53.0585017  40.9869987 103.7395006  53.0585017
  39.7899987 104.6665006  53.0585017  45.6799987 106.5125006  57.9595017
  46.6369987 106.5125006  57.9595017  45.4399987 107.4395006  57.9595017
  51.9609987 107.7425006  53.1565017  52.9179987 107.7425006  53.1565017
  51.7209987 108.6695006  53.1565017  52.7889987 106.3975006  55.3685017
  53.7459987 106.3975006  55.3685017  52.5489987 107.3245006  55.3685017
  41.4319987 105.6755006  54.5935017  42.3889987 105.6755006  54.5935017
  41.1919987 106.6025006  54.5935017  50.0039987  97.9485006  55.9255017
  50.9609987  97.9485006  55.9255017  49.7639987  98.8755006  55.9255017
  47.2469987  99.6795006  56.8095017  48.2039987  99.6795006  56.8095017
  47.0069987 100.6065006  56.8095017  43.7509987  97.8495006  54.4165017
  44.7079987  97.8495006  54.4165017  43.5109987  98.7765006  54.4165017
  40.3419987 100.9615006  52.5785017  41.2989987 100.9615006  52.5785017
  40.1019987 101.8885006  52.5785017  43.5589987 106.4205006  51.7755017
  44.5159987 106.4205006  51.7755017  43.3189987 107.3475006  51.7755017
  48.8689987 107.4845006  51.5545017  49.8259987 107.4845006  51.5545017
  48.6289987 108.4115006  51.5545017  44.7549987 104.4565006  54.1465017
  45.7119987 104.4565006  54.1465017  44.5149987 105.3835006  54.1465017
  45.8469987 102.6455006  52.3895017  46.8039987 102.6455006  52.3895017
  45.6069987 103.5725006  52.3895017  55.2159987 104.9935006  51.8205017
  56.1729987 104.9935006  51.8205017  54.9759987 105.9205006  51.8205017
  39.3299987 107.7885006  52.7615017  40.2869987 107.7885006  52.7615017
  39.0899987 108.7155006  52.7615017  55.6859987 105.8585006  55.8065017
  56.6429987 105.8585006  55.8065017  55.4459987 106.7855006  55.8065017
  56.1019987 103.9615006  57.6575017  57.0589987 103.9615006  57.6575017
  55.8619987 104.8885006  57.6575017  56.3759987 103.7915006  54.0425017
  57.3329987 103.7915006  54.0425017  56.1359987 104.7185006  54.0425017
  54.7399987 101.0565006  52.5685017  55.6969987 101.0565006  52.5685017
  54.4999987 101.9835006  52.5685017  53.9059987 102.4175006  58.1875017
  54.8629987 102.4175006  58.1875017  53.6659987 103.3445006  58.1875017
  53.9749987  98.5475006  51.7355017  54.9319987  98.5475006  51.7355017
  53.7349987  99.4745006  51.7355017  53.5689987 100.0485006  56.6075017
  54.5259987 100.0485006  56.6075017  53.3289987 100.9755006  56.6075017
  56.0479987  97.3855006  53.2765017  57.0049987  97.3855006  53.2765017
  55.8079987  98.3125006  53.2765017  38.3479987  97.3675006  56.3505017
  39.3049987  97.3675006  56.3505017  38.1079987  98.2945006  56.3505017
  39.6139987  95.3885006  54.3205017  40.5709987  95.3885006  54.3205017
  39.3739987  96.3155006  54.3205017  50.8869987  95.5625006  59.9795017
  51.8439987  95.5625006  59.9795017  50.6469987  96.4895006  59.9795017
  41.4529987  97.3365006  52.7905017  42.4099987  97.3365006  52.7905017
  41.2129987  98.2635006  52.7905017  46.4519987  97.5835006  55.2365017
  47.4089987  97.5835006  55.2365017  46.2119987  98.5105006  55.2365017
  68.6939987 104.7875006  58.5155017  69.6509987 104.7875006  58.5155017
  68.4539987 105.7145006  58.5155017  57.5669987 101.7235006  57.4085017
  58.5239987 101.7235006  57.4085017  57.3269987 102.6505006  57.4085017
  68.5519987 107.3315006  57.4985017  69.5089987 107.3315006  57.4985017
  68.3119987 108.2585006  57.4985017  58.2199987 107.0715006  55.9145017
  59.1769987 107.0715006  55.9145017  57.9799987 107.9985006  55.9145017
  67.4619987 104.0245006  55.9805017  68.4189987 104.0245006  55.9805017
  67.2219987 104.9515006  55.9805017  67.5729987 102.5915006  52.9205017
  68.5299987 102.5915006  52.9205017  67.3329987 103.5185006  52.9205017
  70.8389987 104.1635006  56.8695017  71.7959987 104.1635006  56.8695017
  70.5989987 105.0905006  56.8695017  69.7629987 103.3795006  54.5295017
  70.7199987 103.3795006  54.5295017  69.5229987 104.3065006  54.5295017
  73.4529987  95.1345006  54.3905017  74.4099987  95.1345006  54.3905017
  73.2129987  96.0615006  54.3905017  61.4949987 103.9265006  56.3525017
  62.4519987 103.9265006  56.3525017  61.2549987 104.8535006  56.3525017
  71.3459987 104.6165006  52.4785017  72.3029987 104.6165006  52.4785017
  71.1059987 105.5435006  52.4785017  66.7989987  98.3495006  52.8665017
  67.7559987  98.3495006  52.8665017  66.5589987  99.2765006  52.8665017
  68.0619987 101.6865006  57.1015017  69.0189987 101.6865006  57.1015017
  67.8219987 102.6135006  57.1015017  63.6349987  98.7295006  51.9725017
  64.5919987  98.7295006  51.9725017  63.3949987  99.6565006  51.9725017
  58.1499987  99.1765006  54.4185017  59.1069987  99.1765006  54.4185017
  57.9099987 100.1035006  54.4185017  65.1279987  98.7525006  59.3315017
  66.0849987  98.7525006  59.3315017  64.8879987  99.6795006  59.3315017
  60.0039987 100.3365006  58.1085017  60.9609987 100.3365006  58.1085017
  59.7639987 101.2635006  58.1085017  63.6059987 100.3115006  55.7865017
  64.5629987 100.3115006  55.7865017  63.3659987 101.2385006  55.7865017
  62.2889987 101.5275006  53.3885017  63.2459987 101.5275006  53.3885017
  62.0489987 102.4545006  53.3885017  61.5029987  97.6195006  57.6665017
  62.4599987  97.6195006  57.6665017  61.2629987  98.5465006  57.6665017
  65.6579987 106.0895006  55.3375017  66.6149987 106.0895006  55.3375017
  65.4179987 107.0165006  55.3375017  69.4969987  98.9135006  53.4675017
  70.4539987  98.9135006  53.4675017  69.2569987  99.8405006  53.4675017
  70.2119987 100.7685006  55.1085017  71.1689987 100.7685006  55.1085017
  69.9719987 101.6955006  55.1085017  67.7639987 107.5085006  54.3915017
  68.7209987 107.5085006  54.3915017  67.5239987 108.4355006  54.3915017
  75.1409987 100.9485006  54.8585017  76.0979987 100.9485006  54.8585017
  74.9009987 101.8755006  54.8585017  58.8879987 103.7395006  53.0575017
  59.8449987 103.7395006  53.0575017  58.6479987 104.6665006  53.0575017
  64.5859987 106.5895006  58.0725017  65.5429987 106.5895006  58.0725017
  64.3459987 107.5165006  58.0725017  70.8159987 107.7095006  53.1475017
  71.7729987 107.7095006  53.1475017  70.5759987 108.6365006  53.1475017
  71.6389987 106.3555006  55.3295017  72.5959987 106.3555006  55.3295017
  71.3989987 107.2825006  55.3295017  60.2899987 105.6775006  54.5845017
  61.2469987 105.6775006  54.5845017  60.0499987 106.6045006  54.5845017
  68.9049987  97.9545006  55.9705017  69.8619987  97.9545006  55.9705017
  68.6649987  98.8815006  55.9705017  66.0919987  99.7195006  56.7915017
  67.0489987  99.7195006  56.7915017  65.8519987 100.6465006  56.7915017
  62.6039987  97.8595006  54.3855017  63.5609987  97.8595006  54.3855017
  62.3639987  98.7865006  54.3855017  59.1989987 100.9605006  52.5645017
  60.1559987 100.9605006  52.5645017  58.9589987 101.8875006  52.5645017
  62.4159987 106.4205006  51.7765017  63.3729987 106.4205006  51.7765017
  62.1759987 107.3475006  51.7765017  67.7499987 107.4665006  51.5555017
  68.7069987 107.4665006  51.5555017  67.5099987 108.3935006  51.5555017
  63.6349987 104.4605006  54.1505017  64.5919987 104.4605006  54.1505017
  63.3949987 105.3875006  54.1505017  64.7109987 102.6505006  52.3845017
  65.6679987 102.6505006  52.3845017  64.4709987 103.5775006  52.3845017
  74.0239987 104.9905006  51.8215017  74.9809987 104.9905006  51.8215017
  73.7839987 105.9175006  51.8215017  58.1859987 107.7885006  52.7695017
  59.1429987 107.7885006  52.7695017  57.9459987 108.7155006  52.7695017
  74.5549987 105.8485006  55.7825017  75.5119987 105.8485006  55.7825017
  74.3149987 106.7755006  55.7825017  74.9159987 103.9435006  57.6625017
  75.8729987 103.9435006  57.6625017  74.6759987 104.8705006  57.6625017
  75.1879987 103.7755006  54.0455017  76.1449987 103.7755006  54.0455017
  74.9479987 104.7025006  54.0455017  73.5469987 101.0675006  52.5535017
  74.5039987 101.0675006  52.5535017  73.3069987 101.9945006  52.5535017
  72.8289987  98.5215006  51.6965017  73.7859987  98.5215006  51.6965017
  72.5889987  99.4485006  51.6965017  72.4139987 100.0715006  56.5905017
  73.3709987 100.0715006  56.5905017  72.1739987 100.9985006  56.5905017
  73.0939987  97.3255006  56.7225017  74.0509987  97.3255006  56.7225017
  72.8539987  98.2525006  56.7225017  74.9039987  97.3845006  53.2605017
  75.8609987  97.3845006  53.2605017  74.6639987  98.3115006  53.2605017
  57.1959987  97.3225006  56.3155017  58.1529987  97.3225006  56.3155017
  56.9559987  98.2495006  56.3155017  59.6829987  95.6095006  58.5405017
  60.6399987  95.6095006  58.5405017  59.4429987  96.5365006  58.5405017
  58.4819987  95.4105006  54.3325017  59.4389987  95.4105006  54.3325017
  58.2419987  96.3375006  54.3325017  69.8189987  95.5755006  59.9925017
  70.7759987  95.5755006  59.9925017  69.5789987  96.5025006  59.9925017
  71.1379987  95.6055006  55.7295017  72.0949987  95.6055006  55.7295017
  70.8979987  96.5325006  55.7295017  60.3069987  97.3335006  52.8015017
  61.2639987  97.3335006  52.8015017  60.0669987  98.2605006  52.8015017
  65.3389987  97.5985006  55.2205017  66.2959987  97.5985006  55.2205017
  65.0989987  98.5255006  55.2205017  87.6709987 104.7785006  58.4475017
  88.6279987 104.7785006  58.4475017  87.4309987 105.7055006  58.4475017
  76.4209987 101.7145006  57.4475017  77.3779987 101.7145006  57.4475017
  76.1809987 102.6415006  57.4475017  77.1069987 103.9245006  59.5675017
  78.0639987 103.9245006  59.5675017  76.8669987 104.8515006  59.5675017
  87.3869987 107.3785006  57.5465017  88.3439987 107.3785006  57.5465017
  87.1469987 108.3055006  57.5465017  76.9849987 107.1095006  55.9785017
  77.9419987 107.1095006  55.9785017  76.7449987 108.0365006  55.9785017
  86.2949987 104.0425006  55.9845017  87.2519987 104.0425006  55.9845017
  86.0549987 104.9695006  55.9845017  86.3859987 102.5425006  52.9665017
  87.3429987 102.5425006  52.9665017  86.1459987 103.4695006  52.9665017
  89.7269987 104.2125006  56.8705017  90.6839987 104.2125006  56.8705017
  89.4869987 105.1395006  56.8705017  88.6169987 103.3885006  54.5485017
  89.5739987 103.3885006  54.5485017  88.3769987 104.3155006  54.5485017
  92.3119987  95.1285006  54.3845017  93.2689987  95.1285006  54.3845017
  92.0719987  96.0555006  54.3845017  80.2519987 103.9705006  56.4895017
  81.2089987 103.9705006  56.4895017  80.0119987 104.8975006  56.4895017
  90.0549987 104.4225006  52.2875017  91.0119987 104.4225006  52.2875017
  89.8149987 105.3495006  52.2875017  85.6579987  98.3495006  52.8675017
  86.6149987  98.3495006  52.8675017  85.4179987  99.2765006  52.8675017
  86.9329987 101.6685006  57.0785017  87.8899987 101.6685006  57.0785017
  86.6929987 102.5955006  57.0785017  82.4909987  98.7105006  51.9525017
  83.4479987  98.7105006  51.9525017  82.2509987  99.6375006  51.9525017
  77.0239987  99.1655006  54.4425017  77.9809987  99.1655006  54.4425017
  76.7839987 100.0925006  54.4425017  84.0119987  98.6695006  59.3235017
  84.9689987  98.6695006  59.3235017  83.7719987  99.5965006  59.3235017
  78.7909987 100.2915006  58.1455017  79.7479987 100.2915006  58.1455017
  78.5509987 101.2185006  58.1455017  82.4639987 100.2945006  55.7625017
  83.4209987 100.2945006  55.7625017  82.2239987 101.2215006  55.7625017
  81.1929987 101.3525006  53.4125017  82.1499987 101.3525006  53.4125017
  80.9529987 102.2795006  53.4125017  84.5239987 106.1635006  55.3495017
  85.4809987 106.1635006  55.3495017  84.2839987 107.0905006  55.3495017
  88.3399987  98.8825006  53.4945017  89.2969987  98.8825006  53.4945017
  88.0999987  99.8095006  53.4945017  89.0779987 100.7715006  55.1135017
  90.0349987 100.7715006  55.1135017  88.8379987 101.6985006  55.1135017
  86.6089987 107.5235006  54.3705017  87.5659987 107.5235006  54.3705017
  86.3689987 108.4505006  54.3705017  93.9869987 100.9425006  54.8715017
  94.9439987 100.9425006  54.8715017  93.7469987 101.8695006  54.8715017
  77.6989987 103.7185006  53.0535017  78.6559987 103.7185006  53.0535017
  77.4589987 104.6455006  53.0535017  89.6689987 107.7525006  53.1765017
  90.6259987 107.7525006  53.1765017  89.4289987 108.6795006  53.1765017
  90.4929987 106.4005006  55.3625017  91.4499987 106.4005006  55.3625017
  90.2529987 107.3275006  55.3625017  78.8109987 105.8885006  54.5575017
  79.7679987 105.8885006  54.5575017  78.5709987 106.8155006  54.5575017
  87.7349987  97.9645006  55.9635017  88.6919987  97.9645006  55.9635017
  87.4949987  98.8915006  55.9635017  84.9629987  99.6935006  56.7745017
  85.9199987  99.6935006  56.7745017  84.7229987 100.6205006  56.7745017
  85.8209987  96.7615006  57.7275017  86.7779987  96.7615006  57.7275017
  85.5809987  97.6885006  57.7275017  81.4659987  97.8725006  54.3845017
  82.4229987  97.8725006  54.3845017  81.2259987  98.7995006  54.3845017
  78.0559987 100.9575006  52.5825017  79.0129987 100.9575006  52.5825017
  77.8159987 101.8845006  52.5825017  81.3119987 106.5515006  51.7045017
  82.2689987 106.5515006  51.7045017  81.0719987 107.4785006  51.7045017
  86.5829987 107.4945006  51.5635017  87.5399987 107.4945006  51.5635017
  86.3429987 108.4215006  51.5635017  83.1909987 104.1115006  54.4855017
  84.1479987 104.1115006  54.4855017  82.9509987 105.0385006  54.4855017
  83.5569987 102.5905006  52.3575017  84.5139987 102.5905006  52.3575017
  83.3169987 103.5175006  52.3575017  92.9279987 104.9925006  51.8215017
  93.8849987 104.9925006  51.8215017  92.6879987 105.9195006  51.8215017
  77.0379987 107.8165006  52.7375017  77.9949987 107.8165006  52.7375017
  76.7979987 108.7435006  52.7375017  93.4019987 105.8695006  55.8085017
  94.3589987 105.8695006  55.8085017  93.1619987 106.7965006  55.8085017
  93.7889987 103.9905006  57.6705017  94.7459987 103.9905006  57.6705017
  93.5489987 104.9175006  57.6705017  94.0869987 103.7905006  54.0435017
  95.0439987 103.7905006  54.0435017  93.8469987 104.7175006  54.0435017
  92.4569987 101.0575006  52.5595017  93.4139987 101.0575006  52.5595017
  92.2169987 101.9845006  52.5595017  91.5929987 102.4885006  58.1865017
  92.5499987 102.4885006  58.1865017  91.3529987 103.4155006  58.1865017
  91.6929987  98.5125006  51.6915017  92.6499987  98.5125006  51.6915017
  91.4529987  99.4395006  51.6915017  91.2659987 100.0595006  56.6145017
  92.2229987 100.0595006  56.6145017  91.0259987 100.9865006  56.6145017
  91.9659987  97.3125006  56.6935017  92.9229987  97.3125006  56.6935017
  91.7259987  98.2395006  56.6935017  93.7619987  97.3745006  53.2745017
  94.7189987  97.3745006  53.2745017  93.5219987  98.3015006  53.2745017
  76.0799987  97.3425006  56.3625017  77.0369987  97.3425006  56.3625017
  75.8399987  98.2695006  56.3625017  93.0789987  96.2205006  59.0975017
  94.0359987  96.2205006  59.0975017  92.8389987  97.1475006  59.0975017
  77.3269987  95.3885006  54.3225017  78.2839987  95.3885006  54.3225017
  77.0869987  96.3155006  54.3225017  83.0669987  95.5845006  58.3815017
  84.0239987  95.5845006  58.3815017  82.8269987  96.5115006  58.3815017
  90.0089987  95.6045006  55.6585017  90.9659987  95.6045006  55.6585017
  89.7689987  96.5315006  55.6585017  79.1659987  97.3385006  52.7925017
  80.1229987  97.3385006  52.7925017  78.9259987  98.2655006  52.7925017
  84.2189987  97.5885006  55.2205017  85.1759987  97.5885006  55.2205017
  83.9789987  98.5155006  55.2205017  95.2919987 101.7315006  57.4155017
  96.2489987 101.7315006  57.4155017  95.0519987 102.6585006  57.4155017
 107.6889987  99.4945006  57.8945017 108.6459987  99.4945006  57.8945017
 107.4489987 100.4215006  57.8945017 106.2709987 107.3615006  57.4875017
 107.2279987 107.3615006  57.4875017 106.0309987 108.2885006  57.4875017
  95.9459987 107.0715006  55.9175017  96.9029987 107.0715006  55.9175017
  95.7059987 107.9985006  55.9175017 105.1209987 103.9895006  55.9375017
 106.0779987 103.9895006  55.9375017 104.8809987 104.9165006  55.9375017
 105.1949987 102.5295006  52.9555017 106.1519987 102.5295006  52.9555017
 104.9549987 103.4565006  52.9555017  99.9239987 104.5045006  58.8565017
 100.8809987 104.5045006  58.8565017  99.6839987 105.4315006  58.8565017
 107.4759987 103.3815006  54.5415017 108.4329987 103.3815006  54.5415017
 107.2359987 104.3085006  54.5415017  99.1919987 103.9295006  56.3525017
 100.1489987 103.9295006  56.3525017  98.9519987 104.8565006  56.3525017
 104.5249987  98.3455006  52.8785017 105.4819987  98.3455006  52.8785017
 104.2849987  99.2725006  52.8785017 100.2709987 101.2555006  58.2525017
 101.2279987 101.2555006  58.2525017 100.0309987 102.1825006  58.2525017
 105.7549987 101.6355006  57.0265017 106.7119987 101.6355006  57.0265017
 105.5149987 102.5625006  57.0265017 101.3449987  98.7415006  51.9795017
 102.3019987  98.7415006  51.9795017 101.1049987  99.6685006  51.9795017
  95.8769987  99.1575006  54.4485017  96.8339987  99.1575006  54.4485017
  95.6369987 100.0845006  54.4485017  97.6929987 100.3085006  58.1445017
  98.6499987 100.3085006  58.1445017  97.4529987 101.2355006  58.1445017
 101.3209987 100.3305006  55.8035017 102.2779987 100.3305006  55.8035017
 101.0809987 101.2575006  55.8035017 100.0019987 101.5285006  53.3975017
 100.9589987 101.5285006  53.3975017  99.7619987 102.4555006  53.3975017
  99.1329987  97.6095006  57.6635017 100.0899987  97.6095006  57.6635017
  98.8929987  98.5365006  57.6635017 103.4659987 105.9925006  55.0275017
 104.4229987 105.9925006  55.0275017 103.2259987 106.9195006  55.0275017
 107.1529987  98.9045006  53.4895017 108.1099987  98.9045006  53.4895017
 106.9129987  99.8315006  53.4895017   0.1189987 100.8755006  55.1635017
   1.0759987 100.8755006  55.1635017  -0.1210013 101.8025006  55.1635017
 105.4809987 107.5255006  54.3965017 106.4379987 107.5255006  54.3965017
 105.2409987 108.4525006  54.3965017  96.6019987 103.7345006  53.0675017
  97.5589987 103.7345006  53.0675017  96.3619987 104.6615006  53.0675017
 102.6509987 106.5935006  57.1685017 103.6079987 106.5935006  57.1685017
 102.4109987 107.5205006  57.1685017  98.0049987 105.6785006  54.5805017
  98.9619987 105.6785006  54.5805017  97.7649987 106.6055006  54.5805017
 106.3249987  98.1695006  55.9365017 107.2819987  98.1695006  55.9365017
 106.0849987  99.0965006  55.9365017 103.8069987  99.7025006  56.7875017
 104.7639987  99.7025006  56.7875017 103.5669987 100.6295006  56.7875017
 104.6519987  96.7875006  57.6555017 105.6089987  96.7875006  57.6555017
 104.4119987  97.7145006  57.6555017 100.3259987  97.8465006  54.4145017
 101.2829987  97.8465006  54.4145017 100.0859987  98.7735006  54.4145017
  96.9039987 100.9585006  52.5835017  97.8609987 100.9585006  52.5835017
  96.6639987 101.8855006  52.5835017 100.1209987 106.4185006  51.7635017
 101.0779987 106.4185006  51.7635017  99.8809987 107.3455006  51.7635017
 105.4519987 107.4785006  51.5525017 106.4089987 107.4785006  51.5525017
 105.2119987 108.4055006  51.5525017 101.3159987 104.4565006  54.1405017
 102.2729987 104.4565006  54.1405017 101.0759987 105.3835006  54.1405017
 102.4119987 102.6375006  52.3935017 103.3689987 102.6375006  52.3935017
 102.1719987 103.5645006  52.3935017  95.8979987 107.7865006  52.7695017
  96.8549987 107.7865006  52.7695017  95.6579987 108.7135006  52.7695017
  94.9389987  97.3455006  56.3625017  95.8959987  97.3455006  56.3625017
  94.6989987  98.2725006  56.3625017  96.1989987  95.3915006  54.3435017
  97.1559987  95.3915006  54.3435017  95.9589987  96.3185006  54.3435017
 101.8909987  95.6125006  58.3895017 102.8479987  95.6125006  58.3895017
 101.6509987  96.5395006  58.3895017 107.4309987  95.5075006  60.1605017
 108.3879987  95.5075006  60.1605017 107.1909987  96.4345006  60.1605017
  98.0209987  97.3355006  52.7905017  98.9779987  97.3355006  52.7905017
  97.7809987  98.2625006  52.7905017 103.0299987  97.5755006  55.2375017
 103.9869987  97.5755006  55.2375017 102.7899987  98.5025006  55.2375017
  50.1309987  53.8715006  76.4175017  51.0879987  53.8715006  76.4175017
  49.8909987  54.7985006  76.4175017  54.8909987  60.7585006  79.0985017
  55.8479987  60.7585006  79.0985017  54.6509987  61.6855006  79.0985017
  54.6709987  52.6345006  74.8745017  55.6279987  52.6345006  74.8745017
  54.4309987  53.5615006  74.8745017  56.9889987  56.8765006  72.9105017
  57.9459987  56.8765006  72.9105017  56.7489987  57.8035006  72.9105017
  56.9549987  51.0205006  69.0075017  57.9119987  51.0205006  69.0075017
  56.7149987  51.9475006  69.0075017  61.4989987  58.1555006  80.8055017
  62.4559987  58.1555006  80.8055017  61.2589987  59.0825006  80.8055017
  59.8389987  54.3745006  76.2305017  60.7959987  54.3745006  76.2305017
  59.5989987  55.3015006  76.2305017  53.0319987  53.9055006  69.0315017
  53.9889987  53.9055006  69.0315017  52.7919987  54.8325006  69.0315017
  52.6039987  52.3115006  78.7985017  53.5609987  52.3115006  78.7985017
  52.3639987  53.2385006  78.7985017  55.4379987  55.5685006  80.2785017
  56.3949987  55.5685006  80.2785017  55.1979987  56.4955006  80.2785017
  54.0679987  49.6665006  77.6115017  55.0249987  49.6665006  77.6115017
  53.8279987  50.5935006  77.6115017  53.0549987  54.5075006  75.7885017
  54.0119987  54.5075006  75.7885017  52.8149987  55.4345006  75.7885017
  54.4629987  56.1125006  68.0445017  55.4199987  56.1125006  68.0445017
  54.2229987  57.0395006  68.0445017  55.3869987  45.8315006  81.1785017
  56.3439987  45.8315006  81.1785017  55.1469987  46.7585006  81.1785017
  62.6199987  56.2055006  78.6085017  63.5769987  56.2055006  78.6085017
  62.3799987  57.1325006  78.6085017  57.7869987  53.3825006  69.9175017
  58.7439987  53.3825006  69.9175017  57.5469987  54.3095006  69.9175017
  59.0459987  59.1025006  79.0055017  60.0029987  59.1025006  79.0055017
  58.8059987  60.0295006  79.0055017  52.9989987  59.6145006  81.2205017
  53.9559987  59.6145006  81.2205017  52.7589987  60.5415006  81.2205017
  51.8299987  56.4805006  80.4075017  52.7869987  56.4805006  80.4075017
  51.5899987  57.4075006  80.4075017  54.4919987  60.5955006  76.1695017
  55.4489987  60.5955006  76.1695017  54.2519987  61.5225006  76.1695017
  49.6089987  54.7935006  79.1015017  50.5659987  54.7935006  79.1015017
  49.3689987  55.7205006  79.1015017  46.7749987  53.9825006  81.5265017
  47.7319987  53.9825006  81.5265017  46.5349987  54.9095006  81.5265017
  57.4269987  53.8415006  77.2545017  58.3839987  53.8415006  77.2545017
  57.1869987  54.7685006  77.2545017  55.7759987  52.1455006  79.4965017
  56.7329987  52.1455006  79.4965017  55.5359987  53.0725006  79.4965017
  56.4119987  52.9735006  72.0655017  57.3689987  52.9735006  72.0655017
  56.1719987  53.9005006  72.0655017  53.9359987  56.0585006  72.6315017
  54.8929987  56.0585006  72.6315017  53.6959987  56.9855006  72.6315017
  58.4839987  50.5365006  80.4505017  59.4409987  50.5365006  80.4505017
  58.2439987  51.4635006  80.4505017  56.4259987  58.9005006  78.0035017
  57.3829987  58.9005006  78.0035017  56.1859987  59.8275006  78.0035017
  58.1009987  54.8085006  81.5375017  59.0579987  54.8085006  81.5375017
  57.8609987  55.7355006  81.5375017  64.7079987  56.5745006  80.0455017
  65.6649987  56.5745006  80.0455017  64.4679987  57.5015006  80.0455017
  45.7439987  51.1185006  80.5045017  46.7009987  51.1185006  80.5045017
  45.5039987  52.0455006  80.5045017  48.5639987  50.8675006  80.7305017
  49.5209987  50.8675006  80.7305017  48.3239987  51.7945006  80.7305017
 108.4699974 108.5810013 160.6050034  90.0000000  90.0000000  90.0000000
